/*--------------------------------*- C++ -*----------------------------------*\
| =========                 |                                                 |
| \\      /  F ield         | OpenFOAM: The Open Source CFD Toolbox           |
|  \\    /   O peration     | Version:  v1912                                 |
|   \\  /    A nd           | Website:  www.openfoam.com                      |
|    \\/     M anipulation  |                                                 |
\*---------------------------------------------------------------------------*/
FoamFile
{
    version     2.0;
    format      ascii;
    class       volVectorField;
    location    "197.6";
    object      UMean;
}
// * * * * * * * * * * * * * * * * * * * * * * * * * * * * * * * * * * * * * //

dimensions      [0 1 -1 0 0 0 0];


internalField   nonuniform List<vector> 
10077
(
(7.44433e-06 0.000816893 0.268055)
(0.000601189 3.7825e-05 0.270718)
(0.000454726 -0.000811767 0.273947)
(0.000171363 -0.000825922 0.274967)
(4.74149e-05 -0.000764307 0.274812)
(4.6356e-06 -0.000645116 0.274517)
(5.51635e-06 -0.000556331 0.27432)
(1.5024e-05 -0.000493798 0.274197)
(3.485e-05 -0.000470956 0.274156)
(5.06492e-05 -0.000475663 0.274189)
(5.47817e-05 -0.000528508 0.274302)
(4.35589e-05 -0.000612361 0.27448)
(-1.0334e-05 -0.000732005 0.274741)
(-0.000146178 -0.000805031 0.274786)
(-0.000435914 -0.000803433 0.27375)
(-0.000584942 3.79395e-05 0.270586)
(8.647e-06 0.000780759 0.268311)
(0.000606691 2.34619e-05 0.270705)
(0.000466307 -0.000799265 0.273592)
(0.000185665 -0.000813821 0.274534)
(5.62481e-05 -0.000759159 0.274386)
(9.16546e-06 -0.000643697 0.274131)
(6.49874e-06 -0.000556369 0.273968)
(1.43414e-05 -0.000494464 0.27387)
(3.36344e-05 -0.000471776 0.273838)
(4.88941e-05 -0.000476115 0.273867)
(5.20155e-05 -0.000528147 0.273959)
(3.82084e-05 -0.000610445 0.274104)
(-1.87831e-05 -0.00072641 0.274329)
(-0.00015883 -0.000792549 0.274362)
(-0.000445278 -0.00079075 0.273398)
(-0.00058813 2.3687e-05 0.270572)
(9.90668e-06 0.000745212 0.268474)
(0.000611007 9.2796e-06 0.27061)
(0.000475942 -0.000786969 0.273172)
(0.000198729 -0.000801606 0.274035)
(6.45816e-05 -0.000753566 0.27389)
(1.34773e-05 -0.000641821 0.27367)
(7.39429e-06 -0.000556004 0.27354)
(1.36125e-05 -0.000494809 0.273465)
(3.23541e-05 -0.000472309 0.273442)
(4.70784e-05 -0.000476272 0.273467)
(4.92526e-05 -0.000527442 0.273539)
(3.30399e-05 -0.000608147 0.273654)
(-2.67008e-05 -0.000720453 0.273846)
(-0.000170174 -0.000780016 0.273871)
(-0.000452574 -0.000778298 0.272981)
(-0.000589994 9.60961e-06 0.270476)
(1.12088e-05 0.000710371 0.268547)
(0.000614214 -4.60545e-06 0.270436)
(0.000483785 -0.000774818 0.272688)
(0.000210641 -0.000789258 0.273473)
(7.24307e-05 -0.000747498 0.273328)
(1.7573e-05 -0.000639429 0.27314)
(8.20549e-06 -0.000555166 0.27304)
(1.28461e-05 -0.000494748 0.272988)
(3.10244e-05 -0.000472447 0.272972)
(4.52283e-05 -0.00047603 0.272994)
(4.65247e-05 -0.000526315 0.273048)
(2.80764e-05 -0.000605407 0.273134)
(-3.4099e-05 -0.000714118 0.273296)
(-0.000180313 -0.000767425 0.273317)
(-0.000457985 -0.000766022 0.2725)
(-0.000590648 -4.18777e-06 0.270301)
(1.25428e-05 0.000676246 0.268532)
(0.000616397 -1.81947e-05 0.270184)
(0.000489991 -0.00076286 0.272145)
(0.000221488 -0.000776871 0.272852)
(7.98174e-05 -0.000741054 0.272704)
(2.14596e-05 -0.000636613 0.272544)
(8.93746e-06 -0.000553938 0.272473)
(1.20495e-05 -0.000494364 0.272442)
(2.96564e-05 -0.000472294 0.272433)
(4.33609e-05 -0.000475496 0.272452)
(4.38493e-05 -0.000524859 0.272488)
(2.3325e-05 -0.00060232 0.272548)
(-4.10011e-05 -0.000707484 0.272683)
(-0.00018935 -0.000754852 0.272703)
(-0.000461692 -0.000753962 0.271959)
(-0.000590201 -1.76934e-05 0.270048)
(1.38994e-05 0.000642905 0.268432)
(0.000617638 -3.14234e-05 0.269856)
(0.000494711 -0.000751067 0.271542)
(0.000231357 -0.000764451 0.272173)
(8.67656e-05 -0.00073424 0.27202)
(2.51452e-05 -0.000633362 0.271887)
(9.59595e-06 -0.000552303 0.271842)
(1.12303e-05 -0.000493628 0.27183)
(2.8259e-05 -0.000471817 0.271827)
(4.14883e-05 -0.000474638 0.271844)
(4.12367e-05 -0.000523054 0.271864)
(1.87861e-05 -0.000598875 0.2719)
(-4.74352e-05 -0.000700563 0.272011)
(-0.000197383 -0.000742309 0.272032)
(-0.000463866 -0.000742093 0.271359)
(-0.000588763 -3.08458e-05 0.26972)
(1.527e-05 0.000610392 0.268249)
(0.000618026 -4.42497e-05 0.269456)
(0.000498089 -0.000739429 0.270882)
(0.000240326 -0.000752021 0.27144)
(9.32989e-05 -0.000727078 0.271281)
(2.86384e-05 -0.000629689 0.271171)
(1.01867e-05 -0.000550264 0.27115)
(1.03955e-05 -0.000492539 0.271156)
(2.68382e-05 -0.000471014 0.27116)
(3.96186e-05 -0.000473457 0.271174)
(3.86933e-05 -0.000520906 0.271178)
(1.44563e-05 -0.000595085 0.271192)
(-5.34304e-05 -0.000693373 0.271282)
(-0.000204506 -0.000729817 0.271306)
(-0.000464674 -0.000730406 0.270702)
(-0.000586442 -4.36036e-05 0.269319)
(1.66462e-05 0.000578741 0.267986)
(0.000617647 -5.66412e-05 0.268983)
(0.000500265 -0.000727939 0.270167)
(0.000248472 -0.000739599 0.270655)
(9.94398e-05 -0.000719591 0.270487)
(3.19471e-05 -0.000625611 0.270398)
(1.07148e-05 -0.000547833 0.2704)
(9.5513e-06 -0.000491103 0.270423)
(2.54014e-05 -0.000469887 0.270432)
(3.77587e-05 -0.000471957 0.270444)
(3.62225e-05 -0.000518423 0.270434)
(1.03293e-05 -0.000590965 0.270427)
(-5.90155e-05 -0.000685936 0.270498)
(-0.000210809 -0.000717392 0.270528)
(-0.000464274 -0.000718891 0.26999)
(-0.000583347 -5.59339e-05 0.268846)
(1.80196e-05 0.000547977 0.267643)
(0.000616588 -6.85707e-05 0.268441)
(0.00050137 -0.000716585 0.269397)
(0.000255864 -0.000727201 0.269819)
(0.000105209 -0.000711799 0.269642)
(3.50789e-05 -0.00062114 0.269571)
(1.11851e-05 -0.000545018 0.269594)
(8.70305e-06 -0.000489323 0.269633)
(2.39589e-05 -0.000468439 0.269647)
(3.59163e-05 -0.000470145 0.269657)
(3.38284e-05 -0.000515616 0.269634)
(6.39887e-06 -0.000586526 0.269608)
(-6.4218e-05 -0.000678267 0.269662)
(-0.000216373 -0.000705046 0.269698)
(-0.000462816 -0.000707538 0.269223)
(-0.000579585 -6.78096e-05 0.268304)
(1.93822e-05 0.000518117 0.267223)
(0.000614937 -8.00166e-05 0.267831)
(0.000501528 -0.00070536 0.268575)
(0.000262569 -0.000714837 0.268933)
(0.000110627 -0.000703719 0.268746)
(3.80399e-05 -0.000616293 0.268693)
(1.16013e-05 -0.000541831 0.268735)
(7.85501e-06 -0.000487205 0.268789)
(2.25208e-05 -0.000466673 0.268807)
(3.4101e-05 -0.000468025 0.268815)
(3.15167e-05 -0.000512491 0.268781)
(2.66123e-06 -0.000581781 0.268736)
(-6.9064e-05 -0.000670381 0.268775)
(-0.000221278 -0.000692788 0.268818)
(-0.000460443 -0.000696337 0.268404)
(-0.000575263 -7.92086e-05 0.267694)
(2.07258e-05 0.000489173 0.266727)
(0.00061278 -9.09615e-05 0.267155)
(0.000500858 -0.00069425 0.267701)
(0.000268646 -0.000702515 0.268)
(0.000115712 -0.000695366 0.267802)
(4.08356e-05 -0.000611081 0.267764)
(1.19666e-05 -0.00053828 0.267824)
(7.01068e-06 -0.000484754 0.267891)
(2.10941e-05 -0.00046459 0.267914)
(3.2321e-05 -0.0004656 0.26792)
(2.92927e-05 -0.000509054 0.267875)
(-8.86376e-07 -0.000576737 0.267814)
(-7.35779e-05 -0.000662288 0.26784)
(-0.000225595 -0.000680622 0.267891)
(-0.000457286 -0.000685274 0.267532)
(-0.000570483 -9.01134e-05 0.267018)
(2.20427e-05 0.00046115 0.266158)
(0.000610199 -0.000101391 0.266414)
(0.000499466 -0.000683243 0.266777)
(0.000274152 -0.00069024 0.26702)
(0.000120482 -0.000686753 0.266811)
(4.34709e-05 -0.000605517 0.266786)
(1.22838e-05 -0.000534375 0.266863)
(6.17282e-06 -0.000481975 0.266943)
(1.96833e-05 -0.000462194 0.266969)
(3.05826e-05 -0.000462872 0.266974)
(2.71597e-05 -0.00050531 0.266919)
(-4.24744e-06 -0.000571402 0.266843)
(-7.77825e-05 -0.000653996 0.266856)
(-0.00022939 -0.000668549 0.266916)
(-0.000453471 -0.000674336 0.266611)
(-0.000565345 -0.00010051 0.266277)
(2.33254e-05 0.000434049 0.265516)
(0.000607274 -0.000111296 0.265611)
(0.000497456 -0.000672326 0.265803)
(0.000279138 -0.000678011 0.265994)
(0.000124953 -0.000677889 0.265773)
(4.59503e-05 -0.000599611 0.265761)
(1.25552e-05 -0.000530123 0.265853)
(5.34359e-06 -0.000478873 0.265945)
(1.82907e-05 -0.000459489 0.265975)
(2.88893e-05 -0.000459847 0.265979)
(2.51187e-05 -0.000501265 0.265915)
(-7.42612e-06 -0.000565783 0.265824)
(-8.16985e-05 -0.000645513 0.265826)
(-0.000232725 -0.000656566 0.265896)
(-0.000449111 -0.000663507 0.26564)
(-0.00055994 -0.000110387 0.265474)
(2.45671e-05 0.000407867 0.264805)
(0.00060408 -0.000120665 0.264746)
(0.000494919 -0.000661481 0.26478)
(0.000283653 -0.000665829 0.264923)
(0.000129139 -0.000668784 0.26469)
(4.82778e-05 -0.000593372 0.264689)
(1.27824e-05 -0.000525531 0.264796)
(4.52458e-06 -0.00047545 0.264898)
(1.69188e-05 -0.000456476 0.264932)
(2.72439e-05 -0.000456526 0.264935)
(2.31703e-05 -0.000496924 0.264862)
(-1.04266e-05 -0.000559885 0.264758)
(-8.5345e-05 -0.00063684 0.26475)
(-0.000235656 -0.00064467 0.264829)
(-0.000444309 -0.000652771 0.26462)
(-0.000554359 -0.000119736 0.264609)
(2.57616e-05 0.000382597 0.264024)
(0.000600687 -0.000129494 0.263822)
(0.000491938 -0.000650691 0.26371)
(0.000287739 -0.000653689 0.263807)
(0.000133054 -0.000659444 0.263562)
(5.04563e-05 -0.000586807 0.263572)
(1.2966e-05 -0.000520605 0.263692)
(3.71677e-06 -0.00047171 0.263804)
(1.55708e-05 -0.000453157 0.263842)
(2.56488e-05 -0.000452911 0.263843)
(2.13159e-05 -0.000492289 0.263763)
(-1.32526e-05 -0.000553713 0.263647)
(-8.87396e-05 -0.000627982 0.263629)
(-0.000238232 -0.000632852 0.263719)
(-0.00043916 -0.000642108 0.263552)
(-0.000548681 -0.000128549 0.263685)
(2.69036e-05 0.000358231 0.263177)
(0.000597162 -0.000137776 0.262839)
(0.000488589 -0.000639938 0.262592)
(0.000291436 -0.000641585 0.262647)
(0.000136711 -0.000649876 0.26239)
(5.24881e-05 -0.000579921 0.26241)
(1.31061e-05 -0.000515348 0.262542)
(2.92084e-06 -0.000467651 0.262664)
(1.42497e-05 -0.000449531 0.262704)
(2.41073e-05 -0.000449002 0.262705)
(1.95572e-05 -0.000487362 0.262618)
(-1.59074e-05 -0.000547266 0.262491)
(-9.18982e-05 -0.00061894 0.262463)
(-0.000240501 -0.000621105 0.262563)
(-0.000433748 -0.000631498 0.262437)
(-0.000542981 -0.000136822 0.262702)
(2.79883e-05 0.000334758 0.262265)
(0.000593562 -0.000145507 0.261799)
(0.000484941 -0.0006292 0.261428)
(0.000294779 -0.000629509 0.261444)
(0.000140121 -0.000640081 0.261174)
(5.43754e-05 -0.000572716 0.261204)
(1.32024e-05 -0.000509761 0.261347)
(2.13729e-06 -0.000463275 0.261477)
(1.29583e-05 -0.000445597 0.261521)
(2.26224e-05 -0.000444798 0.261521)
(1.78963e-05 -0.000482142 0.261428)
(-1.83937e-05 -0.000540545 0.26129)
(-9.48352e-05 -0.000609713 0.261253)
(-0.000242502 -0.000609415 0.261364)
(-0.000428147 -0.00062092 0.261276)
(-0.000537327 -0.000144549 0.261663)
(2.90119e-05 0.000312166 0.26129)
(0.000589944 -0.000152684 0.260703)
(0.000481053 -0.000618454 0.260217)
(0.0002978 -0.000617448 0.260196)
(0.000143295 -0.000630063 0.259914)
(5.61195e-05 -0.000565193 0.259953)
(1.32545e-05 -0.000503843 0.260108)
(1.36632e-06 -0.000458578 0.260246)
(1.16988e-05 -0.00044135 0.260292)
(2.11967e-05 -0.000440296 0.260292)
(1.63349e-05 -0.000476625 0.260193)
(-2.07139e-05 -0.000533546 0.260044)
(-9.7563e-05 -0.000600297 0.259999)
(-0.000244271 -0.000597769 0.260121)
(-0.000422423 -0.000610348 0.260067)
(-0.000531779 -0.000151726 0.260567)
(2.99714e-05 0.000290443 0.260252)
(0.000586356 -0.000159301 0.259551)
(0.000476979 -0.000607676 0.25896)
(0.000300529 -0.000605387 0.258906)
(0.000146242 -0.000619818 0.258611)
(5.77217e-05 -0.00055735 0.258659)
(1.32617e-05 -0.000497593 0.258824)
(6.08182e-07 -0.000453555 0.258969)
(1.04731e-05 -0.000436784 0.259017)
(1.98321e-05 -0.000435488 0.259017)
(1.4874e-05 -0.000470809 0.258913)
(-2.28697e-05 -0.000526264 0.258755)
(-0.000100093 -0.000590688 0.258701)
(-0.00024584 -0.000586147 0.258835)
(-0.000416634 -0.000599756 0.258812)
(-0.000526388 -0.000158348 0.259417)
(3.08643e-05 0.000269574 0.259154)
(0.000582842 -0.000165356 0.258346)
(0.000472767 -0.000596839 0.257656)
(0.000302991 -0.000593309 0.257571)
(0.00014897 -0.000609343 0.257264)
(5.91833e-05 -0.000549183 0.25732)
(1.32232e-05 -0.000491007 0.257496)
(-1.36653e-07 -0.0004482 0.257647)
(9.28281e-06 -0.000431893 0.257698)
(1.85306e-05 -0.000430369 0.257698)
(1.35151e-05 -0.000464685 0.257589)
(-2.48627e-05 -0.000518693 0.257421)
(-0.000102434 -0.000580877 0.25736)
(-0.000247237 -0.00057453 0.257504)
(-0.00041083 -0.000589119 0.257511)
(-0.000521203 -0.00016441 0.258212)
(3.16902e-05 0.000249536 0.257996)
(0.000579439 -0.000170843 0.257087)
(0.000468459 -0.000585918 0.256306)
(0.000305211 -0.000581192 0.256193)
(0.000151487 -0.00059863 0.255873)
(6.05052e-05 -0.000540688 0.255938)
(1.31383e-05 -0.000484078 0.256124)
(-8.6798e-07 -0.000442504 0.256281)
(8.12945e-06 -0.000426667 0.256334)
(1.7294e-05 -0.000424929 0.256333)
(1.22597e-05 -0.000458246 0.256221)
(-2.66939e-05 -0.000510824 0.256043)
(-0.000104597 -0.000570854 0.255975)
(-0.000248486 -0.000562894 0.25613)
(-0.000405054 -0.000578406 0.256163)
(-0.000516262 -0.000169909 0.256954)
(3.24497e-05 0.00023032 0.256779)
(0.000576183 -0.000175762 0.255775)
(0.000464093 -0.000574886 0.254909)
(0.000307209 -0.000569016 0.254771)
(0.000153801 -0.000587671 0.254439)
(6.16879e-05 -0.000531859 0.254511)
(1.30062e-05 -0.000476802 0.254707)
(-1.58598e-06 -0.000436462 0.25487)
(7.01465e-06 -0.000421097 0.254925)
(1.61245e-05 -0.00041916 0.254924)
(1.11096e-05 -0.000451486 0.254807)
(-2.83638e-05 -0.000502649 0.25462)
(-0.000106589 -0.000560605 0.254545)
(-0.000249607 -0.000551215 0.254711)
(-0.000399343 -0.00056759 0.254769)
(-0.0005116 -0.00017484 0.255643)
(3.31428e-05 0.000211989 0.255505)
(0.000573102 -0.000180114 0.25441)
(0.000459701 -0.000563716 0.253466)
(0.000309003 -0.000556758 0.253303)
(0.000155916 -0.000576456 0.252959)
(6.27316e-05 -0.000522691 0.253039)
(1.28261e-05 -0.000469174 0.253245)
(-2.29105e-06 -0.000430065 0.253413)
(5.93998e-06 -0.000415176 0.25347)
(1.50241e-05 -0.000413053 0.253469)
(1.00664e-05 -0.000444397 0.253349)
(-2.98724e-05 -0.00049416 0.253153)
(-0.000108416 -0.000550119 0.25307)
(-0.000250618 -0.000539466 0.253247)
(-0.000393729 -0.000556644 0.253327)
(-0.000507244 -0.000179205 0.254279)
(3.37685e-05 0.000194631 0.254173)
(0.000570214 -0.000183899 0.252993)
(0.000455311 -0.000552385 0.251974)
(0.000310608 -0.000544398 0.25179)
(0.000157837 -0.000564974 0.251434)
(6.36363e-05 -0.000513181 0.251522)
(1.25969e-05 -0.000461193 0.251737)
(-2.98369e-06 -0.00042331 0.251911)
(4.90677e-06 -0.000408898 0.251969)
(1.39945e-05 -0.000406603 0.251969)
(9.13189e-06 -0.000436974 0.251844)
(-3.12194e-05 -0.000485351 0.251639)
(-0.000110085 -0.000539383 0.251549)
(-0.000251535 -0.000527626 0.251737)
(-0.000388236 -0.000545541 0.251838)
(-0.000503213 -0.000183004 0.252862)
(3.43262e-05 0.00017839 0.252783)
(0.000567527 -0.000187067 0.251523)
(0.000450944 -0.000540873 0.250434)
(0.000312036 -0.000531918 0.250231)
(0.000159569 -0.00055322 0.249863)
(6.44013e-05 -0.000503328 0.249958)
(1.23176e-05 -0.000452859 0.250182)
(-3.66438e-06 -0.000416197 0.250361)
(3.91607e-06 -0.000402263 0.250422)
(1.30373e-05 -0.000399811 0.250421)
(8.30765e-06 -0.000429218 0.250293)
(-3.24041e-05 -0.000476219 0.250079)
(-0.000111599 -0.000528385 0.249982)
(-0.000252368 -0.000515673 0.250181)
(-0.000382889 -0.000534261 0.2503)
(-0.000499517 -0.000186191 0.251394)
(3.48188e-05 0.00016336 0.251333)
(0.000565046 -0.000189558 0.250001)
(0.000446618 -0.000529165 0.248845)
(0.000313302 -0.000519304 0.248625)
(0.000161115 -0.000541187 0.248245)
(6.5026e-05 -0.000493136 0.248347)
(1.1987e-05 -0.000444175 0.24858)
(-4.33364e-06 -0.000408723 0.248765)
(2.96875e-06 -0.000395267 0.248827)
(1.21536e-05 -0.00039267 0.248826)
(7.59527e-06 -0.000421128 0.248695)
(-3.34252e-05 -0.000466763 0.248472)
(-0.000112959 -0.000517118 0.248368)
(-0.000253128 -0.000503592 0.248577)
(-0.000377702 -0.000522787 0.248713)
(-0.000496157 -0.000188705 0.249872)
(3.52513e-05 0.000149571 0.249824)
(0.000562772 -0.00019128 0.248426)
(0.000442347 -0.000517242 0.247207)
(0.000314417 -0.000506548 0.24697)
(0.000162477 -0.000528878 0.246579)
(6.55091e-05 -0.000482596 0.246688)
(1.1604e-05 -0.000435125 0.24693)
(-4.99197e-06 -0.000400859 0.247119)
(2.06589e-06 -0.000387882 0.247183)
(1.13437e-05 -0.000385152 0.247183)
(6.99576e-06 -0.000412687 0.247048)
(-3.42817e-05 -0.000456973 0.246816)
(-0.000114168 -0.000505581 0.246706)
(-0.00025382 -0.00049137 0.246926)
(-0.00037268 -0.000511098 0.247077)
(-0.000493129 -0.000190456 0.248298)
(3.56273e-05 0.000136988 0.248252)
(0.000560703 -0.000192159 0.246795)
(0.000438133 -0.000505064 0.245517)
(0.000315392 -0.000493623 0.245267)
(0.000163659 -0.000516268 0.244862)
(6.58503e-05 -0.000471688 0.244979)
(1.11684e-05 -0.000425682 0.24523)
(-5.6396e-06 -0.000392568 0.245424)
(1.20833e-06 -0.000380073 0.245489)
(1.06073e-05 -0.000377217 0.245489)
(6.50888e-06 -0.000403864 0.245351)
(-3.49732e-05 -0.000446826 0.245111)
(-0.000115228 -0.000493747 0.244993)
(-0.000254448 -0.000478978 0.245225)
(-0.000367822 -0.000499154 0.245389)
(-0.000490425 -0.000191368 0.246668)
(3.59491e-05 0.000125538 0.246616)
(0.000558837 -0.000192153 0.245108)
(0.000433962 -0.000492583 0.243773)
(0.000316232 -0.000480466 0.243508)
(0.000164666 -0.000503296 0.243088)
(6.60544e-05 -0.000460361 0.243215)
(1.06815e-05 -0.000415795 0.243475)
(-6.27684e-06 -0.0003838 0.243675)
(3.95768e-07 -0.000371786 0.243741)
(9.94308e-06 -0.000368815 0.243742)
(6.13127e-06 -0.000394608 0.243599)
(-3.5506e-05 -0.000436268 0.243351)
(-0.000116143 -0.000481553 0.243224)
(-0.000255015 -0.000466353 0.243468)
(-0.000363111 -0.000486906 0.243646)
(-0.000488038 -0.000191399 0.244982)
(3.62184e-05 0.000115148 0.244914)
(0.000557169 -0.000191259 0.243362)
(0.000429799 -0.000479699 0.241966)
(0.000316941 -0.000466972 0.241685)
(0.000165504 -0.000489873 0.241251)
(6.61275e-05 -0.000448525 0.241388)
(1.01469e-05 -0.000405385 0.241658)
(-6.90351e-06 -0.000374484 0.241864)
(-3.73627e-07 -0.00036295 0.241931)
(9.34654e-06 -0.000359873 0.241933)
(5.856e-06 -0.000384836 0.241785)
(-3.58884e-05 -0.000425207 0.241527)
(-0.000116919 -0.000468908 0.24139)
(-0.000255521 -0.000453389 0.241648)
(-0.000358505 -0.000474253 0.24184)
(-0.000485961 -0.000190541 0.243236)
(3.64374e-05 0.00010575 0.243145)
(0.000555671 -0.000189502 0.24155)
(0.000425612 -0.000466309 0.240087)
(0.00031752 -0.000453048 0.239794)
(0.000166174 -0.000475914 0.239346)
(6.60705e-05 -0.000436105 0.239491)
(9.56625e-06 -0.000394374 0.23977)
(-7.51963e-06 -0.000364545 0.239982)
(-1.10168e-06 -0.000353487 0.240049)
(8.81308e-06 -0.000350314 0.240052)
(5.67815e-06 -0.000374467 0.2399)
(-3.61226e-05 -0.000413565 0.239633)
(-0.000117555 -0.000455722 0.239489)
(-0.000255965 -0.000439989 0.239759)
(-0.000353969 -0.000461091 0.239963)
(-0.000484159 -0.000188819 0.241425)
(3.66072e-05 9.73072e-05 0.241306)
(0.000554268 -0.00018691 0.23966)
(0.000421397 -0.000452352 0.238131)
(0.000317971 -0.000438617 0.23783)
(0.000166676 -0.000461343 0.237368)
(6.58806e-05 -0.000423042 0.23752)
(8.93821e-06 -0.000382711 0.237806)
(-8.12662e-06 -0.000353946 0.238022)
(-1.78927e-06 -0.000343356 0.238089)
(8.34107e-06 -0.000340099 0.238094)
(5.59686e-06 -0.000363451 0.237939)
(-3.62071e-05 -0.000401279 0.237665)
(-0.000118052 -0.00044192 0.237515)
(-0.000256345 -0.000426076 0.237796)
(-0.000349497 -0.000447357 0.238008)
(-0.000482554 -0.000186258 0.239534)
(3.67293e-05 8.97935e-05 0.239389)
(0.000552907 -0.000183509 0.237677)
(0.000417158 -0.000437794 0.236095)
(0.000318293 -0.000423641 0.235787)
(0.000167006 -0.000446131 0.235314)
(6.55534e-05 -0.000409311 0.235469)
(8.26e-06 -0.000370375 0.235762)
(-8.72668e-06 -0.000342668 0.235981)
(-2.43705e-06 -0.000332537 0.236048)
(7.93012e-06 -0.000329209 0.236053)
(5.61301e-06 -0.000351762 0.235897)
(-3.61388e-05 -0.000388325 0.235617)
(-0.000118407 -0.000427469 0.235463)
(-0.000256658 -0.000411611 0.235755)
(-0.000345087 -0.000433017 0.235972)
(-0.000481088 -0.000182882 0.237552)
(3.68057e-05 8.31746e-05 0.23738)
(0.000551584 -0.000179318 0.235598)
(0.000412898 -0.000422635 0.233972)
(0.000318482 -0.000408119 0.233662)
(0.000167164 -0.000430284 0.233177)
(6.50849e-05 -0.000394921 0.233336)
(7.52845e-06 -0.000357372 0.233633)
(-9.32241e-06 -0.000330722 0.233853)
(-3.04633e-06 -0.000321041 0.23392)
(7.57967e-06 -0.000317656 0.233927)
(5.72717e-06 -0.000339407 0.233771)
(-3.59157e-05 -0.00037471 0.233486)
(-0.000118618 -0.000412375 0.233329)
(-0.000256898 -0.000396592 0.233631)
(-0.000340739 -0.000418072 0.233851)
(-0.000479755 -0.000178713 0.235472)
(3.68381e-05 7.74488e-05 0.235264)
(0.000550298 -0.000174352 0.23342)
(0.000408616 -0.000406915 0.23176)
(0.000318531 -0.000392094 0.231448)
(0.000167145 -0.000413857 0.230952)
(6.44715e-05 -0.000379922 0.231113)
(6.74092e-06 -0.000343747 0.231415)
(-9.91636e-06 -0.000318152 0.231635)
(-3.62036e-06 -0.000308908 0.231702)
(7.28728e-06 -0.00030548 0.23171)
(5.93769e-06 -0.000326431 0.231555)
(-3.5538e-05 -0.000360481 0.231266)
(-0.000118681 -0.000396691 0.231107)
(-0.000257058 -0.000381064 0.231418)
(-0.000336451 -0.000402561 0.231639)
(-0.000478551 -0.000173767 0.233294)
(3.68282e-05 7.26327e-05 0.233038)
(0.00054904 -0.000168631 0.231142)
(0.000404307 -0.000390685 0.229454)
(0.000318433 -0.000375621 0.229142)
(0.000166945 -0.000396913 0.228634)
(6.37111e-05 -0.000364375 0.228798)
(5.89558e-06 -0.000329558 0.229103)
(-1.05109e-05 -0.000305009 0.229323)
(-4.16387e-06 -0.000296192 0.22939)
(7.04896e-06 -0.000292734 0.229399)
(6.24088e-06 -0.000312888 0.229245)
(-3.5008e-05 -0.000345699 0.228953)
(-0.000118595 -0.000380481 0.228792)
(-0.000257126 -0.000365078 0.229113)
(-0.000332214 -0.000386535 0.229333)
(-0.000477464 -0.000168064 0.231017)
(3.67775e-05 6.87181e-05 0.230701)
(0.000547796 -0.000162184 0.228761)
(0.000399963 -0.000373998 0.227049)
(0.000318178 -0.000358752 0.226738)
(0.000166563 -0.000379515 0.226219)
(6.28025e-05 -0.000348339 0.226385)
(4.99145e-06 -0.00031486 0.226693)
(-1.11078e-05 -0.000291346 0.226912)
(-4.68136e-06 -0.000282945 0.226979)
(6.86064e-06 -0.00027947 0.226989)
(6.63254e-06 -0.000298834 0.226837)
(-3.4329e-05 -0.000330423 0.226542)
(-0.000118355 -0.000363804 0.22638)
(-0.000257092 -0.000348687 0.22671)
(-0.000328018 -0.000370048 0.226929)
(-0.000476474 -0.000161635 0.228636)
(3.66874e-05 6.56766e-05 0.228252)
(0.00054654 -0.000155052 0.226275)
(0.000395574 -0.000356904 0.224541)
(0.000317753 -0.000341537 0.224232)
(0.000165993 -0.000361719 0.223702)
(6.17454e-05 -0.000331872 0.22387)
(4.02841e-06 -0.000299709 0.224181)
(-1.17085e-05 -0.000277217 0.224399)
(-5.17625e-06 -0.000269221 0.224466)
(6.71883e-06 -0.000265742 0.224477)
(7.10857e-06 -0.000284324 0.224327)
(-3.35041e-05 -0.000314708 0.224029)
(-0.000117959 -0.000346718 0.223865)
(-0.000256944 -0.000331942 0.224205)
(-0.00032385 -0.00035315 0.224422)
(-0.000475556 -0.000154521 0.22615)
(3.65592e-05 6.34629e-05 0.22569)
(0.000545247 -0.000147287 0.223681)
(0.000391128 -0.000339457 0.221926)
(0.000317148 -0.000324028 0.221619)
(0.000165234 -0.000343584 0.221079)
(6.054e-05 -0.000315032 0.221248)
(3.0071e-06 -0.000284162 0.221562)
(-1.23142e-05 -0.000262677 0.221778)
(-5.65107e-06 -0.000255075 0.221845)
(6.62052e-06 -0.000251604 0.221857)
(7.66499e-06 -0.000269414 0.22171)
(-3.25365e-05 -0.000298612 0.221409)
(-0.000117406 -0.00032928 0.221245)
(-0.000256668 -0.000314892 0.221593)
(-0.000319697 -0.000335893 0.221808)
(-0.000474677 -0.000146773 0.223556)
(3.63948e-05 6.20174e-05 0.223012)
(0.000543885 -0.00013895 0.220973)
(0.000386614 -0.000321713 0.219201)
(0.000316348 -0.000306278 0.218897)
(0.000164282 -0.00032517 0.218345)
(5.91869e-05 -0.000297879 0.218516)
(1.92817e-06 -0.000268281 0.218832)
(-1.2925e-05 -0.000247788 0.219047)
(-6.10795e-06 -0.000240567 0.219113)
(6.56283e-06 -0.000237117 0.219127)
(8.29763e-06 -0.000254164 0.218982)
(-3.143e-05 -0.000282195 0.218679)
(-0.000116692 -0.000311549 0.218514)
(-0.00025625 -0.000297592 0.218872)
(-0.000315546 -0.000318335 0.219083)
(-0.000473805 -0.000138453 0.220848)
(3.61958e-05 6.12675e-05 0.220216)
(0.000542423 -0.000130113 0.21815)
(0.000382021 -0.000303737 0.216361)
(0.000315338 -0.00028835 0.216061)
(0.000163133 -0.000306542 0.215498)
(5.76875e-05 -0.000280482 0.21567)
(7.92295e-07 -0.000252134 0.215989)
(-1.35411e-05 -0.000232616 0.216202)
(-6.54893e-06 -0.000225767 0.216268)
(6.54282e-06 -0.000222348 0.216283)
(9.0019e-06 -0.000238642 0.216141)
(-3.01889e-05 -0.000265525 0.215836)
(-0.000115817 -0.000293591 0.215669)
(-0.000255673 -0.000280103 0.216037)
(-0.000311382 -0.000300539 0.216244)
(-0.000472904 -0.000129632 0.218025)
(3.59642e-05 6.11286e-05 0.217299)
(0.00054083 -0.000120858 0.215207)
(0.00037734 -0.000285602 0.213404)
(0.000314106 -0.000270315 0.213109)
(0.000161786 -0.000287778 0.212535)
(5.6044e-05 -0.00026292 0.212709)
(-3.99423e-07 -0.000235801 0.213029)
(-1.41635e-05 -0.000217242 0.21324)
(-6.9759e-06 -0.000210752 0.213305)
(6.55745e-06 -0.000207376 0.213322)
(9.77276e-06 -0.000222927 0.213183)
(-2.88186e-05 -0.000248679 0.212876)
(-0.000114779 -0.000275484 0.212709)
(-0.000254924 -0.000262496 0.213085)
(-0.000307194 -0.000282579 0.213287)
(-0.000471938 -0.000120393 0.215083)
(3.57019e-05 6.15053e-05 0.214258)
(0.000539072 -0.00011128 0.212144)
(0.00037256 -0.000267395 0.210327)
(0.000312635 -0.000252257 0.210039)
(0.000160239 -0.000268967 0.209453)
(5.42594e-05 -0.000245283 0.209628)
(-1.64532e-06 -0.000219372 0.209951)
(-1.47937e-05 -0.000201755 0.210159)
(-7.39059e-06 -0.000195613 0.210223)
(6.60358e-06 -0.000192291 0.210242)
(1.06047e-05 -0.000207109 0.210107)
(-2.73249e-05 -0.000231747 0.209798)
(-0.000113578 -0.000257315 0.20963)
(-0.000253985 -0.000244856 0.210016)
(-0.000302969 -0.000264542 0.210212)
(-0.000470869 -0.000110831 0.21202)
(3.54112e-05 6.22919e-05 0.211092)
(0.000537117 -0.000101485 0.208957)
(0.000367672 -0.000249213 0.207129)
(0.000310911 -0.000234272 0.206849)
(0.00015849 -0.00025021 0.206251)
(5.23377e-05 -0.000227673 0.206428)
(-2.94317e-06 -0.00020295 0.206751)
(-1.54327e-05 -0.000186257 0.206957)
(-7.79467e-06 -0.000180452 0.207021)
(6.67798e-06 -0.000177193 0.207041)
(1.14917e-05 -0.000191289 0.206909)
(-2.57146e-05 -0.000214829 0.206599)
(-0.000112214 -0.000239186 0.206431)
(-0.00025284 -0.000227277 0.206826)
(-0.000298694 -0.000246525 0.207015)
(-0.000469659 -0.000101051 0.208834)
(3.5095e-05 6.33754e-05 0.207798)
(0.00053493 -9.1586e-05 0.205644)
(0.000362667 -0.000231164 0.203809)
(0.000308919 -0.000216466 0.203536)
(0.00015654 -0.000231617 0.202928)
(5.02834e-05 -0.000210201 0.203106)
(-4.29015e-06 -0.000186648 0.20343)
(-1.60818e-05 -0.00017086 0.203632)
(-8.18972e-06 -0.00016538 0.203695)
(6.77728e-06 -0.000162194 0.203717)
(1.24273e-05 -0.00017558 0.203589)
(-2.39952e-05 -0.000198038 0.203279)
(-0.000110689 -0.000221206 0.20311)
(-0.000251471 -0.000209866 0.203515)
(-0.000294355 -0.000228635 0.203695)
(-0.000468267 -9.11673e-05 0.205522)
(3.47564e-05 6.46393e-05 0.204373)
(0.000532473 -8.17015e-05 0.202204)
(0.000357531 -0.000213361 0.200363)
(0.000306642 -0.000198947 0.2001)
(0.000154388 -0.000213303 0.199481)
(4.81017e-05 -0.000192983 0.199659)
(-5.68291e-06 -0.000170582 0.199984)
(-1.67417e-05 -0.00015568 0.200182)
(-8.57731e-06 -0.000150516 0.200245)
(6.89791e-06 -0.00014741 0.200269)
(1.34044e-05 -0.000160097 0.200145)
(-2.21748e-05 -0.000181487 0.199834)
(-0.000109005 -0.000203489 0.199666)
(-0.000249863 -0.000192731 0.200079)
(-0.000289938 -0.000210986 0.20025)
(-0.000466651 -8.12972e-05 0.202082)
(3.43983e-05 6.59675e-05 0.200814)
(0.000529707 -7.19493e-05 0.198634)
(0.000352251 -0.000195917 0.196789)
(0.000304062 -0.000181829 0.196536)
(0.000152034 -0.000195384 0.195907)
(4.57979e-05 -0.000176137 0.196086)
(-7.11748e-06 -0.00015487 0.19641)
(-1.74131e-05 -0.000140834 0.196605)
(-8.959e-06 -0.000135974 0.196667)
(7.0361e-06 -0.000132958 0.196693)
(1.44154e-05 -0.000144956 0.196573)
(-2.02619e-05 -0.000165294 0.196262)
(-0.000107162 -0.000186152 0.196095)
(-0.000247996 -0.000175985 0.196516)
(-0.000285427 -0.00019369 0.196677)
(-0.000464767 -7.15587e-05 0.198512)
(3.40239e-05 6.72491e-05 0.197118)
(0.000526588 -6.24424e-05 0.194929)
(0.00034681 -0.000178941 0.193085)
(0.000301162 -0.000165218 0.192842)
(0.000149477 -0.000177972 0.192204)
(4.33779e-05 -0.000159774 0.192382)
(-8.58927e-06 -0.000139623 0.192706)
(-1.80961e-05 -0.000126432 0.192897)
(-9.33634e-06 -0.000121868 0.192958)
(7.18787e-06 -0.000118947 0.192986)
(1.54521e-05 -0.000130271 0.19287)
(-1.82661e-05 -0.00014957 0.192561)
(-0.000105164 -0.000169305 0.192395)
(-0.000245852 -0.000159733 0.192824)
(-0.000280804 -0.000176857 0.192974)
(-0.000462566 -6.20649e-05 0.194809)
(3.36356e-05 6.83817e-05 0.19328)
(0.000523068 -5.3286e-05 0.191087)
(0.00034119 -0.000162535 0.189245)
(0.000297922 -0.000149213 0.189014)
(0.000146716 -0.000161169 0.188367)
(4.08479e-05 -0.000143998 0.188545)
(-1.00929e-05 -0.000124945 0.188867)
(-1.87905e-05 -0.00011258 0.189055)
(-9.71067e-06 -0.000108301 0.189114)
(7.34918e-06 -0.000105483 0.189144)
(1.65056e-05 -0.000116145 0.189033)
(-1.61969e-05 -0.000134419 0.188724)
(-0.000103011 -0.000153051 0.188561)
(-0.000243411 -0.000144077 0.188996)
(-0.000276049 -0.000160588 0.189136)
(-0.000459998 -5.29208e-05 0.190968)
(3.3236e-05 6.92743e-05 0.189295)
(0.000519098 -4.4574e-05 0.187102)
(0.000335372 -0.00014679 0.185266)
(0.00029432 -0.000133904 0.185046)
(0.000143751 -0.00014507 0.184391)
(3.82144e-05 -0.000128902 0.184568)
(-1.1622e-05 -0.000110931 0.184888)
(-1.94952e-05 -9.93698e-05 0.185072)
(-1.00829e-05 -9.53671e-05 0.18513)
(7.51616e-06 -9.2657e-05 0.185162)
(1.75669e-05 -0.00010267 0.185055)
(-1.40644e-05 -0.000119933 0.184749)
(-0.000100707 -0.000137484 0.184588)
(-0.000240652 -0.000129103 0.185029)
(-0.000271141 -0.000144975 0.185158)
(-0.000457008 -4.42203e-05 0.186984)
(3.2827e-05 6.98495e-05 0.185157)
(0.000514624 -3.6387e-05 0.182967)
(0.000329331 -0.000131785 0.18114)
(0.000290333 -0.000119365 0.180932)
(0.00014058 -0.000129751 0.180271)
(3.54845e-05 -0.000114565 0.180446)
(-1.31697e-05 -9.76574e-05 0.180764)
(-2.02091e-05 -8.68793e-05 0.180943)
(-1.04533e-05 -8.3144e-05 0.181)