-0.0075 	373
-0.0075 	373
-0.00745622 	370.68
-0.00745622 	370.68
-0.00741165 	368.342
-0.00741165 	368.342
-0.00736628 	365.982
-0.00736628 	365.982
-0.0073201 	363.614
-0.0073201 	363.614
-0.00727309 	361.257
-0.00727309 	361.257
-0.00722524 	358.936
-0.00722524 	358.936
-0.00717653 	356.684
-0.00717653 	356.684
-0.00712695 	354.537
-0.00712695 	354.537
-0.00707647 	352.532
-0.00707647 	352.532
-0.0070251 	350.703
-0.0070251 	350.703
-0.0069728 	349.077
-0.0069728 	349.077
-0.00691956 	347.67
-0.00691956 	347.67
-0.00686537 	346.486
-0.00686537 	346.486
-0.00681021 	345.519
-0.00681021 	345.519
-0.00675406 	344.759
-0.00675406 	344.759
-0.0066969 	344.182
-0.0066969 	344.182
-0.00663871 	343.762
-0.00663871 	343.762
-0.00657949 	343.469
-0.00657949 	343.469
-0.0065192 	343.274
-0.0065192 	343.274
-0.00645783 	343.152
-0.00645783 	343.152
-0.00639535 	343.08
-0.00639535 	343.08
-0.00633176 	343.041
-0.00633176 	343.041
-0.00626703 	343.022
-0.00626703 	343.022
-0.00620114 	343.014
-0.00620114 	343.014
-0.00613406 	343.011
-0.00613406 	343.011
-0.00606579 	343.011
-0.00606579 	343.011
-0.00599629 	343.01
-0.00599629 	343.01
-0.00592554 	343.01
-0.00592554 	343.01
-0.00585352 	343.008
-0.00585352 	343.008
-0.00578022 	343.007
-0.00578022 	343.007
-0.00570559 	343.005
-0.00570559 	343.005
-0.00562963 	343.004
-0.00562963 	343.004
-0.00555231 	343.002
-0.00555231 	343.002
-0.0054736 	343.001
-0.0054736 	343.001
-0.00539348 	343
-0.00539348 	343
-0.00531193 	343
-0.00531193 	343
-0.00522891 	342.999
-0.00522891 	342.999
-0.0051444 	342.999
-0.0051444 	342.999
-0.00505838 	342.999
-0.00505838 	342.999
-0.00497081 	342.999
-0.00497081 	342.999
-0.00488168 	342.999
-0.00488168 	342.999
-0.00479094 	342.999
-0.00479094 	342.999
-0.00469858 	342.999
-0.00469858 	342.999
-0.00460456 	342.999
-0.00460456 	342.999
-0.00450886 	342.999
-0.00450886 	342.999
-0.00441144 	342.999
-0.00441144 	342.999
-0.00431227 	342.999
-0.00431227 	342.999
-0.00421133 	342.999
-0.00421133 	342.999
-0.00410857 	343
-0.00410857 	343
-0.00400397 	343
-0.00400397 	343
-0.0038975 	343
-0.0038975 	343
-0.00378912 	343
-0.00378912 	343
-0.00367879 	343
-0.00367879 	343
-0.00356649 	343
-0.00356649 	343
-0.00345217 	343
-0.00345217 	343
-0.0033358 	343
-0.0033358 	343
-0.00321735 	343
-0.00321735 	343
-0.00309677 	343
-0.00309677 	343
-0.00297403 	343
-0.00297403 	343
-0.00284909 	343
-0.00284909 	343
-0.0027219 	343
-0.0027219 	343
-0.00259244 	343
-0.00259244 	343
-0.00246065 	343
-0.00246065 	343
-0.00232651 	343
-0.00232651 	343
-0.00218995 	343
-0.00218995 	343
-0.00205095 	343
-0.00205095 	343
-0.00190946 	343
-0.00190946 	343
-0.00176543 	343
-0.00176543 	343
-0.00161881 	343
-0.00161881 	343
-0.00146957 	343
-0.00146957 	343
-0.00131765 	343
-0.00131765 	343
-0.001163 	343
-0.001163 	343
-0.00100559 	343
-0.00100559 	343
-0.000845345 	343
-0.000845345 	343
-0.000682232 	343
-0.000682232 	343
-0.000516194 	343
-0.000516194 	343
-0.000347178 	343
-0.000347178 	343
-0.000175132 	343
-0.000175132 	343
0 	343
0 	343
0.000175132 	343
0.000175132 	343
0.000347178 	343
0.000347178 	343
0.000516194 	343
0.000516194 	343
0.000682232 	343
0.000682232 	343
0.000845345 	343
0.000845345 	343
0.00100559 	343
0.00100559 	343
0.001163 	343
0.001163 	343
0.00131765 	343
0.00131765 	343
0.00146957 	343
0.00146957 	343
0.00161881 	343
0.00161881 	343
0.00176543 	343
0.00176543 	343
0.00190946 	343
0.00190946 	343
0.00205095 	343
0.00205095 	343
0.00218995 	343
0.00218995 	343
0.00232651 	343
0.00232651 	343
0.00246065 	343
0.00246065 	343
0.00259244 	343
0.00259244 	343
0.0027219 	343
0.0027219 	343
0.00284909 	343
0.00284909 	343
0.00297403 	343.001
0.00297403 	343.001
0.00309677 	343.001
0.00309677 	343.001
0.00321735 	343.001
0.00321735 	343.001
0.0033358 	343.001
0.0033358 	343.001
0.00345217 	343.001
0.00345217 	343.001
0.00356649 	343.001
0.00356649 	343.001
0.00367879 	343.001
0.00367879 	343.001
0.00378912 	343.001
0.00378912 	343.001
0.0038975 	343.001
0.0038975 	343.001
0.00400397 	343.001
0.00400397 	343.001
0.00410857 	343.001
0.00410857 	343.001
0.00421133 	343.001
0.00421133 	343.001
0.00431227 	343.001
0.00431227 	343.001
0.00441144 	343.001
0.00441144 	343.001
0.00450886 	343.001
0.00450886 	343.001
0.00460456 	343.001
0.00460456 	343.001
0.00469858 	343.001
0.00469858 	343.001
0.00479094 	343.001
0.00479094 	343.001
0.00488168 	343.001
0.00488168 	343.001
0.00497081 	343.001
0.00497081 	343.001
0.00505838 	343
0.00505838 	343
0.0051444 	342.999
0.0051444 	342.999
0.00522891 	342.998
0.00522891 	342.998
0.00531193 	342.997
0.00531193 	342.997
0.00539348 	342.995
0.00539348 	342.995
0.0054736 	342.992
0.0054736 	342.992
0.00555231 	342.99
0.00555231 	342.99
0.00562963 	342.987
0.00562963 	342.987
0.00570559 	342.986
0.00570559 	342.986
0.00578022 	342.985
0.00578022 	342.985
0.00585352 	342.985
0.00585352 	342.985
0.00592554 	342.985
0.00592554 	342.985
0.00599629 	342.983
0.00599629 	342.983
0.00606579 	342.976
0.00606579 	342.976
0.00613406 	342.961
0.00613406 	342.961
0.00620114 	342.933
0.00620114 	342.933
0.00626703 	342.882
0.00626703 	342.882
0.00633176 	342.799
0.00633176 	342.799
0.00639535 	342.67
0.00639535 	342.67
0.00645783 	342.476
0.00645783 	342.476
0.0065192 	342.198
0.0065192 	342.198
0.00657949 	341.817
0.00657949 	341.817
0.00663871 	341.312
0.00663871 	341.312
0.0066969 	340.663
0.0066969 	340.663
0.00675406 	339.854
0.00675406 	339.854
0.00681021 	338.867
0.00681021 	338.867
0.00686537 	337.691
0.00686537 	337.691
0.00691956 	336.326
0.00691956 	336.326
0.0069728 	334.78
0.0069728 	334.78
0.0070251 	333.075
0.0070251 	333.075
0.00707647 	331.236
0.00707647 	331.236
0.00712695 	329.295
0.00712695 	329.295
0.00717653 	327.282
0.00717653 	327.282
0.00722524 	325.226
0.00722524 	325.226
0.00727309 	323.149
0.00727309 	323.149
0.0073201 	321.072
0.0073201 	321.072
0.00736628 	319.011
0.00736628 	319.011
0.00741165 	316.975
0.00741165 	316.975
0.00745622 	314.973
0.00745622 	314.973
0.0075 	313
0.0075 	313
