/*--------------------------------*- C++ -*----------------------------------*\
| =========                 |                                                 |
| \\      /  F ield         | OpenFOAM: The Open Source CFD Toolbox           |
|  \\    /   O peration     | Version:  v1912                                 |
|   \\  /    A nd           | Website:  www.openfoam.com                      |
|    \\/     M anipulation  |                                                 |
\*---------------------------------------------------------------------------*/
FoamFile
{
    version     2.0;
    format      ascii;
    class       volScalarField;
    location    "100";
    object      pPrime2Mean;
}
// * * * * * * * * * * * * * * * * * * * * * * * * * * * * * * * * * * * * * //

dimensions      [2 -2 -4 0 0 0 0];


internalField   nonuniform List<scalar> 
40448
(
14820.2
15042.6
15905.6
17396.5
32978.3
33933.3
34412.9
34427.9
32849.1
32383.4
32357
32769.3
40412.1
41188.8
41829.4
42355.9
11037
11228.2
11961.2
13249.2
35362.1
36175.3
36552.9
36511.1
30178.8
29743.5
29722.8
30115.6
41119
41731.6
42222
42616.7
11036.3
11227.5
11960.4
13248.2
35358.1
36171.3
36548.9
36507.2
30177.9
29742.8
29722
30114.7
41114.5
41726.9
42217.2
42611.8
11035.8
11226.9
11959.6
13247.1
35352.8
36165.8
36543.5
36502
30177.2
29742.3
29721.5
30114
41108.4
41720.4
42210.5
42605
11035.2
11226.2
11958.7
13245.8
35345.6
36158.4
36536.1
36495
30176.5
29741.8
29721
30113.3
41100
41711.5
42201.3
42595.6
11034.6
11225.4
11957.5
13244.2
35336.1
36148.7
36526.5
36485.7
30175.6
29741.2
29720.5
30112.4
41088.9
41699.8
42189.2
42583.3
11033.9
11224.4
11956.2
13242.1
35324.1
36136.5
36514.4
36474.1
30174.5
29740.5
29719.8
30111.3
41074.9
41685
42173.8
42567.7
11032.9
11223.3
11954.5
13239.7
35309.4
36121.5
36499.5
36459.7
30173.2
29739.7
29718.9
30109.9
41057.6
41666.7
42154.9
42548.5
11031.9
11221.9
11952.5
13236.7
35291.6
36103.2
36481.4
36442.3
30171.5
29738.6
29717.8
30108.2
41036.7
41644.7
42132.1
42525.3
11030.7
11220.4
11950.2
13233.3
35270.2
36081.3
36459.6
36421.5
30169.4
29737.2
29716.4
30106.1
41011.6
41618.2
42104.7
42497.4
11029.4
11218.6
11947.5
13229.2
35244.8
36055.3
36433.7
36396.6
30166.8
29735.5
29714.7
30103.5
40981.8
41586.7
42072.1
42464.3
11028.1
11216.7
11944.5
13224.5
35214.6
36024.4
36403.1
36367.1
30163.6
29733.4
29712.6
30100.3
40946.7
41549.6
42033.7
42425.3
11026.7
11214.7
11941.2
13219.3
35179.3
35988.2
36367.2
36332.6
30159.7
29730.7
29709.9
30096.4
40905.7
41506.2
41988.8
42379.7
11025.4
11212.7
11937.7
13213.5
35138.4
35946.3
36325.5
36292.4
30155.1
29727.5
29706.7
30091.9
40858.4
41456.2
41937.1
42327.2
11024.4
11210.8
11934.1
13207.2
35091.5
35898.1
36277.7
36246.4
30149.6
29723.7
29702.9
30086.5
40804.3
41399.1
41878
42267.1
11023.8
11209.2
11930.6
13200.7
35038.2
35843.5
36223.4
36194.2
30143.4
29719.2
29698.5
30080.3
40743.2
41334.5
41811.2
42199.2
11023.9
11208.2
11927.3
13194
34978.5
35782.2
36162.4
36135.4
30136.2
29714.2
29693.5
30073.3
40674.6
41262.1
41736.3
42123
11024.8
11207.9
11924.5
13187.3
34911.9
35713.8
36094.4
36069.9
30128.1
29708.4
29687.8
30065.4
40598.3
41181.5
41652.9
42038.3
11026.9
11208.6
11922.4
13180.9
34838.3
35638.2
36019.1
35997.4
30119.2
29702
29681.5
30056.7
40513.9
41092.4
41560.7
41944.6
11030.3
11210.5
11921.3
13174.9
34757.5
35555.1
35936.3
35917.7
30109.2
29695
29674.5
30047.1
40421.3
40994.5
41459.5
41841.7
11035.5
11214
11921.3
13169.6
34669.3
35464.4
35846
35830.7
30098.4
29687.3
29666.9
30036.6
40320.1
40887.7
41348.9
41729.4
11042.6
11219.3
11922.8
13165.3
34573.8
35366.1
35748.1
35736.2
30086.6
29678.9
29658.7
30025.2
40210.2
40771.6
41228.9
41607.3
11052.1
11226.8
11926.2
13162.3
34470.9
35260.1
35642.4
35634.4
30074
29670
29649.9
30013
40091.5
40646.2
41099.2
41475.5
11064.2
11236.7
11931.7
13160.9
34360.6
35146.4
35529.1
35525.1
30060.6
29660.5
29640.6
30000
39963.9
40511.4
40959.7
41333.7
11079.3
11249.5
11939.6
13161.3
34243
35025.1
35408
35408.3
30046.3
29650.5
29630.7
29986.3
39827.3
40367.2
40810.5
41182
11097.7
11265.4
11950.3
13163.9
34118.1
34896.2
35279.5
35284.3
30031.4
29640
29620.4
29971.9
39681.7
40213.4
40651.4
41020.3
11119.8
11284.8
11964.1
13169.1
33986.3
34760.1
35143.5
35153.2
30015.7
29629.2
29609.8
29956.8
39527.2
40050.2
40482.5
40848.6
11145.9
11308.1
11981.5
13177.2
33847.6
34616.7
35000.4
35015.1
29999.6
29618.1
29599
29941.3
39363.9
39877.7
40304
40667.1
11176.5
11335.6
12002.7
13188.5
33702.4
34466.5
34850.2
34870.2
29983.1
29607
29588
29925.4
39191.9
39696
40116
40475.9
11211.8
11367.8
12028.1
13203.6
33550.8
34309.5
34693.4
34718.9
29966.4
29595.9
29577.1
29909.2
39011.2
39505.1
39918.4
40275.1
11252.4
11405
12058.2
13222.6
33393
34146.1
34529.9
34561.1
29949.5
29584.8
29566.2
29892.9
38822
39305.1
39711.4
40064.6
11298.6
11447.6
12093.3
13246
33229.3
33976.3
34360.1
34397.3
29932.2
29573.7
29555.4
29876.3
38624.2
39096.1
39495.1
39844.6
11350.6
11495.9
12133.7
13274
33059.8
33800.4
34184
34227.3
29914.7
29562.6
29544.5
29859.4
38418.1
38878.2
39269.6
39615.3
11408.7
11550.1
12179.6
13307
32884.7
33618.4
34001.8
34051.4
29896.9
29551.5
29533.5
29842.3
38203.7
38651.6
39035
39376.8
11473.1
11610.4
12231.2
13345
32704.1
33430.6
33813.6
33869.8
29879
29540.5
29522.8
29825
37981.5
38416.7
38791.8
39129.5
11544
11677
12288.7
13388.3
32518.5
33237.4
33620
33682.9
29861.4
29530.1
29512.6
29808.1
37751.8
38173.8
38540.4
38873.7
11621.8
11750.3
12352.5
13437.3
32328.6
33039.5
33421.7
33491.5
29844.6
29520.7
29503.4
29791.9
37515.1
37923.5
38281.1
38610
11706.9
11830.8
12423.1
13492.5
32135.4
32838.1
33219.6
33296.5
29829
29512.7
29495.6
29776.9
37272.2
37666.4
38014.9
38339.2
11799.8
11919
12501.1
13554.6
31939.9
32633.9
33014.7
33098.9
29814.8
29506.3
29489.4
29763.2
37023.7
37403.3
37742.3
38061.9
11901.1
12015.3
12586.9
13623.9
31742.6
32427.5
32807.6
32899.1
29802.1
29501.7
29484.9
29751
36770.3
37135
37464.2
37779
12010.8
12120
12680.8
13700.7
31543.4
32218.9
32598
32697
29790.9
29498.7
29482.1
29740.4
36512.5
36861.9
37181.2
37491
12129.2
12233.1
12782.6
13784.8
31341.9
32007.6
32385.7
32492.4
29781.1
29497.4
29481
29731.2
36250.9
36584.6
36893.6
37198.4
12255.9
12354.5
12892.3
13876.3
31137.9
31793.4
32170.3
32284.8
29772.8
29497.8
29481.7
29723.7
35985.6
36303.3
36601.9
36901.5
12391
12484
13009.8
13975
30931.5
31576.5
31952.1
32074.5
29766
29500
29484.2
29717.9
35717.4
36018.7
36306.6
36600.9
12534.5
12621.7
13135.2
14080.8
30723.1
31357.1
31731.3
31861.9
29760.9
29504.2
29488.7
29714
35446.2
35730.8
36007.9
36296.9
12686.3
12767.7
13268.4
14194
30513.4
31136
31508.7
31647.5
29757.8
29510.5
29495.5
29712.1
35172.1
35439.7
35705.7
35989.2
12846.9
12922.3
13409.9
14315.1
30303.1
30914.1
31285.1
31432.2
29757.2
29519.5
29504.9
29712.6
34894.6
35144.7
35399.4
35677.3
13016.9
13086.2
13560.5
14444.7
30093.4
30692.4
31061.7
31217.2
29759.6
29531.6
29517.3
29716
34613.5
34845.9
35089.1
35361.3
13197
13260.2
13720.9
14583.7
29885.5
30472.3
30839.7
31003.6
29765.3
29547.1
29533.1
29722.5
34329.7
34544.1
34775.5
35041.9
13387.6
13444.4
13891.4
14732.5
29680
30254.3
30619.7
30791.9
29774.7
29566.3
29552.5
29732.5
34044.7
34240.7
34460.3
34720.7
13588.1
13638.5
14071.4
14890.4
29477.3
30038.8
30402
30582.7
29787.7
29589.2
29575.6
29746.1
33759.9
33937.5
34145
34399.5
13797.5
13841.4
14260
15056.6
29277.3
29825.8
30186.8
30375.9
29804.3
29615.9
29602.4
29763.4
33476.7
33635.6
33831
34079.4
14015
14052.2
14456.5
15230.5
29080.3
29615.7
29974.4
30172
29824.6
29646.2
29632.9
29784.2
33196
33336
33519.2
33761.7
14240
14270.5
14660.2
15411.4
28887.1
29409.1
29765.5
29971.5
29848.5
29680.3
29667.2
29808.7
32918.5
33039.7
33210.6
33447.1
14472.2
14496
14871.1
15599.3
28697.8
29206.5
29560.4
29774.9
29876.3
29718.2
29705.3
29837.1
32644.8
32747
32905.7
33136.2
14711.2
14728.2
15088.7
15793.8
28512.7
29007.8
29359.2
29582.1
29908
29760.1
29747.4
29869.5
32374.9
32458.1
32604.5
32829.1
14956.6
14966.9
15312.5
15994.5
28331.7
28813.3
29162.1
29393.4
29943.7
29806
29793.5
29905.8
32108.6
32172.9
32307
32525.6
15208.1
15211.6
15542.4
16201.2
28155.6
28623.5
28969.7
29209.3
29983.4
29855.9
29843.7
29946.3
31846
31891.4
32013.2
32225.7
15465.3
15462
15778.1
16413.6
27985.1
28439.2
28782.8
29030.7
30027.7
29910.4
29898.4
29991.3
31587.4
31614
31723.6
31929.9
15727.6
15717.6
16018.9
16631.2
27821
28261.4
28602.3
28858.4
30077.2
29970
29958.2
30041.5
31333.4
31341.1
31438.5
31638.7
15994.2
15977.4
16264.1
16853.4
27663.8
28090.7
28429
28693.2
30132.4
30035.1
30023.5
30097
31084.1
31073.1
31158.2
31352.2
16264.3
16240.9
16513.1
17079.6
27514
27927.5
28263.2
28535.5
30193.3
30105.8
30094.2
30157.9
30839.9
30810.1
30882.9
31070.9
16537.7
16507.7
16765.6
17309.6
27371.9
27772.2
28105.3
28385.6
30259.9
30182
30170.3
30224.2
30601.2
30552.7
30613.3
30795.1
16813.9
16777.4
17021.2
17543.1
27237.4
27624.8
27955.5
28243.6
30332
30263.5
30251.6
30295.7
30368.7
30301.6
30350.1
30525.9
17092.1
17049.2
17279.1
17779.2
27110.1
27484.8
27813
28109
30409.1
30349.9
30337.7
30372
30143.2
30057.6
30094
30263.8
17371.3
17322
17538.3
18016.9
26989
27351.2
27677
27980.6
30490.6
30440.5
30428
30452.6
29925
29821.1
29845.7
30009.5
17650
17594.5
17797.2
18254.7
26872.9
27222.8
27546.3
27857.5
30575.6
30534.5
30521.7
30536.8
29714.4
29592.6
29605.4
29763.3
17927.2
17865.4
18054.9
18491.6
26760.9
27098.8
27420.2
27738.8
30663.3
30631.1
30618.1
30623.9
29511.5
29371.9
29373.2
29525.3
18202
18134.2
18310.6
18726.9
26653.2
26979.3
27298.5
27624.6
30753.3
30729.9
30716.8
30713.4
29315.9
29159
29148.9
29295.3
18474
18400.1
18563.7
18960
26550.1
26864.7
27181.8
27515.2
30845.5
30830.9
30817.6
30805.2
29126.9
28952.9
28931.7
29072.4
18742.9
18663.1
18814.2
19190.8
26452.1
26755.4
27070.5
27411.2
30940.2
30934.1
30920.7
30899.4
28944
28753.2
28720.9
28856.1
19008.2
18922.8
19061.6
19419.1
26359.1
26651.4
26964.7
27312.5
31037.3
31039.5
31025.9
30995.8
28767
28559.7
28516.5
28646.2
19269.9
19178.8
19305.6
19644.5
26271
26552.6
26864.2
27219
31136.6
31147
31133.1
31094.4
28596.3
28372.6
28318.8
28443
19527.4
19430.8
19546
19866.7
26187.8
26459.2
26769
27130.7
31237.7
31256
31241.9
31194.8
28432.1
28192.5
28128.2
28247.1
19780.1
19678.3
19782.1
20085.1
26109.8
26371.1
26679.4
27047.9
31340.1
31366.2
31351.8
31296.4
28274.8
28019.6
27945
28058.7
20027
19919.9
20012.9
20298.8
26036.8
26288.6
26595.4
26970.6
31443.3
31476.9
31462.2
31398.6
28124.5
27853.9
27769.4
27878
20267
20155
20237.3
20506.8
25968.9
26211.5
26517
26898.7
31546.6
31587.5
31572.5
31501
27981
27695.6
27601.3
27704.9
20499.8
20382.9
20455.2
20708.8
25905.8
26139.5
26443.8
26832
31649.9
31698
31682.7
31603.4
27844.4
27544.5
27440.7
27539.5
20726.6
20605.1
20667.5
20905.8
25846.1
26071.3
26374.6
26769.1
31754.7
31809.8
31794.2
31707.2
27713.2
27399.1
27286
27380.2
9735.3
8157.9
9274.46
14011.9
34107.5
37502
38049.4
36295.4
30108.2
27634
27603.9
29987.8
39947.9
41739.8
42430
42750.9
6969.78
5773.75
6623.44
10394.6
36559.5
39336.4
39739.8
38230.1
27711
25619
25596.8
27619.1
40833.3
42208.1
42707.1
42929
6969.6
5773.68
6623.25
10393.9
36555.1
39331.5
39735
38225.7
27710.7
25619.3
25597.1
27618.8
40828.5
42202.8
42701.7
42923.7
6969.68
5773.9
6623.27
10393.2
36548.9
39324.6
39728.1
38219.8
27710.9
25620.2
25598.1
27619
40822
42195.3
42693.9
42916.1
6969.98
5774.38
6623.48
10392.4
36540.6
39315.3
39718.8
38211.7
27711.3
25621.9
25599.7
27619.4
40812.9
42185
42683.3
42905.7
6970.46
5775.09
6623.82
10391.4
36529.6
39303
39706.6
38201.1
27712
25624.3
25602.1
27620.1
40801
42171.4
42669.2
42892
6971.12
5776.06
6624.33
10390.2
36515.8
39287.4
39691.2
38187.7
27712.9
25627.2
25605
27621
40786
42154.2
42651.5
42874.6
6971.97
5777.27
6624.98
10388.7
36498.8
39268.3
39672.2
38171.2
27714
25630.8
25608.6
27622
40767.4
42133
42629.6
42853.1
6973.06
5778.81
6625.83
10386.9
36478.2
39245.2
39649.2
38151.3
27715.3
25635.2
25612.9
27623.3
40744.9
42107.3
42603
42827.2
6974.45
5780.75
6626.94
10384.9
36453.5
39217.4
39621.6
38127.3
27716.7
25640.3
25618.1
27624.7
40718
42076.5
42571.3
42796.1
6976.23
5783.18
6628.37
10382.6
36424.1
39184.2
39588.6
38098.7
27718.3
25646.3
25624.1
27626.3
40686
42039.9
42533.5
42759.2
6978.52
5786.25
6630.26
10380.1
36389.2
39145
39549.6
38064.8
27720.1
25653.3
25631
27628.1
40648.2
41996.8
42488.9
42715.6
6981.47
5790.13
6632.74
10377.3
36348.4
39098.9
39503.8
38025
27722.1
25661.3
25639
27630.1
40604.2
41946.5
42436.9
42664.8
6985.29
5795.03
6636.01
10374.4
36301
39045.5
39450.7
37978.8
27724.2
25670.4
25648.2
27632.2
40553.3
41888.4
42377
42606.1
6990.16
5801.17
6640.26
10371.5
36246.7
38984.2
39389.7
37925.9
27726.4
25680.6
25658.4
27634.5
40495.2
41822.1
42308.5
42539.2
6996.36
5808.82
6645.76
10368.9
36185
38914.6
39320.5
37865.6
27728.7
25692.1
25669.9
27637.1
40429.6
41747.1
42231.1
42463.5
7004.15
5818.28
6652.76
10366.6
36115.8
38836.4
39242.6
37797.9
27731.3
25704.9
25682.8
27639.8
40355.9
41663.1
42144.3
42378.6
7013.8
5829.82
6661.54
10365
36038.7
38749.1
39155.7
37722.4
27734
25719
25697
27642.8
40274
41569.6
42047.7
42284.1
7025.64
5843.77
6672.42
10364.2
35953.4
38652.4
39059.4
37638.7
27737
25734.6
25712.7
27646.2
40183.5
41466.3
41941
42179.7
7039.99
5860.49
6685.71
10364.5
35859.7
38546.2
38953.5
37546.6
27740.1
25751.7
25729.8
27649.8
40084.1
41352.9
41823.9
42065.2
7057.19
5880.32
6701.76
10366.2
35757.5
38430.1
38837.8
37446
27743.6
25770.3
25748.6
27653.7
39975.6
41229.1
41696.1
41940.1
7077.59
5903.63
6720.92
10369.6
35646.7
38304
38712.2
37336.7
27747.4
25790.6
25769.1
27658
39857.7
41094.7
41557.2
41804.2
7101.58
5930.81
6743.57
10375.1
35527.2
38168
38576.5
37218.8
27751.5
25812.6
25791.2
27662.8
39730.5
40949.5
41407.3
41657.5
7129.51
5962.22
6770.06
10382.8
35399
38021.8
38430.7
37092.1
27756.1
25836.4
25815.2
27668.1
39593.7
40793.5
41246.2
41499.7
7161.76
5998.26
6800.78
10393.3
35262.3
37865.6
38274.7
36956.6
27761.2
25862
25841
27673.8
39447.4
40626.5
41073.7
41330.9
7198.69
6039.31
6836.09
10406.8
35117
37699.3
38108.8
36812.5
27766.7
25889.6
25868.7
27680.2
39291.4
40448.5
40889.9
41151
7240.7
6085.75
6876.39
10423.6
34963.3
37523.3
37933
36659.9
27773
25919.1
25898.4
27687.3
39125.8
40259.6
40694.8
40960
7288.17
6137.97
6922.05
10444.2
34801.6
37337.7
37747.6
36499
27780
25950.8
25930.3
27695.1
38950.8
40059.9
40488.5
40758
7341.5
6196.39
6973.49
10469
34632
37142.6
37552.7
36329.9
27787.9
25984.7
25964.4
27703.9
38766.5
39849.4
40271.1
40545.2
7401.11
6261.43
7031.12
10498.3
34454.7
36938.4
37348.5
36153
27796.8
26020.9
26000.8
27713.7
38572.9
39628.3
40042.7
40321.6
7467.42
6333.51
7095.35
10532.5
34269.9
36725.1
37135.3
35968.3
27806.7
26059.5
26039.7
27724.5
38370
39396.6
39803.3
40087.4
7540.79
6413
7166.56
10571.9
34077.9
36503
36913.1
35776
27817.6
26100.4
26080.8
27736.3
38158.1
39154.5
39553.2
39842.5
7621.53
6500.22
7245.06
10617
33878.8
36272.1
36682.1
35576.2
27829.4
26143.5
26124.1
27749
37937.2
38902.1
39292.3
39587.1
7709.9
6595.44
7331.1
10667.8
33672.7
36032.7
36442.4
35369.1
27842.2
26188.8
26169.6
27762.7
37707.4
38639.5
39021
39321.6
7806.08
6698.81
7424.86
10724.7
33459.8
35785
36194.3
35154.8
27856
26236.4
26217.5
27777.5
37469.2
38367.1
38739.6
39046.1
7910.26
6810.53
7526.53
10787.7
33240.8
35529.4
35938.3
34933.8
27871.3
26286.8
26268
27793.7
37222.7
38085.3
38448.3
38761
8022.74
6930.9
7636.43
10857.4
33016.2
35267
35675.3
34707
27888.5
26340.2
26321.7
27811.9
36968.7
37794.6
38147.8
38467
8143.97
7060.37
7755.03
10934.1
32787.2
34998.6
35406.3
34475.4
27908
26397.1
26378.8
27832.2
36707.9
37495.8
37838.9
38164.8
8274.48
7199.46
7882.86
11018.6
32554.7
34725.2
35132.1
34239.7
27930
26457.6
26439.5
27855.1
36440.9
37189.7
37522.4
37855.2
8414.7
7348.61
8020.35
11111.1
32319.1
34447.3
34853.4
34000.6
27954.6
26521.7
26503.8
27880.4
36168.5
36877.1
37199.1
37539
8564.87
7508.05
8167.75
11212.1
32080.4
34164.8
34569.9
33757.8
27981.7
26589.4
26571.6
27908.3
35891.2
36558.6
36869.8
37216.9
8725.02
7677.81
8325.06
11321.3
31838.3
33877.5
34281.5
33511.1
28011.2
26660.4
26642.9
27938.7
35609.7
36235
36534.9
36889.4
8895.09
7857.85
8492.22
11438.7
31592.5
33584.8
33987.5
33260.1
28043
26734.9
26717.7
27971.7
35324.2
35906.4
36194.9
36556.9
9074.99
8048.07
8669.13
11564.2
31342.9
33286.7
33688.1
33004.7
28077.3
26813
26796.1
28007.4
35035
35573.3
35850.1
36219.9
9264.7
8248.45
8855.78
11697.8
31089.9
32983.8
33383.7
32745.5
28114.2
26894.7
26878.2
28045.9
34742.4
35235.7
35500.5
35878.4
9464.19
8458.96
9052.19
11839.6
30834.5
32677
33075.2
32483.4
28153.9
26980.3
26964.2
28087.5
34446.2
34893.5
35146.2
35532.3
9673.79
8679.93
9258.72
11990.2
30577.6
32367.5
32764
32219.3
28197
27070
27054.4
28132.2
34146.2
34546.6
34786.8
35181.4
9894.07
8911.93
9475.96
12150.1
30320.8
32057.1
32451.7
31954.8
28243.8
27164.2
27148.9
28180.5
33842.4
34195.1
34422.7
34825.7
10125.6
9155.5
9704.5
12320.3
30065.2
31746.9
32139.5
31690.8
28294.7
27262.9
27247.8
28232.5
33535.7
33840
34054.7
34466.3
10368.5
9410.62
9944.31
12500.6
29811.5
31437.6
31828.1
31428.2
28349.6
27366.2
27351.4
28288.4
33227.5
33482.7
33684.3
34104.5
10622
9676.47
10194.6
12690.5
29560
31129.6
31517.8
31167.2
28408.8
27474.1
27459.6
28348.4
32919.2
33124.6
33313
33742
10885
9951.88
10454.2
12889
29310.7
30823.1
31208.9
30908.1
28471.9
27586.6
27572.2
28412.4
32612
32767.1
32942.2
33380.2
11156.5
10235.9
10722.3
13095.3
29064
30518.6
30902
30651.2
28539.1
27703.4
27689.2
28480.4
32306.9
32411.3
32573
33020.1
11435.8
10527.8
10998.1
13308.9
28820.7
30217.1
30597.9
30397.5
28610.2
27824.3
27810.3
28552.4
32004.6
32058.1
32206.3
32662.7
11722.7
10827.3
11281.5
13529.7
28581.2
29919
30297.2
30147.2
28685.3
27949.4
27935.7
28628.4
31706
31708.2
31843
32308.8
12016.6
11133.9
11571.8
13757.1
28345.8
29624.6
30000.2
29900.8
28764.5
28078.6
28065.1
28708.4
31411.1
31362.3
31483.5
31958.7
12317.3
11447.4
11868.9
13991
28114.5
29334.3
29707.1
29658.2
28847.5
28211.8
28198.5
28792.5
31120.3
31020.4
31128.1
31612.5
12624.4
11767.3
12172.5
14231.1
27888.1
29048.6
29418.6
29420.2
28934.7
28349
28336
28880.7
30833.6
30682.9
30777.2
31270.5
12937.4
12093.3
12482.1
14477.2
27667.4
28768.6
29135.8
29187.7
29026.2
28490.5
28477.7
28973.3
30551.3
30350.2
30430.9
30933.1
13255.3
12424.3
12796.7
14728.4
27453.3
28495.4
28859.7
28961.7
29122.8
28636.7
28624.1
29070.7
30273.8
30022.2
30089.5
30600.4
13577.1
12758.9
13115.1
14983.9
27246.6
28230.1
28591.6
28743.3
29224.7
28787.9
28775.5
29173.2
30001
29699.1
29753
30272.6
13901.8
13096.3
13436.5
15243
27048
27973.5
28332.2
28533.2
29332.2
28944.3
28931.9
29280.7
29733.3
29381.1
29421.6
29949.8
14228.8
13435.7
13760.1
15505.3
26857.8
27726.3
28082.3
28331.8
29445.1
29105.5
29093
29393.2
29471.2
29068.7
29095.8
29632.8
14557.7
13776.8
14085.6
15770.4
26676.2
27488.5
27841.9
28139.3
29563.1
29271.2
29258.5
29510.3
29215.3
28762.9
28776.7
29322.3
14887.7
14118.7
14412.1
16037.5
26502.7
27259.8
27610.6
27955
29685.7
29440.8
29427.8
29631.7
28966.6
28464.6
28465.2
29019.4
15217.6
14460.3
14738.5
16305.5
26336.2
27039.1
27387.3
27778.1
29812
29613.5
29600.2
29756.7
28725.4
28174.5
28162
28724.8
15546.2
14800.3
15063.6
16573.1
26175.5
26825
27170.8
27607.3
29941.1
29788.5
29774.9
29884.7
28492.3
27893.2
27867.8
28438.9
15872.3
15137.5
15386.2
16839.2
26019.8
26616.8
26960.2
27441.8
30072.3
29965
29951.1
30015
28267.3
27620.7
27582.6
28162
16195.2
15471.3
15705.5
17102.9
25869.1
26414.5
26755.7
27281.5
30205.2
30142.4
30128.4
30147.2
28050.2
27357
27306.5
27893.8
16514.3
15801.1
16021.2
17364.1
25723.8
26218.7
26557.7
27127.2
30339.6
30320.7
30306.5
30280.9
27840.2
27101.3
27038.6
27633.6
16829.3
16126.7
16332.9
17622.5
25584.5
26029.9
26366.8
26979.1
30475.6
30499.9
30485.5
30416.2
27636.8
26853
26778.1
27380.7
17139.8
16447.5
16640.1
17877.6
25451.1
25848.2
26183
26837.3
30613.4
30679.9
30665.3
30553.1
27439.7
26611.6
26524.9
27134.9
17445.4
16763.1
16942.5
18129.1
25323.4
25673.5
26006.4
26701.9
30752.5
30860.5
30845.7
30691.2
27249.2
26377.5
26279.1
26896.4
17745.5
17072.8
17239.4
18376.6
25201.8
25506
25837.2
26572.8
30892.6
31041.2
31026.1
30830.2
27065.6
26151.3
26041.4
26665.8
18039.4
17376.1
17530.1
18619.4
25086.3
25346.1
25675.6
26450.5
31033.3
31221.5
31206.1
30969.7
26889.3
25933.2
25812.1
26443.4
18326.1
17671.7
17813.6
18856.6
24977
25193.8
25521.8
26334.8
31173.8
31400.6
31384.9
31108.9
26720.4
25723.4
25591.4
26229.6
18604.4
17958.7
18089
19087.3
24873.8
25049.2
25375.8
26225.8
31313.7
31578.2
31562.2
31247.5
26558.9
25522.2
25379.4
26024.3
18874.3
18236.9
18356
19311.2
24776.4
24911.7
25237
26123.2
31452.9
31754
31737.7
31385.3
26404.6
25329.2
25176.1
25827.4
19137.1
18507.9
18616.1
19529.6
24683.2
24779.6
25103.8
26025.3
31592.9
31930
31913.4
31523.9
26256.1
25142.8
24979.5
25637.1
10512.9
8772.11
9855.16
14627.4
34825.3
38065.8
38606.7
36982.2
30566.6
28049.4
28019.7
30447.9
40643.3
42300.6
42998.8
43491.5
7565.29
6233.54
7065.1
10895.9
37082.7
39737.1
40137
38735.2
28088.2
25943.8
25921.8
27997.3
41340.8
42605.6
43108.5
43459.7
7565.09
6233.45
7064.89
10895.2
37078.3
39732.2
40132.1
38730.8
28087.9
25944.1
25922.1
27997
41336.1
42600.3
43103.1
43454.3
7565.17
6233.67
7064.92
10894.5
37072.1
39725.3
40125.2
38724.9
28088
25945.1
25923.1
27997.1
41329.5
42592.8
43095.4
43446.7
7565.48
6234.15
7065.13
10893.7
37063.8
39715.9
40115.9
38716.7
28088.5
25946.8
25924.8
27997.6
41320.4
42582.5
43084.8
43436.3
7565.97
6234.87
7065.49
10892.7
37052.8
39703.6
40103.7
38706.1
28089.2
25949.1
25927.1
27998.3
41308.5
42568.9
43070.7
43422.6
7566.64
6235.84
7066
10891.5
37039
39688.1
40088.3
38692.7
28090.1
25952.1
25930
27999.2
41293.4
42551.7
43052.9
43405.2
7567.5
6237.06
7066.66
10890.1
37021.9
39669
40069.3
38676.2
28091.3
25955.7
25933.7
28000.3
41274.8
42530.5
43031
43383.8
7568.61
6238.62
7067.53
10888.4
37001.3
39645.8
40046.3
38656.2
28092.6
25960
25938
28001.6
41252.4
42504.8
43004.5
43357.9
7570.02
6240.56
7068.65
10886.5
36976.5
39618
40018.6
38632.1
28094.1
25965.2
25943.1
28003
41225.4
42474.1
42972.8
43326.8
7571.82
6243
7070.11
10884.2
36947
39584.8
39985.6
38603.4
28095.8
25971.2
25949.1
28004.7
41193.3
42437.5
42935
43289.9
7574.13
6246.08
7072.02
10881.7
36912.1
39545.5
39946.6
38569.5
28097.6
25978.2
25956.1
28006.6
41155.5
42394.4
42890.5
43246.4
7577.1
6249.96
7074.52
10879
36871.1
39499.5
39900.8
38529.6
28099.7
25986.2
25964.2
28008.6
41111.4
42344.1
42838.6
43195.6
7580.93
6254.86
7077.8
10876.3
36823.7
39446
39847.7
38483.4
28101.9
25995.3
25973.3
28010.9
41060.5
42286
42778.6
43137
7585.81
6261
7082.06
10873.5
36769.3
39384.7
39786.7
38430.2
28104.2
26005.6
25983.6
28013.3
41002.4
42219.8
42710.2
43070.1
7592.01
6268.64
7087.57
10870.9
36707.5
39315.1
39717.4
38369.9
28106.7
26017.1
25995.1
28016
40936.7
42144.8
42632.9
42994.4
7599.79
6278.07
7094.57
10868.8
36638.2
39236.8
39639.4
38302
28109.4
26029.9
26008
28018.9
40862.9
42060.8
42546.1
42909.6
7609.42
6289.57
7103.34
10867.3
36560.9
39149.5
39552.5
38226.3
28112.3
26044.1
26022.3
28022.1
40780.9
41967.3
42449.6
42815.2
7621.22
6303.48
7114.2
10866.6
36475.4
39052.7
39456.1
38142.3
28115.4
26059.7
26038
28025.6
40690.2
41864.1
42343
42710.8
7635.51
6320.13
7127.46
10867
36381.5
38946.4
39350.2
38050
28118.8
26076.9
26055.2
28029.4
40590.7
41750.7
42225.9
42596.3
7652.63
6339.87
7143.46
10868.8
36279
38830.2
39234.4
37949.1
28122.5
26095.6
26074.1
28033.6
40482
41626.9
42098.1
42471.2
7672.93
6363.07
7162.56
10872.3
36167.8
38704
39108.6
37839.5
28126.6
26116
26094.6
28038.2
40364
41492.4
41959.3
42335.4
7696.78
6390.12
7185.12
10877.9
36048
38567.8
38972.7
37721.2
28131.1
26138.1
26116.8
28043.3
40236.5
41347.3
41809.5
42188.7
7724.54
6421.38
7211.51
10885.7
35919.4
38421.5
38826.7
37594.1
28136
26162
26140.9
28048.9
40099.5
41191.2
41648.3
42030.9
7756.59
6457.23
7242.09
10896.3
35782.2
38265
38670.6
37458.1
28141.4
26187.7
26166.8
28055
39952.8
41024.2
41475.9
41862
7793.29
6498.06
7277.25
10909.8
35636.4
38098.6
38504.5
37313.5
28147.4
26215.4
26194.7
28061.8
39796.5
40846.1
41292
41682
7835.02
6544.24
7317.35
10926.7
35482.2
37922.3
38328.4
37160.4
28154
26245
26224.5
28069.2
39630.6
40657.2
41097
41491
7882.16
6596.18
7362.8
10947.3
35319.9
37736.4
38142.7
36998.8
28161.5
26276.9
26256.5
28077.6
39455.2
40457.4
40890.6
41289
7935.12
6654.27
7413.98
10972.1
35149.6
37541
37947.5
36829.1
28169.9
26310.9
26290.8
28086.8
39270.5
40246.9
40673.2
41076.1
7994.31
6718.94
7471.32
11001.3
34971.6
37336.5
37743
36651.5
28179.3
26347.4
26327.5
28097.1
39076.5
40025.7
40444.8
40852.5
8060.15
6790.61
7535.23
11035.5
34786.1
37122.8
37529.4
36466
28189.8
26386.2
26366.5
28108.5
38873.2
39793.9
40205.4
40618.1
8132.99
6869.65
7606.07
11074.9
34593.2
36900.3
37306.8
36273
28201.3
26427.3
26407.8
28120.9
38660.7
39551.7
39955.3
40373.1
8213.15
6956.37
7684.16
11119.8
34393.3
36669.1
37075.4
36072.3
28213.8
26470.6
26451.4
28134.3
38439.3
39299.1
39694.4
40117.6
8300.89
7051.04
7769.76
11170.5
34186.3
36429.2
36835.3
35864.3
28227.2
26516.2
26497.1
28148.6
38209
39036.4
39423
39851.9
8396.37
7153.82
7863.03
11227.2
33972.6
36181.1
36586.8
35649.1
28241.7
26564.1
26545.3
28164.1
37970.2
38763.9
39141.5
39576.3
8499.81
7264.91
7964.18
11290.1
33752.5
35925.1
36330.3
35427.2
28257.7
26614.7
26596.2
28181
37723.2
38482
38850.2
39291.1
8611.48
7384.6
8073.51
11359.5
33526.9
35662.1
36066.8
35199.4
28275.7
26668.5
26650.2
28199.9
37468.6
38191.2
38549.8
38997
8731.83
7513.32
8191.49
11436
33296.9
35393.2
35797.3
34966.7
28296
26725.7
26707.6
28221.1
37207.2
37892.3
38240.9
38694.7
8861.39
7651.61
8318.64
11520.1
33063.2
35119.3
35522.7
34730
28318.9
26786.6
26768.6
28244.7
36939.6
37586
37924.3
38385
9000.57
7799.89
8455.4
11612.3
32826.6
34840.9
35243.4
34489.9
28344.3
26851
26833.2
28270.8
36666.6
37273.3
37601.1
38068.7
9149.63
7958.4
8602
11712.8
32586.9
34558
34959.6
34246.1
28372.1
26918.9
26901.3
28299.5
36388.8
36954.8
37271.7
37746.5
9308.59
8127.19
8758.47
11821.5
32343.8
34270.2
34670.7
33998.4
28402.4
26990.2
26972.8
28330.7
36106.6
36631
36936.8
37418.9
9477.42
8306.19
8924.74
11938.4
32096.9
33977.1
34376.3
33746.4
28435
27065
27047.9
28364.4
35820.4
36302.3
36596.8
37086.3
9656.01
8495.33
9100.72
12063.4
31846.4
33678.8
34076.6
33490.2
28470.1
27143.3
27126.5
28400.9
35530.6
35969.1
36252
36749.2
9844.34
8694.56
9286.39
12196.4
31592.6
33375.5
33771.9
33230.2
28507.8
27225.3
27208.9
28440.3
35237.4
35631.5
35902.6
36407.8
10042.4
8903.87
9481.76
12337.6
31336.2
33068.5
33463.2
32967.3
28548.4
27311.2
27295.2
28482.7
34940.7
35289.4
35548.4
36061.8
10250.4
9123.55
9687.15
12487.4
31078.4
32758.7
33151.7
32702.4
28592.4
27401.2
27385.7
28528.3
34640.2
34942.4
35189.2
35710.9
10469
9354.14
9903.16
12646.5
30820.6
32447.9
32839.1
32436.9
28640.1
27495.7
27480.5
28577.4
34335.8
34590.9
34825.1
35355.2
10698.7
9596.24
10130.4
12815.7
30563.8
32137.2
32526.4
32171.9
28691.8
27594.7
27579.8
28630.3
34028.4
34235.7
34457.1
34995.6
10939.8
9849.86
10368.9
12995.1
30308.9
31827.5
32214.5
31908.1
28747.8
27698.4
27683.7
28687.2
33719.4
33878.2
34086.7
34633.7
11191.5
10114.2
10617.9
13184.1
30056.2
31518.9
31903.7
31646
28807.9
27806.7
27792.2
28748.1
33410.4
33520.1
33715.4
34271.2
11452.7
10388.2
10876.3
13381.8
29805.6
31211.9
31594.3
31385.7
28872.1
27919.5
27905.2
28813.1
33102.5
33162.6
33344.7
33909.3
11722.5
10670.8
11143.1
13587.3
29557.7
30907
31286.9
31127.7
28940.2
28036.6
28022.6
28882.1
32796.9
32806.8
32975.7
33549.4
12000.2
10961.3
11417.8
13800.2
29313.2
30604.9
30982.4
30872.9
29012.2
28157.9
28144
28955
32494.2
32453.7
32609.3
33192.3
12285.3
11259.5
11699.9
14020.2
29072.5
30306.4
30681.2
30621.5
29088.2
28283.3
28269.6
29031.9
32195.2
32104.1
32246.3
32838.7
12577.6
11564.7
11989
14246.9
28835.8
30011.5
30383.8
30373.9
29168.2
28412.7
28399.3
29112.8
31900
31758.3
31887.1
32488.9
12876.5
11876.7
12284.9
14480
28603.2
29720.6
30090.2
30130.2
29252.2
28546.2
28533
29197.7
31608.6
31416.5
31532
32142.9
13181.8
12195.2
12587.2
14719.3
28375.4
29434.4
29801.1
29890.9
29340.1
28683.6
28670.7
29286.8
31321.2
31079
31181.1
31800.8
13492.9
12519.7
12895.5
14964.4
28153.4
29153.8
29517.7
29657.2
29432.6
28825.4
28812.7
29380.2
31038.1
30746
30834.8
31463.2
13809
12849
13208.7
15214.7
27938
28880
29241.2
29430
29530
28971.9
28959.4
29478.5
30759.6
30417.8
30493.2
31130.2
14128.9
13182.2
13525.8
15469.3
27729.9
28614.1
28972.4
29210.4
29632.9
29123.5
29111.1
29581.9
30486
30094.4
30156.6
30802.1
14451.8
13518
13845.8
15727.5
27529.8
28356.9
28712.4
28998.9
29741.3
29280.2
29267.9
29690.4
30217.3
29776.1
29825
30479
14777.1
13856.1
14168.2
15989
27338
28108.8
28461.7
28796
29855.2
29441.8
29429.4
29803.9
29954.3
29463.5
29499.1
30161.7
15104.4
14195.9
14492.6
16253.4
27154.7
27870.2
28220.5
28601.9
29974.2
29607.9
29595.2
29922
29697.6
29157.5
29179.9
29851.1
15432.9
14536.5
14818
16519.9
26979.4
27640.6
27988.2
28416
30097.7
29777.8
29764.9
30044.3
29448
28859
28868.3
29547.9
15761.4
14876.9
15143.4
16787.4
26811.1
27418.7
27763.9
28237.3
30225
29950.9
29937.7
30170.4
29206
28568.7
28565.1
29253.1
16088.7
15215.8
15467.6
17054.5
26648.4
27203.5
27546.3
28064.6
30355.2
30126.3
30112.8
30299.4
28972.1
28287.1
28270.7
28966.9
16413.6
15552.1
15789.3
17320.2
26490.7
26994.2
27334.6
27897.2
30487.4
30303.2
30289.4
30430.7
28746.2
28014.4
27985.5
28689.7
16735.3
15884.9
16107.8
17583.6
26338
26790.7
27128.9
27735.1
30621.2
30481
30467.1
30563.8
28528.1
27750.4
27709.1
28421.1
17053.2
16213.7
16422.7
17844.4
26190.7
26593.8
26929.7
27578.8
30756.5
30659.6
30645.6
30698.5
28317.2
27494.3
27440.9
28160.5
17367.1
16538.3
16733.5
18102.3
26049.4
26403.8
26737.7
27428.8
30893.5
30839.2
30825
30834.7
28112.7
27245.6
27180.2
27907.1
17676.5
16858.2
17040
18357.1
25914
26220.9
26552.8
27285.2
31032.2
31019.6
31005.2
30972.5
27914.5
27003.8
26926.6
27660.7
17981
17172.8
17341.6
18608.3
25784.3
26044.9
26375
27147.8
31172.3
31200.7
31186
31111.7
27722.9
26769.3
26680.6
27421.7
18280.1
17481.8
17637.8
18855.5
25660.7
25876.3
26204.5
27016.9
31313.4
31381.9
31366.9
31251.7
27538.4
26542.6
26442.5
27190.6
18573.2
17784.3
17928
19098.1
25543.2
25715.1
26041.7
26892.6
31455
31562.6
31547.3
31392.1
27361.1
26324.1
26212.9
26967.8
18859
18079.2
18210.9
19335.2
25432
25561.7