0 	0 	0 	0
0 	0 	0 	0
0.00752508 	-0.000190645 	-0.000805312 	-0.285955
0.00752508 	-0.000190645 	-0.000805312 	-0.285955
0.00757525 	-0.000186618 	-0.000817854 	-0.285658
0.00762542 	-0.00018259 	-0.000830395 	-0.28536
0.00762542 	-0.00018259 	-0.000830395 	-0.28536
0.00767559 	-0.000178558 	-0.000842957 	-0.285062
0.00772575 	-0.000173996 	-0.000857708 	-0.284739
0.00777592 	-0.000169434 	-0.00087246 	-0.284416
0.00782609 	-0.000164872 	-0.000887211 	-0.284092
0.00782609 	-0.000164872 	-0.000887211 	-0.284092
0.00787625 	-0.000162027 	-0.000899388 	-0.283753
0.00792642 	-0.000160427 	-0.000909698 	-0.283402
0.00797659 	-0.000158827 	-0.000920008 	-0.283051
0.00802676 	-0.000158132 	-0.000929743 	-0.282694
0.00802676 	-0.000158132 	-0.000929743 	-0.282694
0.00807692 	-0.00016083 	-0.000937325 	-0.282311
0.00812709 	-0.000163528 	-0.000944907 	-0.281929
0.00812709 	-0.000163528 	-0.000944907 	-0.281929
0.00817726 	-0.000166226 	-0.000952489 	-0.281546
0.00822742 	-0.00017279 	-0.000960925 	-0.281136
0.00822742 	-0.00017279 	-0.000960925 	-0.281136
0.00827759 	-0.000179779 	-0.000969455 	-0.280723
0.00832776 	-0.000186768 	-0.000977985 	-0.28031
0.00832776 	-0.000186768 	-0.000977985 	-0.28031
0.00837793 	-0.000196082 	-0.000986364 	-0.279877
0.00842809 	-0.00020665 	-0.000994661 	-0.279433
0.00842809 	-0.00020665 	-0.000994661 	-0.279433
0.00847826 	-0.000217218 	-0.00100296 	-0.278989
0.00847826 	-0.000217218 	-0.00100296 	-0.278989
0.00852843 	-0.000228714 	-0.00101096 	-0.278531
0.00852843 	-0.000228714 	-0.00101096 	-0.278531
0.0085786 	-0.000241318 	-0.00101861 	-0.278055
0.0085786 	-0.000241318 	-0.00101861 	-0.278055
0.00862876 	-0.000253923 	-0.00102626 	-0.27758
0.00867893 	-0.000266697 	-0.00103395 	-0.277094
0.00867893 	-0.000266697 	-0.00103395 	-0.277094
0.0087291 	-0.000279837 	-0.00104175 	-0.276587
0.00877926 	-0.000292977 	-0.00104954 	-0.276079
0.00877926 	-0.000292977 	-0.00104954 	-0.276079
0.00882943 	-0.000306064 	-0.00105727 	-0.275565
0.0088796 	-0.000318975 	-0.00106481 	-0.275026
0.0088796 	-0.000318975 	-0.00106481 	-0.275026
0.00897993 	-0.000344757 	-0.00107897 	-0.273942
0.00897993 	-0.000344757 	-0.00107897 	-0.273942
0.0090301 	-0.000357465 	-0.00108205 	-0.273371
0.00908027 	-0.000370174 	-0.00108512 	-0.2728
0.00908027 	-0.000370174 	-0.00108512 	-0.2728
0.00913043 	-0.000382993 	-0.00108728 	-0.272221
0.0091806 	-0.000396179 	-0.00108641 	-0.271615
0.0091806 	-0.000396179 	-0.00108641 	-0.271615
0.00923077 	-0.000409365 	-0.00108553 	-0.271008
0.00928094 	-0.000423016 	-0.00108692 	-0.270386
0.00928094 	-0.000423016 	-0.00108692 	-0.270386
0.0093311 	-0.000437702 	-0.00109339 	-0.269732
0.00938127 	-0.000452389 	-0.00109986 	-0.269079
0.00938127 	-0.000452389 	-0.00109986 	-0.269079
0.00943144 	-0.000468109 	-0.00111236 	-0.2684
0.00943144 	-0.000468109 	-0.00111236 	-0.2684
0.00948161 	-0.000485154 	-0.00113258 	-0.26769
0.00948161 	-0.000485154 	-0.00113258 	-0.26769
0.00953177 	-0.000502199 	-0.0011528 	-0.266981
0.00953177 	-0.000502199 	-0.0011528 	-0.266981
0.00958194 	-0.000520287 	-0.00117244 	-0.266243
0.00958194 	-0.000520287 	-0.00117244 	-0.266243
0.00963211 	-0.00053902 	-0.00119173 	-0.265488
0.00963211 	-0.00053902 	-0.00119173 	-0.265488
0.00968227 	-0.000557753 	-0.00121102 	-0.264734
0.00968227 	-0.000557753 	-0.00121102 	-0.264734
0.00973244 	-0.000574981 	-0.00121213 	-0.263968
0.00978261 	-0.000591937 	-0.00120995 	-0.2632
0.00983278 	-0.000608159 	-0.00120634 	-0.262431
0.00988294 	-0.000619244 	-0.00119268 	-0.261665
0.00988294 	-0.000619244 	-0.00119268 	-0.261665
0.00993311 	-0.000630329 	-0.00117902 	-0.260898
0.00998328 	-0.000639361 	-0.00117276 	-0.260125
0.00998328 	-0.000639361 	-0.00117276 	-0.260125
0.0100334 	-0.000645896 	-0.00117549 	-0.259345
0.0100334 	-0.000645896 	-0.00117549 	-0.259345
0.0100836 	-0.00065243 	-0.00117822 	-0.258565
0.0101338 	-0.000664169 	-0.00119268 	-0.257751
0.0101338 	-0.000664169 	-0.00119268 	-0.257751
0.0102341 	-0.000694236 	-0.00122322 	-0.25609
0.0102341 	-0.000694236 	-0.00122322 	-0.25609
0.0102843 	-0.000725023 	-0.00122632 	-0.255198
0.0103344 	-0.00075581 	-0.00122942 	-0.254306
0.0103344 	-0.00075581 	-0.00122942 	-0.254306
0.0103846 	-0.000796692 	-0.00120713 	-0.253348
0.0103846 	-0.000796692 	-0.00120713 	-0.253348
0.0104348 	-0.000841733 	-0.00117438 	-0.252362
0.0104849 	-0.000883339 	-0.00113966 	-0.25136
0.0104849 	-0.000883339 	-0.00113966 	-0.25136
0.0105351 	-0.000912603 	-0.00109781 	-0.2503
0.0105853 	-0.000941866 	-0.00105597 	-0.24924
0.0105853 	-0.000941866 	-0.00105597 	-0.24924
0.0106355 	-0.000931502 	-0.00104798 	-0.248161
0.0106856 	-0.000909373 	-0.00105003 	-0.247076
0.0106856 	-0.000909373 	-0.00105003 	-0.247076
0.0107358 	-0.000869294 	-0.00106632 	-0.245981
0.0107358 	-0.000869294 	-0.00106632 	-0.245981
0.010786 	-0.000798325 	-0.00110712 	-0.244868
0.010786 	-0.000798325 	-0.00110712 	-0.244868
0.0108361 	-0.000727244 	-0.00114792 	-0.243755
0.0108361 	-0.000727244 	-0.00114792 	-0.243755
0.0108863 	-0.000638624 	-0.00118937 	-0.242552
0.0109365 	-0.000550004 	-0.00123082 	-0.24135
0.0109365 	-0.000550004 	-0.00123082 	-0.24135
0.0109866 	-0.000465224 	-0.00125462 	-0.24008
0.0109866 	-0.000465224 	-0.00125462 	-0.24008
0.0110368 	-0.000382197 	-0.00127038 	-0.238778
0.011087 	-0.000305156 	-0.00127409 	-0.23747
0.011087 	-0.000305156 	-0.00127409 	-0.23747
0.0111371 	-0.000236803 	-0.00126034 	-0.236152
0.0111873 	-0.000170949 	-0.0012445 	-0.234845
0.0111873 	-0.000170949 	-0.0012445 	-0.234845
0.0112375 	-0.000117352 	-0.00121845 	-0.233599
0.0112876 	-6.37556e-05 	-0.00119239 	-0.232353
0.0112876 	-6.37556e-05 	-0.00119239 	-0.232353
0.0113378 	-2.02398e-05 	-0.00116374 	-0.231195
0.011388 	2.29666e-05 	-0.00113501 	-0.23004
0.011388 	2.29666e-05 	-0.00113501 	-0.23004
0.0114883 	0.000102217 	-0.00109206 	-0.227822
0.0114883 	0.000102217 	-0.00109206 	-0.227822
0.0115385 	0.000142517 	-0.00108286 	-0.226721
0.0115886 	0.000183295 	-0.00107891 	-0.225621
0.0115886 	0.000183295 	-0.00107891 	-0.225621
0.0116388 	0.000226613 	-0.00108029 	-0.224508
0.011689 	0.000271607 	-0.00108517 	-0.223386
0.011689 	0.000271607 	-0.00108517 	-0.223386
0.0117391 	0.000319323 	-0.00108792 	-0.222249
0.0117893 	0.000369229 	-0.00108894 	-0.2211
0.0117893 	0.000369229 	-0.00108894 	-0.2211
0.0118395 	0.000421759 	-0.00108589 	-0.219934
0.0118896 	0.000476504 	-0.00107942 	-0.218755
0.0118896 	0.000476504 	-0.00107942 	-0.218755
0.0119398 	0.000533914 	-0.00107091 	-0.217559
0.0119398 	0.000533914 	-0.00107091 	-0.217559
0.01199 	0.000593373 	-0.00106084 	-0.216351
0.01199 	0.000593373 	-0.00106084 	-0.216351
0.0120401 	0.00065579 	-0.00105058 	-0.215121
0.0120401 	0.00065579 	-0.00105058 	-0.215121
0.0120903 	0.000719992 	-0.00104019 	-0.21388
0.0120903 	0.000719992 	-0.00104019 	-0.21388
0.0121405 	0.00078765 	-0.00102969 	-0.212614
0.0121405 	0.00078765 	-0.00102969 	-0.212614
0.0121906 	0.000856681 	-0.00101916 	-0.211338
0.0121906 	0.000856681 	-0.00101916 	-0.211338
0.0122408 	0.000929852 	-0.00100771 	-0.210031
0.0122408 	0.000929852 	-0.00100771 	-0.210031
0.012291 	0.0010038 	-0.000996092 	-0.208718
0.012291 	0.0010038 	-0.000996092 	-0.208718
0.0123411 	0.00108296 	-0.000983282 	-0.207367
0.0123411 	0.00108296 	-0.000983282 	-0.207367
0.0123913 	0.00116323 	-0.000970311 	-0.206008
0.0123913 	0.00116323 	-0.000970311 	-0.206008
0.0124415 	0.00124816 	-0.000956661 	-0.204615
0.0124916 	0.00133578 	-0.000942811 	-0.203205
0.0124916 	0.00133578 	-0.000942811 	-0.203205
0.012592 	0.00152334 	-0.000914353 	-0.2003
0.012592 	0.00152334 	-0.000914353 	-0.2003
0.0126421 	0.00162182 	-0.000899935 	-0.198816
0.0126923 	0.00172737 	-0.000885127 	-0.197281
0.0126923 	0.00172737 	-0.000885127 	-0.197281
0.0127425 	0.00183527 	-0.000870151 	-0.195729
0.0127425 	0.00183527 	-0.000870151 	-0.195729
0.0127926 	0.0019486 	-0.000854771 	-0.194134
0.0128428 	0.00206642 	-0.000839016 	-0.192502
0.0128428 	0.00206642 	-0.000839016 	-0.192502
0.012893 	0.00218703 	-0.000823028 	-0.190845
0.0129431 	0.00231457 	-0.000806422 	-0.18912
0.0129431 	0.00231457 	-0.000806422 	-0.18912
0.0129933 	0.00244479 	-0.000789567 	-0.187366
0.0130435 	0.00257903 	-0.000772337 	-0.185565
0.0130435 	0.00257903 	-0.000772337 	-0.185565
0.0130936 	0.00271838 	-0.000754604 	-0.183696
0.0131438 	0.00286041 	-0.000736582 	-0.181786
0.0131438 	0.00286041 	-0.000736582 	-0.181786
0.013194 	0.00300645 	-0.000718098 	-0.17981
0.0132441 	0.00315605 	-0.000699047 	-0.177756
0.0132441 	0.00315605 	-0.000699047 	-0.177756
0.0132943 	0.0033077 	-0.000679625 	-0.175646
0.0133445 	0.00346184 	-0.000659693 	-0.173455
0.0133445 	0.00346184 	-0.000659693 	-0.173455
0.0133946 	0.00361783 	-0.000639214 	-0.171157
0.0134448 	0.00377462 	-0.000618356 	-0.16878
0.0134448 	0.00377462 	-0.000618356 	-0.16878
0.013495 	0.00393202 	-0.000597083 	-0.166313
0.0135452 	0.00408896 	-0.000575168 	-0.163685
0.0135452 	0.00408896 	-0.000575168 	-0.163685
0.0136455 	0.00439819 	-0.000530123 	-0.158081
0.0136455 	0.00439819 	-0.000530123 	-0.158081
0.0136957 	0.00454832 	-0.00050691 	-0.155056
0.0137458 	0.00469178 	-0.000483168 	-0.151826
0.0137458 	0.00469178 	-0.000483168 	-0.151826
0.013796 	0.00482796 	-0.000459027 	-0.148424
0.0138462 	0.00495495 	-0.000434483 	-0.144836
0.0138462 	0.00495495 	-0.000434483 	-0.144836
0.0138963 	0.00507049 	-0.000409535 	-0.141045
0.0138963 	0.00507049 	-0.000409535 	-0.141045
0.0139465 	0.00516617 	-0.000384106 	-0.13696
0.0139967 	0.00524239 	-0.00035837 	-0.132627
0.0139967 	0.00524239 	-0.00035837 	-0.132627
0.0140468 	0.00529642 	-0.000332402 	-0.128031
0.0140468 	0.00529642 	-0.000332402 	-0.128031
0.014097 	0.00532479 	-0.000306277 	-0.123154
0.0141472 	0.00532369 	-0.00028008 	-0.117977
0.0141973 	0.00528902 	-0.000253897 	-0.112479
0.0141973 	0.00528902 	-0.000253897 	-0.112479
0.0142475 	0.00521007 	-0.000227872 	-0.106587
0.0142977 	0.00508903 	-0.000202139 	-0.100346
0.0143478 	0.00492409 	-0.000176916 	-0.0937665
0.0143478 	0.00492409 	-0.000176916 	-0.0937665
0.014398 	0.00471493 	-0.000152485 	-0.0868742
0.014398 	0.00471493 	-0.000152485 	-0.0868742
0.0144482 	0.00446373 	-0.000129137 	-0.0797154
0.0144983 	0.00417546 	-0.00010715 	-0.0723552
0.0144983 	0.00417546 	-0.00010715 	-0.0723552
0.0145485 	0.00385746 	-8.6768e-05 	-0.0648731
0.0145987 	0.00351798 	-6.81456e-05 	-0.0573517
0.0145987 	0.00351798 	-6.81456e-05 	-0.0573517
0.0146488 	0.00316408 	-5.13065e-05 	-0.0498629
0.014699 	0.00279937 	-3.62278e-05 	-0.0424571
0.014699 	0.00279937 	-3.62278e-05 	-0.0424571
0.0147492 	0.0024218 	-2.29449e-05 	-0.0351584
0.0147993 	0.00202047 	-1.16424e-05 	-0.0279661
0.0147993 	0.00202047 	-1.16424e-05 	-0.0279661
0.0148495 	0.00156916 	-3.3119e-06 	-0.0208503
0.0148495 	0.00156916 	-3.3119e-06 	-0.0208503
0.0148997 	0.00104125 	1.19016e-06 	-0.0137759
0.0148997 	0.00104125 	1.19016e-06 	-0.0137759
0.0149498 	0.000477477 	2.16948e-06 	-0.00679605
0.0149498 	0.000477477 	2.16948e-06 	-0.00679605
0.015 	0 	0 	0
