-0.0075 	0 	0 	0
-0.0075 	-2.1218e-34 	1.79559e-36 	-7.25404e-33
-0.00745622 	-0.000278869 	2.35994e-06 	-0.00953399
-0.00745622 	-0.000278869 	2.35994e-06 	-0.00953399
-0.00741165 	-0.000613088 	5.6398e-06 	-0.0188429
-0.00741165 	-0.000613088 	5.6398e-06 	-0.0188429
-0.00736628 	-0.00095736 	9.61717e-06 	-0.0282718
-0.00736628 	-0.00095736 	9.61717e-06 	-0.0282718
-0.0073201 	-0.00128077 	1.42113e-05 	-0.0379163
-0.0073201 	-0.00128077 	1.42113e-05 	-0.0379163
-0.00727309 	-0.00158304 	2.04846e-05 	-0.0476624
-0.00727309 	-0.00158304 	2.04846e-05 	-0.0476624
-0.00722524 	-0.00186997 	2.81144e-05 	-0.0573746
-0.00722524 	-0.00186997 	2.81144e-05 	-0.0573746
-0.00717653 	-0.00214328 	3.72619e-05 	-0.0669473
-0.00717653 	-0.00214328 	3.72619e-05 	-0.0669473
-0.00712695 	-0.00240323 	4.79237e-05 	-0.0762879
-0.00712695 	-0.00240323 	4.79237e-05 	-0.0762879
-0.00707647 	-0.00264949 	6.0097e-05 	-0.0853165
-0.00707647 	-0.00264949 	6.0097e-05 	-0.0853165
-0.0070251 	-0.00288142 	7.37631e-05 	-0.0939721
-0.0070251 	-0.00288142 	7.37631e-05 	-0.0939721
-0.0069728 	-0.00309842 	8.88279e-05 	-0.102219
-0.0069728 	-0.00309842 	8.88279e-05 	-0.102219
-0.00691956 	-0.00330065 	0.000105303 	-0.11005
-0.00691956 	-0.00330065 	0.000105303 	-0.11005
-0.00686537 	-0.00348889 	0.000123201 	-0.117482
-0.00686537 	-0.00348889 	0.000123201 	-0.117482
-0.00681021 	-0.00366398 	0.000142577 	-0.124544
-0.00681021 	-0.00366398 	0.000142577 	-0.124544
-0.00675406 	-0.00382645 	0.000163384 	-0.131261
-0.00675406 	-0.00382645 	0.000163384 	-0.131261
-0.0066969 	-0.0039765 	0.000185518 	-0.137656
-0.0066969 	-0.0039765 	0.000185518 	-0.137656
-0.00663871 	-0.00411418 	0.000208995 	-0.143748
-0.00663871 	-0.00411418 	0.000208995 	-0.143748
-0.00657949 	-0.0042396 	0.000233763 	-0.149551
-0.00657949 	-0.0042396 	0.000233763 	-0.149551
-0.0065192 	-0.00435289 	0.000259763 	-0.155084
-0.0065192 	-0.00435289 	0.000259763 	-0.155084
-0.00645783 	-0.00445416 	0.000286937 	-0.16036
-0.00645783 	-0.00445416 	0.000286937 	-0.16036
-0.00639535 	-0.00454354 	0.000315209 	-0.165396
-0.00639535 	-0.00454354 	0.000315209 	-0.165396
-0.00633176 	-0.00462115 	0.000344521 	-0.170205
-0.00633176 	-0.00462115 	0.000344521 	-0.170205
-0.00626703 	-0.00468703 	0.000374831 	-0.1748
-0.00626703 	-0.00468703 	0.000374831 	-0.1748
-0.00620114 	-0.00474109 	0.000406112 	-0.179192
-0.00620114 	-0.00474109 	0.000406112 	-0.179192
-0.00613406 	-0.00478316 	0.000438311 	-0.183384
-0.00613406 	-0.00478316 	0.000438311 	-0.183384
-0.00606579 	-0.0048132 	0.000471278 	-0.187378
-0.00606579 	-0.0048132 	0.000471278 	-0.187378
-0.00599629 	-0.00483161 	0.00050478 	-0.191171
-0.00599629 	-0.00483161 	0.00050478 	-0.191171
-0.00592554 	-0.00483949 	0.000538729 	-0.19477
-0.00592554 	-0.00483949 	0.000538729 	-0.19477
-0.00585352 	-0.00483832 	0.000573375 	-0.198191
-0.00585352 	-0.00483832 	0.000573375 	-0.198191
-0.00578022 	-0.00482934 	0.000609029 	-0.201461
-0.00578022 	-0.00482934 	0.000609029 	-0.201461
-0.00570559 	-0.00481286 	0.00064549 	-0.2046
-0.00570559 	-0.00481286 	0.00064549 	-0.2046
-0.00562963 	-0.0047881 	0.000681989 	-0.207621
-0.00562963 	-0.0047881 	0.000681989 	-0.207621
-0.00555231 	-0.00475386 	0.000718019 	-0.210526
-0.00555231 	-0.00475386 	0.000718019 	-0.210526
-0.0054736 	-0.00470942 	0.000753937 	-0.213314
-0.0054736 	-0.00470942 	0.000753937 	-0.213314
-0.00539348 	-0.00465504 	0.000790321 	-0.215975
-0.00539348 	-0.00465504 	0.000790321 	-0.215975
-0.00531193 	-0.00459167 	0.000827076 	-0.218501
-0.00531193 	-0.00459167 	0.000827076 	-0.218501
-0.00522891 	-0.0045201 	0.000863681 	-0.220895
-0.00522891 	-0.0045201 	0.000863681 	-0.220895
-0.0051444 	-0.00444073 	0.00089993 	-0.223174
-0.0051444 	-0.00444073 	0.00089993 	-0.223174
-0.00505838 	-0.00435373 	0.000936013 	-0.225356
-0.00505838 	-0.00435373 	0.000936013 	-0.225356
-0.00497081 	-0.00425928 	0.000972032 	-0.227454
-0.00497081 	-0.00425928 	0.000972032 	-0.227454
-0.00488168 	-0.00415756 	0.00100784 	-0.229474
-0.00488168 	-0.00415756 	0.00100784 	-0.229474
-0.00479094 	-0.00404874 	0.00104331 	-0.231422
-0.00479094 	-0.00404874 	0.00104331 	-0.231422
-0.00469858 	-0.00393293 	0.00107839 	-0.233303
-0.00469858 	-0.00393293 	0.00107839 	-0.233303
-0.00460456 	-0.00381016 	0.00111297 	-0.235122
-0.00460456 	-0.00381016 	0.00111297 	-0.235122
-0.00450886 	-0.00368037 	0.00114705 	-0.236881
-0.00450886 	-0.00368037 	0.00114705 	-0.236881
-0.00441144 	-0.00354349 	0.00118061 	-0.238581
-0.00441144 	-0.00354349 	0.00118061 	-0.238581
-0.00431227 	-0.0033996 	0.00121331 	-0.240226
-0.00431227 	-0.0033996 	0.00121331 	-0.240226
-0.00421133 	-0.00324901 	0.00124478 	-0.241837
-0.00421133 	-0.00324901 	0.00124478 	-0.241837
-0.00410857 	-0.00308914 	0.00127576 	-0.243449
-0.00410857 	-0.00308914 	0.00127576 	-0.243449
-0.00400397 	-0.00291141 	0.0013066 	-0.245116
-0.00400397 	-0.00291141 	0.0013066 	-0.245116
-0.0038975 	-0.00270708 	0.00133411 	-0.246874
-0.0038975 	-0.00270708 	0.00133411 	-0.246874
-0.00378912 	-0.0024768 	0.00135781 	-0.248682
-0.00378912 	-0.0024768 	0.00135781 	-0.248682
-0.00367879 	-0.00224548 	0.00138412 	-0.250405
-0.00367879 	-0.00224548 	0.00138412 	-0.250405
-0.00356649 	-0.00204142 	0.00141213 	-0.251961
-0.00356649 	-0.00204142 	0.00141213 	-0.251961
-0.00345217 	-0.00185986 	0.00143468 	-0.25342
-0.00345217 	-0.00185986 	0.00143468 	-0.25342
-0.0033358 	-0.00168281 	0.0014524 	-0.25485
-0.0033358 	-0.00168281 	0.0014524 	-0.25485
-0.00321735 	-0.00150629 	0.0014703 	-0.25625
-0.00321735 	-0.00150629 	0.0014703 	-0.25625
-0.00309677 	-0.00133361 	0.00148667 	-0.25761
-0.00309677 	-0.00133361 	0.00148667 	-0.25761
-0.00297403 	-0.00116585 	0.00149432 	-0.258949
-0.00297403 	-0.00116585 	0.00149432 	-0.258949
-0.00284909 	-0.00100032 	0.00149841 	-0.260351
-0.00284909 	-0.00100032 	0.00149841 	-0.260351
-0.0027219 	-0.000827411 	0.00151757 	-0.261956
-0.0027219 	-0.000827411 	0.00151757 	-0.261956
-0.00259244 	-0.000640051 	0.0015549 	-0.263849
-0.00259244 	-0.000640051 	0.0015549 	-0.263849
-0.00246065 	-0.000455291 	0.00157404 	-0.265728
-0.00246065 	-0.000455291 	0.00157404 	-0.265728
-0.00232651 	-0.000292296 	0.00156117 	-0.267203
-0.00232651 	-0.000292296 	0.00156117 	-0.267203
-0.00218995 	-0.000144557 	0.00155075 	-0.268351
-0.00218995 	-0.000144557 	0.00155075 	-0.268351
-0.00205095 	2.90904e-07 	0.00155887 	-0.269413
-0.00205095 	2.90904e-07 	0.00155887 	-0.269413
-0.00190946 	0.000146469 	0.00157367 	-0.27047
-0.00190946 	0.000146469 	0.00157367 	-0.27047
-0.00176543 	0.000294281 	0.0015831 	-0.271501
-0.00176543 	0.000294281 	0.0015831 	-0.271501
-0.00161881 	0.000444455 	0.00158617 	-0.272498
-0.00161881 	0.000444455 	0.00158617 	-0.272498
-0.00146957 	0.000599762 	0.00158539 	-0.273496
-0.00146957 	0.000599762 	0.00158539 	-0.273496
-0.00131765 	0.00076321 	0.00158097 	-0.274535
-0.00131765 	0.00076321 	0.00158097 	-0.274535
-0.001163 	0.000933133 	0.00157353 	-0.275613
-0.001163 	0.000933133 	0.00157353 	-0.275613
-0.00100559 	0.00110318 	0.00156552 	-0.276695
-0.00100559 	0.00110318 	0.00156552 	-0.276695
-0.000845345 	0.00126788 	0.00155321 	-0.277744
-0.000845345 	0.00126788 	0.00155321 	-0.277744
-0.000682232 	0.00142705 	0.00152723 	-0.278773
-0.000682232 	0.00142705 	0.00152723 	-0.278773
-0.000516194 	0.00159112 	0.00149626 	-0.279898
-0.000516194 	0.00159112 	0.00149626 	-0.279898
-0.000347178 	0.00178024 	0.00149497 	-0.281313
-0.000347178 	0.00178024 	0.00149497 	-0.281313
-0.000175132 	0.00199905 	0.00152717 	-0.283098
-0.000175132 	0.00199905 	0.00152717 	-0.283098
0 	0.00219305 	0.00151887 	-0.284602
0 	0.00219305 	0.00151887 	-0.284602
0 	0.00219305 	0.00151887 	-0.284602
0 	0.00219305 	0.00151887 	-0.284602
0.000175132 	0.00232307 	0.00146661 	-0.285263
0.000175132 	0.00108324 	0.00434864 	-0.30598
0.000347178 	0.00241561 	0.00143343 	-0.285426
0.000347178 	0.0011695 	0.00407992 	-0.307738
0.000516194 	0.00249266 	0.00141511 	-0.285479
0.000516194 	0.0012907 	0.00397448 	-0.309546
0.000682232 	0.00255677 	0.00139711 	-0.285497
0.000682232 	0.00145088 	0.00389235 	-0.311713
0.000845345 	0.00260647 	0.00137662 	-0.285441
0.000845345 	0.00161643 	0.00377137 	-0.313892
0.00100559 	0.00264357 	0.00135253 	-0.285297
0.00100559 	0.00177492 	0.00362482 	-0.315894
0.001163 	0.00267133 	0.00132813 	-0.285068
0.001163 	0.00192488 	0.00348211 	-0.317659
0.00131765 	0.00269245 	0.00130413 	-0.284756
0.00131765 	0.00206486 	0.00337139 	-0.319204
0.00146957 	0.00270922 	0.00128015 	-0.284357
0.00146957 	0.00220118 	0.00328199 	-0.320739
0.00161881 	0.00272381 	0.00125586 	-0.283866
0.00161881 	0.00233764 	0.00315195 	-0.322444
0.00176543 	0.00273742 	0.00123117 	-0.283274
0.00176543 	0.00246073 	0.00298999 	-0.324042
0.00190946 	0.00274912 	0.0012069 	-0.282558
0.00190946 	0.00256219 	0.00285346 	-0.325222
0.00205095 	0.00275677 	0.00118449 	-0.281688
0.00205095 	0.0026462 	0.0027397 	-0.326024
0.00218995 	0.00275937 	0.00116741 	-0.280665
0.00218995 	0.00271291 	0.00262381 	-0.326564
0.00232651 	0.00275787 	0.00115004 	-0.279568
0.00232651 	0.00276043 	0.00249975 	-0.326914
0.00246065 	0.00275907 	0.00111287 	-0.278424
0.00246065 	0.00278864 	0.00237613 	-0.327089
0.00259244 	0.00277267 	0.00106966 	-0.277073
0.00259244 	0.00279713 	0.0022553 	-0.327092
0.0027219 	0.00279455 	0.00105526 	-0.275441
0.0027219 	0.00278425 	0.00213476 	-0.326927
0.00284909 	0.00280876 	0.00104991 	-0.273769
0.00284909 	0.00274882 	0.00201442 	-0.326596
0.00297403 	0.002807 	0.00102516 	-0.272238
0.00297403 	0.00269101 	0.00189562 	-0.3261
0.00309677 	0.00279103 	0.00099266 	-0.270797
0.00309677 	0.0026114 	0.00177966 	-0.325436
0.00321735 	0.00276694 	0.000964409 	-0.269349
0.00321735 	0.00251017 	0.0016666 	-0.324608
0.0033358 	0.00274036 	0.00093926 	-0.267844
0.0033358 	0.00238727 	0.00155764 	-0.323622
0.00345217 	0.00271276 	0.000913775 	-0.266273
0.00345217 	0.00224293 	0.00145033 	-0.322484
0.00356649 	0.00268405 	0.000887208 	-0.264637
0.00356649 	0.00207553 	0.00133854 	-0.321197
0.00367879 	0.00265436 	0.000864412 	-0.262935
0.00367879 	0.00187911 	0.00124237 	-0.319741
0.00378912 	0.00165139 	0.00112918 	-0.318095
0.00378912 	0.00262151 	0.000842537 	-0.261171
0.0038975 	0.0025838 	0.000807112 	-0.259379
0.0038975 	0.00142229 	0.000949961 	-0.316408
0.00400397 	0.00254883 	0.000762794 	-0.25758
0.00400397 	0.00126394 	0.000796347 	-0.31508
0.00410857 	0.002527 	0.000729922 	-0.255666
0.00410857 	0.00120127 	0.000773498 	-0.314196
0.00421133 	0.00251349 	0.000732696 	-0.253409
0.00421133 	0.00110312 	0.000918825 	-0.312728
0.00431227 	0.00247646 	0.000748771 	-0.250709
0.00431227 	0.000722955 	0.00101909 	-0.309152
0.00441144 	0.00239207 	0.000720466 	-0.247798
0.00441144 	7.17214e-07 	0.000813453 	-0.303588
0.00450886 	0.00228235 	0.000660431 	-0.245033
0.00450886 	-0.000787423 	0.000494036 	-0.298039
0.00460456 	0.00217845 	0.000610814 	-0.242536
0.00460456 	-0.00138079 	0.000309165 	-0.293831
0.00469858 	0.00209176 	0.000584337 	-0.240198
0.00469858 	-0.0017474 	0.000277743 	-0.290724
0.00479094 	0.00202003 	0.000569799 	-0.237895
0.00479094 	-0.00196925 	0.000297328 	-0.288101
0.00488168 	0.00195341 	0.000546238 	-0.235568
0.00488168 	-0.00213625 	0.000248318 	-0.28559
0.00497081 	0.00188611 	0.000516403 	-0.233197
0.00497081 	-0.00228922 	0.000161594 	-0.28309
0.00505838 	0.00181761 	0.000489325 	-0.230775
0.00505838 	-0.00243493 	9.29237e-05 	-0.280629
0.0051444 	0.00174824 	0.000463503 	-0.228295
0.0051444 	-0.00257552 	3.28054e-05 	-0.27822
0.00522891 	0.00167808 	0.000437486 	-0.225751
0.00522891 	-0.00271063 	-2.78803e-05 	-0.27579
0.00531193 	-0.00283632 	-8.66192e-05 	-0.273228
0.00531193 	0.00160712 	0.000411688 	-0.223136
0.00539348 	0.00153528 	0.000386467 	-0.220443
0.00539348 	-0.0029496 	-0.000142208 	-0.270478
0.0054736 	0.00146245 	0.000361696 	-0.217665
0.0054736 	-0.00305079 	-0.00019533 	-0.267553
0.00555231 	0.00138855 	0.000337365 	-0.214795
0.00555231 	-0.00314146 	-0.000245352 	-0.264477
0.00562963 	0.00131368 	0.000313496 	-0.211824
0.00562963 	-0.00322249 	-0.000292135 	-0.261267
0.00570559 	0.00123807 	0.00029022 	-0.208743
0.00570559 	-0.00329424 	-0.00033564 	-0.257932
0.00578022 	0.00116195 	0.000267787 	-0.205541
0.00578022 	-0.00335725 	-0.000375837 	-0.254473
0.00585352 	0.00108528 	0.000246254 	-0.202207
0.00585352 	-0.00341191 	-0.000412852 	-0.250879
0.00592554 	0.00100779 	0.000225491 	-0.198729
0.00592554 	-0.00345795 	-0.000446586 	-0.247132
0.00599629 	0.0009293 	0.000205394 	-0.195088
0.00599629 	-0.00349487 	-0.000476811 	-0.24321
0.00606579 	-0.00352237 	-0.000503291 	-0.239096
0.00606579 	0.000849943 	0.000186018 	-0.191263
0.00613406 	0.000770069 	0.00016753 	-0.187228
0.00613406 	-0.00354045 	-0.000525887 	-0.234775
0.00620114 	0.000690136 	0.00015008 	-0.182952
0.00620114 	-0.00354933 	-0.000544463 	-0.230231
0.00626703 	0.000610618 	0.000133728 	-0.178407
0.00626703 	-0.00354912 	-0.000558681 	-0.22544
0.00633176 	0.000531922 	0.000118455 	-0.17357
0.00633176 	-0.00353983 	-0.000568266 	-0.220365
0.00639535 	0.000454381 	0.000104269 	-0.168417
0.00639535 	-0.00352143 	-0.000573088 	-0.214963
0.00645783 	0.000378293 	9.11738e-05 	-0.162922
0.00645783 	-0.00349389 	-0.000573156 	-0.209188
0.0065192 	0.000303987 	7.91346e-05 	-0.157061
0.0065192 	-0.003457 	-0.000568666 	-0.202987
0.00657949 	0.000231905 	6.81947e-05 	-0.150805
0.00657949 	-0.00341032 	-0.000559673 	-0.196308
0.00663871 	0.000162341 	5.84388e-05 	-0.14413
0.00663871 	-0.0033533 	-0.000545959 	-0.189091
0.0066969 	9.52604e-05 	4.9756e-05 	-0.137011
0.0066969 	-0.00328467 	-0.000527768 	-0.181271
0.00675406 	3.10509e-05 	4.19223e-05 	-0.129419
0.00675406 	-0.00320018 	-0.00050515 	-0.172795
0.00681021 	-2.87897e-05 	3.50238e-05 	-0.121321
0.00681021 	-0.00309239 	-0.000477023 	-0.1636
0.00686537 	-8.1716e-05 	2.93287e-05 	-0.112703
0.00686537 	-0.00295545 	-0.000443149 	-0.153582
0.00691956 	-0.000124975 	2.48271e-05 	-0.103587
0.00691956 	-0.00279073 	-0.000404611 	-0.142608
0.0069728 	-0.000157034 	2.11676e-05 	-0.0940442
0.0069728 	-0.00260925 	-0.000363542 	-0.130622
0.0070251 	-0.000177817 	1.79849e-05 	-0.0842044
0.0070251 	-0.00242733 	-0.000322217 	-0.117701
0.00707647 	-0.000188066 	1.51407e-05 	-0.074245
0.00707647 	-0.00225856 	-0.00028143 	-0.104072
0.00712695 	-0.000189215 	1.24637e-05 	-0.0643636
0.00712695 	-0.00210909 	-0.000242122 	-0.0900987
0.00717653 	-0.000183102 	9.75847e-06 	-0.054741
0.00717653 	-0.00197371 	-0.000205329 	-0.0762048
0.00722524 	-0.000171426 	6.99552e-06 	-0.0455113
0.00722524 	-0.00183268 	-0.000170436 	-0.0627686
0.00727309 	-0.000155601 	4.24696e-06 	-0.0367569
0.00727309 	-0.00165066 	-0.000137932 	-0.0500616
0.0073201 	-0.000137002 	1.68069e-06 	-0.0285283
0.0073201 	-0.00137318 	-0.000111575 	-0.0382687
0.00736628 	-0.000117324 	-4.31981e-07 	-0.0208793
0.00736628 	-0.000915082 	-6.96817e-05 	-0.0275708
0.00741165 	-9.29006e-05 	-1.28031e-06 	-0.0137608
0.00741165 	-0.000325846 	-4.71527e-05 	-0.0179893
0.00745622 	-5.40253e-05 	-1.10526e-06 	-0.00689807
0.00745622 	6.88022e-05 	-2.48646e-05 	-0.00903546
0.0075 	0 	0 	0
0.0075 	0 	0 	0
