/*--------------------------------*- C++ -*----------------------------------*\
| =========                 |                                                 |
| \\      /  F ield         | OpenFOAM: The Open Source CFD Toolbox           |
|  \\    /   O peration     | Version:  v1912                                 |
|   \\  /    A nd           | Website:  www.openfoam.com                      |
|    \\/     M anipulation  |                                                 |
\*---------------------------------------------------------------------------*/
FoamFile
{
    version     2.0;
    format      ascii;
    class       volScalarField;
    location    "8.8";
    object      heatTransferCoeff(T);
}
// * * * * * * * * * * * * * * * * * * * * * * * * * * * * * * * * * * * * * //

dimensions      [1 0 -3 -1 0 0 0];


internalField   uniform 0;

boundaryField
{
    leftWall
    {
        type            calculated;
        value           nonuniform List<scalar> 
216
(
-164.288
-167.131
-167.916
-170.709
-172.258
-175.043
-177.274
-180.045
-182.9
-185.65
-189.084
-191.824
-195.823
-198.621
-203.266
-206.322
-211.864
-215.537
-164.934
-167.462
-168.19
-170.717
-172.183
-174.765
-176.925
-179.569
-182.37
-185.067
-188.437
-191.164
-195.042
-197.816
-202.235
-205.213
-210.392
-213.909
-165.556
-167.216
-167.772
-169.479
-170.664
-172.509
-174.373
-176.444
-179.039
-181.427
-184.793
-187.549
-191.695
-194.841
-199.772
-203.365
-209.156
-213.355
-166.417
-167.927
-168.475
-170.042
-171.225
-172.94
-174.786
-176.737
-179.295
-181.573
-184.914
-187.605
-191.81
-195.025
-200.216
-204.119
-210.489
-215.299
-166.761
-168.753
-169.311
-171.269
-172.463
-174.44
-176.225
-178.274
-180.663
-182.859
-185.934
-188.4
-192.288
-195.182
-200.037
-203.506
-209.475
-213.638
-166.753
-169.187
-169.746
-172.077
-173.274
-175.554
-177.327
-179.609
-181.974
-184.339
-187.376
-189.937
-193.755
-196.61
-201.284
-204.462
-209.982
-213.448
-166.652
-169.196
-169.827
-172.3
-173.615
-176.081
-178.014
-180.517
-183.056
-185.642
-188.822
-191.545
-195.429
-198.335
-202.977
-206.102
-211.521
-214.897
-165.411
-167.882
-168.604
-171.064
-172.522
-175.018
-177.137
-179.678
-182.405
-184.997
-188.323
-190.992
-194.968
-197.79
-202.525
-205.641
-211.29
-214.886
-162.852
-164.868
-165.616
-167.705
-169.262
-171.501
-173.837
-176.26
-179.339
-181.955
-185.75
-188.565
-193.082
-196.143
-201.457
-204.902
-211.193
-215.266
-162.977
-164.661
-165.319
-167.076
-168.504
-170.437
-172.644
-174.828
-177.841
-180.344
-184.191
-187.072
-191.784
-195.085
-200.683
-204.451
-210.968
-215.268
-164.737
-166.743
-167.437
-169.504
-170.988
-173.22
-175.48
-177.925
-180.951
-183.633
-187.403
-190.333
-194.819
-198.018
-203.221
-206.749
-212.72
-216.674
-164.246
-166.569
-167.336
-169.7
-171.281
-173.774
-176.106
-178.735
-181.765
-184.513
-188.196
-191.067
-195.398
-198.47
-203.54
-206.974
-212.918
-216.859
)
;
    }
    rightWall
    {
        type            calculated;
        value           nonuniform List<scalar> 
216
(
-167.211
-169.151
-169.425
-171.386
-171.997
-174.016
-174.967
-177.077
-178.392
-180.635
-182.37
-184.801
-187.043
-189.737
-192.587
-195.632
-199.201
-202.706
-166.113
-167.974
-168.291
-170.242
-170.964
-173.036
-174.194
-176.416
-178.025
-180.431
-182.507
-185.126
-187.696
-190.549
-193.643
-196.75
-200.417
-203.815
-166.397
-168.251
-168.618
-170.588
-171.394
-173.519
-174.79
-177.094
-178.832
-181.334
-183.53
-186.231
-188.875
-191.756
-194.846
-197.894
-201.458
-204.698
-167.21
-169.102
-169.432
-171.385
-172.091
-174.141
-175.228
-177.399
-178.88
-181.194
-183.082
-185.562
-187.882
-190.547
-193.354
-196.252
-199.637
-202.864
-166.621
-168.568
-168.903
-170.855
-171.548
-173.55
-174.58
-176.668
-178.047
-180.254
-182.022
-184.396
-186.616
-189.221
-191.996
-194.926
-198.385
-201.769
-165.578
-167.433
-167.789
-169.656
-170.386
-172.323
-173.41
-175.463
-176.923
-179.135
-181.015
-183.44
-185.813
-188.521
-191.491
-194.579
-198.275
-201.865
-165.613
-167.363
-167.688
-169.484
-170.152
-172.043
-173.058
-175.069
-176.452
-178.608
-180.397
-182.745
-185.002
-187.612
-190.431
-193.402
-196.917
-200.395
-165.01
-166.957
-167.303
-169.323
-170.029
-172.164
-173.237
-175.491
-176.945
-179.325
-181.182
-183.719
-186.022
-188.769
-191.588
-194.618
-198.051
-201.473
-164.145
-166.268
-166.642
-168.851
-169.615
-171.939
-173.096
-175.533
-177.088
-179.641
-181.606
-184.295
-186.695
-189.548
-192.428
-195.48
-198.902
-202.222
-164.668
-166.64
-167.03
-169.106
-169.895
-172.1
-173.303
-175.645
-177.274
-179.765
-181.836
-184.494
-187.028
-189.87
-192.897
-195.937
-199.509
-202.806
-166.844
-168.77
-169.146
-171.154
-171.916
-174.039
-175.2
-177.455
-179.036
-181.446
-183.482
-186.081
-188.621
-191.454
-194.57
-197.698
-201.492
-205.016
-168.117
-170.055
-170.356
-172.338
-172.986
-175.043
-176.05
-178.207
-179.599
-181.893
-183.717
-186.201
-188.53
-191.268
-194.197
-197.261
-200.906
-204.388
)
;
    }
    leftSides_periodic0
    {
        type            cyclic;
    }
    leftSides_periodic1
    {
        type            cyclic;
    }
    rightSides_periodic0
    {
        type            cyclic;
    }
    rightSides_periodic1
    {
        type            cyclic;
    }
    leftInOut_periodic0
    {
        type            calculated;
        value           uniform 0;
    }
    leftInOut_periodic1
    {
        type            calculated;
        value           nonuniform 0();
    }
    rightInOut_periodic0
    {
        type            calculated;
        value           uniform 0;
    }
    rightInOut_periodic1
    {
        type            calculated;
        value           nonuniform 0();
    }
    procBoundary0to1
    {
        type            processor;
        value           uniform 0;
    }
    procBoundary0to2throughleftSides_periodic1
    {
        type            processorCyclic;
        value           uniform 0;
    }
    procBoundary0to2throughrightSides_periodic1
    {
        type            processorCyclic;
        value           uniform 0;
    }
    procBoundary0to3
    {
        type            processor;
        value           uniform 0;
    }
}


// ************************************************************************* //
