-0.0075 	0 	0 	0
-0.0075 	5.15924e-34 	5.75289e-36 	-8.1397e-33
-0.00745622 	0.00067808 	7.56102e-06 	-0.010698
-0.00745622 	0.00067808 	7.56102e-06 	-0.010698
-0.00741165 	0.00077777 	1.47392e-05 	-0.0210808
-0.00741165 	0.00077777 	1.47392e-05 	-0.0210808
-0.00736628 	0.000596979 	2.26156e-05 	-0.0315217
-0.00736628 	0.000596979 	2.26156e-05 	-0.0315217
-0.0073201 	0.000440251 	2.95537e-05 	-0.0421636
-0.0073201 	0.000440251 	2.95537e-05 	-0.0421636
-0.00727309 	0.000345106 	3.64655e-05 	-0.0528536
-0.00727309 	0.000345106 	3.64655e-05 	-0.0528536
-0.00722524 	0.00026165 	4.36791e-05 	-0.0634273
-0.00722524 	0.00026165 	4.36791e-05 	-0.0634273
-0.00717653 	0.000170923 	5.1216e-05 	-0.0737725
-0.00717653 	0.000170923 	5.1216e-05 	-0.0737725
-0.00712695 	6.70403e-05 	5.89979e-05 	-0.0837913
-0.00712695 	6.70403e-05 	5.89979e-05 	-0.0837913
-0.00707647 	-4.99767e-05 	6.67946e-05 	-0.0934
-0.00707647 	-4.99767e-05 	6.67946e-05 	-0.0934
-0.0070251 	-0.000176415 	7.45551e-05 	-0.102539
-0.0070251 	-0.000176415 	7.45551e-05 	-0.102539
-0.0069728 	-0.000306436 	8.21355e-05 	-0.111181
-0.0069728 	-0.000306436 	8.21355e-05 	-0.111181
-0.00691956 	-0.000435353 	8.93632e-05 	-0.119335
-0.00691956 	-0.000435353 	8.93632e-05 	-0.119335
-0.00686537 	-0.000561364 	9.62381e-05 	-0.127029
-0.00686537 	-0.000561364 	9.62381e-05 	-0.127029
-0.00681021 	-0.000685086 	0.000102825 	-0.134295
-0.00681021 	-0.000685086 	0.000102825 	-0.134295
-0.00675406 	-0.000807682 	0.000109225 	-0.141169
-0.00675406 	-0.000807682 	0.000109225 	-0.141169
-0.0066969 	-0.00092903 	0.000115405 	-0.147682
-0.0066969 	-0.00092903 	0.000115405 	-0.147682
-0.00663871 	-0.00104833 	0.000121242 	-0.15386
-0.00663871 	-0.00104833 	0.000121242 	-0.15386
-0.00657949 	-0.00116492 	0.000126711 	-0.159725
-0.00657949 	-0.00116492 	0.000126711 	-0.159725
-0.0065192 	-0.00127822 	0.000131802 	-0.165298
-0.0065192 	-0.00127822 	0.000131802 	-0.165298
-0.00645783 	-0.00138766 	0.000136475 	-0.170599
-0.00645783 	-0.00138766 	0.000136475 	-0.170599
-0.00639535 	-0.00149272 	0.000140701 	-0.175645
-0.00639535 	-0.00149272 	0.000140701 	-0.175645
-0.00633176 	-0.00159287 	0.000144443 	-0.180451
-0.00633176 	-0.00159287 	0.000144443 	-0.180451
-0.00626703 	-0.00168757 	0.000147663 	-0.185034
-0.00626703 	-0.00168757 	0.000147663 	-0.185034
-0.00620114 	-0.00177637 	0.000150319 	-0.189406
-0.00620114 	-0.00177637 	0.000150319 	-0.189406
-0.00613406 	-0.00185923 	0.00015234 	-0.193581
-0.00613406 	-0.00185923 	0.00015234 	-0.193581
-0.00606579 	-0.00193719 	0.000153734 	-0.197574
-0.00606579 	-0.00193719 	0.000153734 	-0.197574
-0.00599629 	-0.00201255 	0.000154796 	-0.201396
-0.00599629 	-0.00201255 	0.000154796 	-0.201396
-0.00592554 	-0.00208764 	0.00015595 	-0.205049
-0.00592554 	-0.00208764 	0.00015595 	-0.205049
-0.00585352 	-0.00216256 	0.000157012 	-0.20853
-0.00585352 	-0.00216256 	0.000157012 	-0.20853
-0.00578022 	-0.00223402 	0.000156746 	-0.211833
-0.00578022 	-0.00223402 	0.000156746 	-0.211833
-0.00570559 	-0.00229637 	0.0001543 	-0.214964
-0.00570559 	-0.00229637 	0.0001543 	-0.214964
-0.00562963 	-0.00234436 	0.000150567 	-0.217944
-0.00562963 	-0.00234436 	0.000150567 	-0.217944
-0.00555231 	-0.00237588 	0.000146773 	-0.220808
-0.00555231 	-0.00237588 	0.000146773 	-0.220808
-0.0054736 	-0.00239209 	0.000142897 	-0.223586
-0.0054736 	-0.00239209 	0.000142897 	-0.223586
-0.00539348 	-0.00239598 	0.000137277 	-0.226297
-0.00539348 	-0.00239598 	0.000137277 	-0.226297
-0.00531193 	-0.00239101 	0.000130471 	-0.228949
-0.00531193 	-0.00239101 	0.000130471 	-0.228949
-0.00522891 	-0.00237194 	0.000128767 	-0.231546
-0.00522891 	-0.00237194 	0.000128767 	-0.231546
-0.0051444 	-0.00230877 	0.000132529 	-0.234103
-0.0051444 	-0.00230877 	0.000132529 	-0.234103
-0.00505838 	-0.00216116 	0.000128377 	-0.236672
-0.00505838 	-0.00216116 	0.000128377 	-0.236672
-0.00497081 	-0.00192271 	0.000106591 	-0.239311
-0.00497081 	-0.00192271 	0.000106591 	-0.239311
-0.00488168 	-0.0016601 	8.36968e-05 	-0.241945
-0.00488168 	-0.0016601 	8.36968e-05 	-0.241945
-0.00479094 	-0.00148513 	8.83088e-05 	-0.24435
-0.00479094 	-0.00148513 	8.83088e-05 	-0.24435
-0.00469858 	-0.00142341 	0.000110706 	-0.246446
-0.00469858 	-0.00142341 	0.000110706 	-0.246446
-0.00460456 	-0.00139186 	0.000116458 	-0.248387
-0.00460456 	-0.00139186 	0.000116458 	-0.248387
-0.00450886 	-0.00131659 	0.00010204 	-0.250359
-0.00450886 	-0.00131659 	0.00010204 	-0.250359
-0.00441144 	-0.00118988 	9.66047e-05 	-0.252501
-0.00441144 	-0.00118988 	9.66047e-05 	-0.252501
-0.00431227 	-0.00104138 	0.000113494 	-0.254845
-0.00431227 	-0.00104138 	0.000113494 	-0.254845
-0.00421133 	-0.000895572 	0.000118735 	-0.257176
-0.00421133 	-0.000895572 	0.000118735 	-0.257176
-0.00410857 	-0.00076139 	0.000103071 	-0.259254
-0.00410857 	-0.00076139 	0.000103071 	-0.259254
-0.00400397 	-0.000632568 	0.00010015 	-0.261089
-0.00400397 	-0.000632568 	0.00010015 	-0.261089
-0.0038975 	-0.000495917 	0.000113037 	-0.26278
-0.0038975 	-0.000495917 	0.000113037 	-0.26278
-0.00378912 	-0.000347893 	0.00012131 	-0.264361
-0.00378912 	-0.000347893 	0.00012131 	-0.264361
-0.00367879 	-0.000192437 	0.000116553 	-0.265859
-0.00367879 	-0.000192437 	0.000116553 	-0.265859
-0.00356649 	-2.8587e-05 	0.000104572 	-0.267401
-0.00356649 	-2.8587e-05 	0.000104572 	-0.267401
-0.00345217 	0.00014538 	0.000114544 	-0.269177
-0.00345217 	0.00014538 	0.000114544 	-0.269177
-0.0033358 	0.000332187 	0.000159093 	-0.271257
-0.0033358 	0.000332187 	0.000159093 	-0.271257
-0.00321735 	0.000528615 	0.000181341 	-0.273278
-0.00321735 	0.000528615 	0.000181341 	-0.273278
-0.00309677 	0.000719417 	0.000159707 	-0.275
-0.00309677 	0.000719417 	0.000159707 	-0.275
-0.00297403 	0.00089187 	0.000149756 	-0.276733
-0.00297403 	0.00089187 	0.000149756 	-0.276733
-0.00284909 	0.00104677 	0.000166842 	-0.278583
-0.00284909 	0.00104677 	0.000166842 	-0.278583
-0.0027219 	0.00119564 	0.000185399 	-0.280266
-0.0027219 	0.00119564 	0.000185399 	-0.280266
-0.00259244 	0.001346 	0.000198575 	-0.281624
-0.00259244 	0.001346 	0.000198575 	-0.281624
-0.00246065 	0.00149672 	0.000208017 	-0.282759
-0.00246065 	0.00149672 	0.000208017 	-0.282759
-0.00232651 	0.00164347 	0.000216126 	-0.283792
-0.00232651 	0.00164347 	0.000216126 	-0.283792
-0.00218995 	0.00178393 	0.000226718 	-0.284773
-0.00218995 	0.00178393 	0.000226718 	-0.284773
-0.00205095 	0.00191841 	0.0002392 	-0.28571
-0.00205095 	0.00191841 	0.0002392 	-0.28571
-0.00190946 	0.00204679 	0.000253507 	-0.286603
-0.00190946 	0.00204679 	0.000253507 	-0.286603
-0.00176543 	0.00216829 	0.000269832 	-0.287451
-0.00176543 	0.00216829 	0.000269832 	-0.287451
-0.00161881 	0.00228162 	0.000287906 	-0.288253
-0.00161881 	0.00228162 	0.000287906 	-0.288253
-0.00146957 	0.00238396 	0.000304496 	-0.288998
-0.00146957 	0.00238396 	0.000304496 	-0.288998
-0.00131765 	0.00248551 	0.000330924 	-0.289716
-0.00131765 	0.00248551 	0.000330924 	-0.289716
-0.001163 	0.00262234 	0.000380227 	-0.290581
-0.001163 	0.00262234 	0.000380227 	-0.290581
-0.00100559 	0.00282496 	0.000398153 	-0.29185
-0.00100559 	0.00282496 	0.000398153 	-0.29185
-0.000845345 	0.00308805 	0.000360426 	-0.293552
-0.000845345 	0.00308805 	0.000360426 	-0.293552
-0.000682232 	0.00330133 	0.000388695 	-0.294922
-0.000682232 	0.00330133 	0.000388695 	-0.294922
-0.000516194 	0.00338995 	0.000490612 	-0.295496
-0.000516194 	0.00338995 	0.000490612 	-0.295496
-0.000347178 	0.00341831 	0.000549832 	-0.295766
-0.000347178 	0.00341831 	0.000549832 	-0.295766
-0.000175132 	0.00343831 	0.0005848 	-0.296042
-0.000175132 	0.00343831 	0.0005848 	-0.296042
0 	0.00345204 	0.000631679 	-0.296277
0 	0.00345204 	0.000631679 	-0.296277
0 	0.00345204 	0.000631679 	-0.296277
0 	0.00345204 	0.000631679 	-0.296277
0.000175132 	0.00344441 	0.000678838 	-0.296365
0.000175132 	0.0223436 	0.00763652 	-0.298666
0.000347178 	0.00340979 	0.000729159 	-0.296298
0.000347178 	0.0219033 	0.00771524 	-0.29799
0.000516194 	0.00335134 	0.000769462 	-0.29611
0.000516194 	0.0213927 	0.00775984 	-0.29714
0.000682232 	0.00327441 	0.000802232 	-0.295815
0.000682232 	0.020829 	0.00778473 	-0.296187
0.000845345 	0.00318342 	0.000839063 	-0.295414
0.000845345 	0.0202205 	0.00780575 	-0.295144
0.00100559 	0.00308103 	0.000874429 	-0.294905
0.00100559 	0.0195741 	0.00782115 	-0.294014
0.001163 	0.00296971 	0.000911241 	-0.294281
0.001163 	0.0188989 	0.00785049 	-0.292768
0.00131765 	0.00284931 	0.000965474 	-0.293559
0.00131765 	0.0181852 	0.00799598 	-0.291568
0.00146957 	0.00271636 	0.00102775 	-0.292818
0.00146957 	0.0173997 	0.00819673 	-0.291089
0.00161881 	0.00256991 	0.00102751 	-0.292038
0.00161881 	0.0165117 	0.00800507 	-0.291435
0.00176543 	0.00241344 	0.000949711 	-0.290821
0.00176543 	0.0155056 	0.00736078 	-0.289997
0.00190946 	0.00226371 	0.000972847 	-0.288715
0.00190946 	0.0144763 	0.00736527 	-0.283261
0.00205095 	0.00214875 	0.00111635 	-0.286313
0.00205095 	0.0136319 	0.00799988 	-0.274908
0.00218995 	0.00206724 	0.00117398 	-0.284379
0.00218995 	0.0129944 	0.00812513 	-0.27045
0.00232651 	0.00197726 	0.00114695 	-0.28287
0.00232651 	0.0123199 	0.00788771 	-0.269482
0.00246065 	0.00185715 	0.00114337 	-0.281597
0.00246065 	0.011476 	0.00781092 	-0.269699
0.00259244 	0.00172229 	0.00116081 	-0.280385
0.00259244 	0.0105323 	0.00783987 	-0.269487
0.0027219 	0.00158684 	0.00117048 	-0.279147
0.0027219 	0.00954205 	0.00779165 	-0.26869
0.00284909 	0.00145357 	0.00117593 	-0.277866
0.00284909 	0.00852502 	0.00768633 	-0.26759
0.00297403 	0.001319 	0.00118006 	-0.276549
0.00297403 	0.00750213 	0.0075934 	-0.266361
0.00309677 	0.00118106 	0.00118217 	-0.275197
0.00309677 	0.00648352 	0.00751522 	-0.26507
0.00321735 	0.00104251 	0.00118273 	-0.273814
0.00321735 	0.00547289 	0.00742883 	-0.263727
0.0033358 	0.000904721 	0.0011838 	-0.272396
0.0033358 	0.00447002 	0.00734218 	-0.262327
0.00345217 	0.000762506 	0.00118215 	-0.270934
0.00345217 	0.00347053 	0.00724969 	-0.260852
0.00356649 	0.000614749 	0.00118216 	-0.269421
0.00356649 	0.00248352 	0.00718032 	-0.25927
0.00367879 	0.000460823 	0.00119695 	-0.267868
0.00367879 	0.00148843 	0.00719842 	-0.257627
0.00378912 	0.000398847 	0.00717405 	-0.256206
0.00378912 	0.000288795 	0.00121039 	-0.26631
0.0038975 	8.98548e-05 	0.00118811 	-0.26476
0.0038975 	-0.00083455 	0.00689821 	-0.255215
0.00400397 	-0.000123045 	0.00112684 	-0.263128
0.00400397 	-0.00211328 	0.00641451 	-0.254067
0.00410857 	-0.000310349 	0.00108365 	-0.261266
0.00410857 	-0.00317773 	0.00613014 	-0.251601
0.00421133 	-0.000444148 	0.00110088 	-0.25919
0.00421133 	-0.0038679 	0.00627493 	-0.247769
0.00431227 	-0.000546665 	0.00113049 	-0.257108
0.00431227 	-0.00436165 	0.00647527 	-0.243972
0.00441144 	-0.000660639 	0.00112364 	-0.255139
0.00441144 	-0.0049576 	0.00640308 	-0.24114
0.00450886 	-0.000806596 	0.00108766 	-0.253244
0.00450886 	-0.00578794 	0.00614026 	-0.239065
0.00460456 	-0.000972727 	0.00105189 	-0.251344
0.00460456 	-0.00676008 	0.00590791 	-0.237264
0.00469858 	-0.00113847 	0.00102988 	-0.249398
0.00469858 	-0.00772808 	0.0057833 	-0.235476
0.00479094 	-0.00129812 	0.00100859 	-0.247396
0.00479094 	-0.00865255 	0.00566693 	-0.233655
0.00488168 	-0.00145389 	0.000982508 	-0.245335
0.00488168 	-0.00954781 	0.00552565 	-0.231817
0.00497081 	-0.00160729 	0.000955771 	-0.243211
0.00497081 	-0.0104235 	0.00538699 	-0.229963
0.00505838 	-0.00175923 	0.000928292 	-0.24102
0.00505838 	-0.011286 	0.00524958 	-0.228089
0.0051444 	-0.00191031 	0.000899747 	-0.238755
0.0051444 	-0.0121394 	0.00511082 	-0.226186
0.00522891 	-0.00206101 	0.000870123 	-0.236409
0.00522891 	-0.0129866 	0.00497007 	-0.224248
0.00531193 	-0.0138292 	0.00482748 	-0.222265
0.00531193 	-0.00221169 	0.000839471 	-0.233974
0.00539348 	-0.00236262 	0.000807909 	-0.231443
0.00539348 	-0.0146682 	0.00468337 	-0.220232
0.0054736 	-0.00251399 	0.000775667 	-0.228809
0.0054736 	-0.0155045 	0.00453831 	-0.218141
0.00555231 	-0.002666 	0.000742668 	-0.226066
0.00555231 	-0.0163391 	0.0043926 	-0.215987
0.00562963 	-0.00281893 	0.000708644 	-0.223208
0.00562963 	-0.0171737 	0.0042457 	-0.213765
0.00570559 	-0.00297321 	0.000673866 	-0.220225
0.00570559 	-0.0180091 	0.00409723 	-0.211468
0.00578022 	-0.00312906 	0.000638727 	-0.217104
0.00578022 	-0.0188452 	0.0039473 	-0.209082
0.00585352 	-0.0032863 	0.00060357 	-0.213829
0.00585352 	-0.0196801 	0.00379645 	-0.206597
0.00592554 	-0.0034442 	0.000568632 	-0.210383
0.00592554 	-0.0205109 	0.00364534 	-0.203999
0.00599629 	-0.00360159 	0.000533843 	-0.206748
0.00599629 	-0.0213344 	0.00349377 	-0.201273
0.00606579 	-0.022147 	0.00334155 	-0.198404
0.00606579 	-0.00375712 	0.000499349 	-0.202903
0.00613406 	-0.00390917 	0.000465214 	-0.198824
0.00613406 	-0.0229431 	0.00318875 	-0.195366
0.00620114 	-0.00405591 	0.000431328 	-0.194486
0.00620114 	-0.0237154 	0.00303553 	-0.19213
0.00626703 	-0.00419543 	0.000397848 	-0.189864
0.00626703 	-0.0244539 	0.00288208 	-0.188659
0.00633176 	-0.0043256 	0.00036506 	-0.18493
0.00633176 	-0.0251457 	0.00272833 	-0.184911
0.00639535 	-0.00444392 	0.000333096 	-0.179658
0.00639535 	-0.0257746 	0.00257399 	-0.180839
0.00645783 	-0.00454735 	0.000302029 	-0.174015
0.00645783 	-0.0263206 	0.0024191 	-0.176387
0.0065192 	-0.00463235 	0.000272028 	-0.167972
0.0065192 	-0.0267607 	0.00226409 	-0.171496
0.00657949 	-0.00469502 	0.000243273 	-0.161495
0.00657949 	-0.0270691 	0.00210959 	-0.166107
0.00663871 	-0.0047315 	0.000215973 	-0.154554
0.00663871 	-0.0272209 	0.00195652 	-0.160165
0.0066969 	-0.00473866 	0.000190273 	-0.147119
0.0066969 	-0.027197 	0.00180499 	-0.153623
0.00675406 	-0.00471333 	0.000166011 	-0.139164
0.00675406 	-0.0269788 	0.00165371 	-0.146434
0.00681021 	-0.0046509 	0.000143027 	-0.130656
0.00681021 	-0.0265379 	0.00150168 	-0.138528
0.00686537 	-0.00454503 	0.000121629 	-0.121577
0.00686537 	-0.0258315 	0.00135022 	-0.12982
0.00691956 	-0.00438794 	0.000102485 	-0.111945
0.00691956 	-0.0248086 	0.00120205 	-0.120255
0.0069728 	-0.00417194 	8.5858e-05 	-0.101817
0.0069728 	-0.023428 	0.00105857 	-0.109854
0.0070251 	-0.00389213 	7.1352e-05 	-0.0912998
0.0070251 	-0.0216782 	0.000920235 	-0.098726
0.00707647 	-0.00354873 	5.85256e-05 	-0.080561
0.00707647 	-0.0195887 	0.000788111 	-0.0870827
0.00712695 	-0.00314981 	4.70742e-05 	-0.0698112
0.00712695 	-0.0172331 	0.000663334 	-0.0752104
0.00717653 	-0.00271294 	3.67616e-05 	-0.0592681
0.00717653 	-0.0147243 	0.000546497 	-0.0634229
0.00722524 	-0.00226416 	2.74286e-05 	-0.0491169
0.00722524 	-0.0122022 	0.000436615 	-0.0520092
0.00727309 	-0.00183652 	1.91141e-05 	-0.0394831
0.00727309 	-0.00982665 	0.000335277 	-0.0412142
0.0073201 	-0.00147088 	1.21112e-05 	-0.0304336
0.0073201 	-0.00778828 	0.00025073 	-0.0312701
0.00736628 	-0.00122097 	5.75666e-06 	-0.0220169
0.00736628 	-0.0063416 	0.000144983 	-0.0224818
0.00741165 	-0.00103018 	2.10677e-06 	-0.0142403
0.00741165 	-0.00522441 	8.80505e-05 	-0.0149037
0.00745622 	-0.000667327 	3.62168e-07 	-0.00697198
0.00745622 	-0.00332839 	4.11924e-05 	-0.00776256
0.0075 	0 	0 	0
0.0075 	0 	0 	0
