0 	0 	0 	0
5.01672e-05 	0.00069236 	8.58929e-06 	-0.0121853
0.000100334 	0.000730015 	1.68197e-05 	-0.0238387
0.000150502 	0.000540019 	2.51371e-05 	-0.0353893
0.000200669 	0.000398213 	3.26075e-05 	-0.0468868
0.000250836 	0.000303374 	4.00727e-05 	-0.058141
0.000301003 	0.000212768 	4.77399e-05 	-0.0690011
0.000351171 	0.000112886 	5.55636e-05 	-0.0793698
0.000401338 	1.46283e-06 	6.33673e-05 	-0.0891761
0.000451505 	-0.000118835 	7.1021e-05 	-0.098377
0.000501672 	-0.000242968 	7.84353e-05 	-0.106962
0.000551839 	-0.0003661 	8.54805e-05 	-0.114954
0.000602007 	-0.000485508 	9.20995e-05 	-0.122397
0.000652174 	-0.000600714 	9.83331e-05 	-0.12934
0.000702341 	-0.000712483 	0.000104255 	-0.135831
0.000752508 	-0.000821616 	0.000109935 	-0.141917
0.000802676 	-0.000928122 	0.000115359 	-0.147633
0.000852843 	-0.00103102 	0.000120394 	-0.152964
0.00090301 	-0.00113047 	0.000125095 	-0.157992
0.000953177 	-0.0012263 	0.00012947 	-0.162745
0.00100334 	-0.00131841 	0.000133519 	-0.167245
0.00105351 	-0.00140673 	0.000137242 	-0.171515
0.00110368 	-0.0014911 	0.000140636 	-0.175567
0.00115385 	-0.00157021 	0.000143596 	-0.179364
0.00120401 	-0.00164521 	0.000146222 	-0.182984
0.00125418 	-0.00171616 	0.000148518 	-0.186441
0.00130435 	-0.00178315 	0.000150484 	-0.189747
0.00135452 	-0.00184513 	0.000151996 	-0.19287
0.00140468 	-0.00190347 	0.000153131 	-0.195847
0.00145485 	-0.00195957 	0.00015405 	-0.198709
0.00150502 	-0.00201394 	0.000154818 	-0.201463
0.00155518 	-0.00206718 	0.000155636 	-0.204054
0.00160535 	-0.00211978 	0.000156405 	-0.206542
0.00165552 	-0.00217138 	0.000156979 	-0.208937
0.00170569 	-0.00222028 	0.000156798 	-0.211198
0.00175585 	-0.00226416 	0.000155565 	-0.213346
0.00180602 	-0.00230371 	0.00015373 	-0.21542
0.00185619 	-0.0023354 	0.000151264 	-0.217388
0.00190635 	-0.00235903 	0.000148801 	-0.219277
0.00195652 	-0.0023777 	0.000146338 	-0.22112
0.00200669 	-0.00238803 	0.000143867 	-0.22289
0.00205686 	-0.00239357 	0.000140759 	-0.224617
0.00210702 	-0.00239595 	0.000137232 	-0.226313
0.00215719 	-0.00239289 	0.000133047 	-0.227945
0.00220736 	-0.00238658 	0.000130075 	-0.229552
0.00225753 	-0.00237505 	0.000129046 	-0.231122
0.00230769 	-0.00234458 	0.000130397 	-0.232653
0.00235786 	-0.0023049 	0.00013242 	-0.23417
0.00240803 	-0.00221881 	0.000129999 	-0.235669
0.00245819 	-0.00211604 	0.000124254 	-0.237171
0.00250836 	-0.00197943 	0.000111773 	-0.238683
0.00255853 	-0.00183627 	9.90558e-05 	-0.240178
0.0026087 	-0.00168847 	8.61703e-05 	-0.24166
0.00265886 	-0.00158193 	8.57577e-05 	-0.243019
0.00270903 	-0.00148518 	8.83077e-05 	-0.244349
0.0027592 	-0.00145163 	0.000100467 	-0.245488
0.00280936 	-0.00142075 	0.000111192 	-0.246611
0.00285953 	-0.00140391 	0.00011426 	-0.247646
0.0029097 	-0.00138064 	0.000114308 	-0.24868
0.00295987 	-0.00134119 	0.000106751 	-0.249714
0.00301003 	-0.00129202 	0.000100985 	-0.250774
0.0030602 	-0.00122677 	9.81865e-05 	-0.251877
0.00311037 	-0.00115722 	0.000100318 	-0.253016
0.00316054 	-0.0010821 	0.000108862 	-0.254202
0.0032107 	-0.00100819 	0.000114686 	-0.255376
0.00326087 	-0.000935731 	0.000117291 	-0.256534
0.00331104 	-0.000866367 	0.000115326 	-0.257628
0.0033612 	-0.000800857 	0.000107678 	-0.258643
0.00341137 	-0.000736828 	0.000102514 	-0.259603
0.00346154 	-0.000675042 	0.000101113 	-0.260484
0.00351171 	-0.000612444 	0.000102048 	-0.261338
0.00356187 	-0.000548058 	0.00010812 	-0.262135
0.00361204 	-0.000482886 	0.000113765 	-0.262919
0.00366221 	-0.00041437 	0.000117595 	-0.263651
0.00371237 	-0.000345789 	0.000121246 	-0.264382
0.00376254 	-0.000275101 	0.000119083 	-0.265062
0.00381271 	-0.000204413 	0.000116919 	-0.265743
0.00386288 	-0.000131644 	0.000112107 	-0.266431
0.00391304 	-5.84503e-05 	0.000106755 	-0.26712
0.00396321 	1.66078e-05 	0.000107162 	-0.267862
0.00401338 	9.29511e-05 	0.000111539 	-0.268642
0.00406355 	0.000170607 	0.00012056 	-0.269458
0.00411371 	0.000251141 	0.000139766 	-0.270355
0.00416388 	0.000331675 	0.000158972 	-0.271251
0.00421405 	0.000414849 	0.000168456 	-0.272108
0.00426421 	0.000498039 	0.000177878 	-0.272964
0.00431438 	0.000578821 	0.000175648 	-0.273732
0.00436455 	0.000658205 	0.000166647 	-0.274448
0.00441472 	0.000735552 	0.000158776 	-0.275162
0.00446488 	0.000806038 	0.000154709 	-0.27587
0.00451505 	0.000876525 	0.000150642 	-0.276578
0.00456522 	0.000940526 	0.000155123 	-0.277314
0.00461538 	0.00100272 	0.000161982 	-0.278057
0.00466555 	0.00106391 	0.000168977 	-0.278777
0.00471572 	0.00112263 	0.000176297 	-0.279441
0.00476589 	0.00118135 	0.000183617 	-0.280105
0.00481605 	0.00123973 	0.000189262 	-0.280665
0.00486622 	0.00129799 	0.000194368 	-0.281191
0.00491639 	0.0013561 	0.000199208 	-0.2817
0.00496656 	0.00141347 	0.000202802 	-0.282133
0.00501672 	0.00147085 	0.000206397 	-0.282565
0.00506689 	0.00152685 	0.000209682 	-0.282972
0.00511706 	0.00158173 	0.000212715 	-0.283358
0.00516722 	0.00163661 	0.000215747 	-0.283744
0.00521739 	0.00168862 	0.000219531 	-0.284108
0.00526756 	0.00174022 	0.000223422 	-0.284468
0.00531773 	0.00179136 	0.000227408 	-0.284825
0.00536789 	0.00183989 	0.000231912 	-0.285163
0.00541806 	0.00188842 	0.000236416 	-0.285502
0.00546823 	0.00193581 	0.000241138 	-0.285832
0.00551839 	0.00198133 	0.000246211 	-0.286148
0.00556856 	0.00202685 	0.000251283 	-0.286465
0.00561873 	0.00207057 	0.000256701 	-0.286769
0.0056689 	0.00211289 	0.000262387 	-0.287064
0.00571906 	0.0021552 	0.000268074 	-0.28736
0.00576923 	0.00219507 	0.000274105 	-0.287641
0.0058194 	0.00223385 	0.000280289 	-0.287915
0.00586957 	0.00227263 	0.000286474 	-0.288189
0.00591973 	0.00230805 	0.000292191 	-0.288445
0.0059699 	0.00234245 	0.000297768 	-0.288696
0.00602007 	0.00237685 	0.000303344 	-0.288946
0.00607023 	0.00241057 	0.00031142 	-0.289186
0.0061204 	0.0024441 	0.000320147 	-0.289423
0.00617057 	0.00247764 	0.000328874 	-0.28966
0.00622074 	0.00251948 	0.000343161 	-0.289931
0.0062709 	0.00256386 	0.000359155 	-0.290211
0.00632107 	0.00260825 	0.000375149 	-0.290492
0.00637124 	0.00266642 	0.000384126 	-0.290858
0.0064214 	0.00273099 	0.000389838 	-0.291262
0.00647157 	0.00279556 	0.000395551 	-0.291666
0.00652174 	0.00286982 	0.000391719 	-0.29214
0.00657191 	0.00295219 	0.000379908 	-0.292673
0.00662207 	0.00303456 	0.000368096 	-0.293206
0.00667224 	0.00311105 	0.000363473 	-0.293699
0.00672241 	0.00317665 	0.000372168 	-0.294121
0.00677258 	0.00324224 	0.000380863 	-0.294542
0.00682274 	0.00330399 	0.000391749 	-0.294939
0.00687291 	0.00333076 	0.000422542 	-0.295112
0.00692308 	0.00335753 	0.000453336 	-0.295286
0.00697324 	0.00338431 	0.00048413 	-0.295459
0.00702341 	0.00339659 	0.00050449 	-0.295559
0.00707358 	0.00340501 	0.000522067 	-0.295639
0.00712375 	0.00341343 	0.000539645 	-0.295719
0.00717391 	0.00342076 	0.000554119 	-0.2958
0.00722408 	0.00342659 	0.000564315 	-0.29588
0.00727425 	0.00343242 	0.000574512 	-0.295961
0.00732441 	0.00343825 	0.000584708 	-0.296042
0.00737458 	0.0034422 	0.000598108 	-0.296109
0.00742475 	0.00344613 	0.000611536 	-0.296176
0.00747492 	0.00345007 	0.000624964 	-0.296244
0.00752508 	0.00345094 	0.000638433 	-0.29629
0.00757525 	0.00344876 	0.000651942 	-0.296315
0.00762542 	0.00344657 	0.000665451 	-0.29634
0.00767559 	0.00344431 	0.000678971 	-0.296364
0.00772575 	0.00343422 	0.000693644 	-0.296345
0.00777592 	0.00342413 	0.000708317 	-0.296326
0.00782609 	0.00341404 	0.00072299 	-0.296306
0.00787625 	0.00339974 	0.000736092 	-0.296266
0.00792642 	0.00338239 	0.000748054 	-0.29621
0.00797659 	0.00336504 	0.000760017 	-0.296154
0.00802676 	0.00334645 	0.000771545 	-0.296091
0.00807692 	0.00332321 	0.000781447 	-0.296002
0.00812709 	0.00329997 	0.000791348 	-0.295913
0.00817726 	0.00327672 	0.000801249 	-0.295824
0.00822742 	0.0032492 	0.000812436 	-0.295704
0.00827759 	0.00322122 	0.000823763 	-0.295581
0.00832776 	0.00319323 	0.000835091 	-0.295457
0.00837793 	0.0031626 	0.000846253 	-0.29531
0.00842809 	0.00313055 	0.000857326 	-0.295151
0.00847826 	0.00309849 	0.000868398 	-0.294991
0.00852843 	0.00306488 	0.000879771 	-0.294814
0.0085786 	0.00302941 	0.000891502 	-0.294615
0.00862876 	0.00299393 	0.000903234 	-0.294416
0.00867893 	0.00295732 	0.000916827 	-0.294206
0.0087291 	0.00291826 	0.000934421 	-0.293972
0.00877926 	0.0028792 	0.000952014 	-0.293738
0.00882943 	0.002839 	0.000970306 	-0.293502
0.0088796 	0.0027951 	0.000990869 	-0.293257
0.00892977 	0.0027512 	0.00101143 	-0.293013
0.00897993 	0.00270619 	0.00102773 	-0.292764
0.0090301 	0.00265697 	0.00102765 	-0.292502
0.00908027 	0.00260774 	0.00102757 	-0.29224
0.00913043 	0.00255751 	0.00102135 	-0.291942
0.0091806 	0.00250397 	0.000994724 	-0.291525
0.00923077 	0.00245043 	0.000968102 	-0.291109
0.00928094 	0.00239732 	0.000952202 	-0.290594
0.0093311 	0.00234516 	0.000960261 	-0.289861
0.00938127 	0.00229301 	0.00096832 	-0.289127
0.00943144 	0.00224585 	0.000995141 	-0.288342
0.00948161 	0.00220509 	0.00104602 	-0.28749
0.00953177 	0.00216433 	0.0010969 	-0.286639
0.00958194 	0.00213058 	0.0011292 	-0.285882
0.00963211 	0.00210116 	0.00115 	-0.285184
0.00968227 	0.00207174 	0.0011708 	-0.284486
0.00973244 	0.00203924 	0.00116557 	-0.28391
0.00978261 	0.00200619 	0.00115564 	-0.283355
0.00983278 	0.00197165 	0.00114678 	-0.282811
0.00988294 	0.00192673 	0.00114544 	-0.282335
0.00993311 	0.00188181 	0.00114411 	-0.281859
0.00998328 	0.001834 	0.00114637 	-0.281389
0.0100334 	0.00178266 	0.00115301 	-0.280928
0.0100836 	0.00173133 	0.00115965 	-0.280466
0.0101338 	0.00167904 	0.0011639 	-0.27999
0.0101839 	0.00162655 	0.00116765 	-0.27951
0.0102341 	0.00157405 	0.001171 	-0.279024
0.0102843 	0.00152148 	0.00117315 	-0.278519
0.0103344 	0.0014689 	0.0011753 	-0.278014
0.0103846 	0.0014153 	0.00117711 	-0.277492
0.0104348 	0.00136127 	0.00117877 	-0.276962
0.0104849 	0.00130672 	0.00118025 	-0.276428
0.0105351 	0.00125034 	0.00118111 	-0.275876
0.0105853 	0.00119396 	0.00118197 	-0.275323
0.0106355 	0.00113661 	0.00118235 	-0.274753
0.0106856 	0.00107897 	0.00118258 	-0.274178
0.0107358 	0.00102106 	0.0011829 	-0.273593
0.010786 	0.000962705 	0.00118335 	-0.272993
0.0108361 	0.000904332 	0.0011838 	-0.272392
0.0108863 	0.000843022 	0.00118309 	-0.271762
0.0109365 	0.000781711 	0.00118237 	-0.271131
0.0109866 	0.000717976 	0.00118215 	-0.270478
0.0110368 	0.000653135 	0.00118216 	-0.269814
0.011087 	0.000586695 	0.00118486 	-0.269138
0.0111371 	0.000517935 	0.00119147 	-0.268445
0.0111873 	0.000447573 	0.00119799 	-0.267748
0.0112375 	0.000369349 	0.0012041 	-0.26704
0.0112876 	0.000291125 	0.00121021 	-0.266331
0.0113378 	0.000199453 	0.00120039 	-0.265614
0.011388 	0.000107369 	0.00119007 	-0.264896
0.0114381 	8.62098e-06 	0.00116473 	-0.264137
0.0114883 	-9.16918e-05 	0.00113586 	-0.263368
0.0115385 	-0.000184802 	0.0011126 	-0.262514
0.0115886 	-0.000274637 	0.00109188 	-0.261621
0.0116388 	-0.000349705 	0.00108871 	-0.260655
0.011689 	-0.000415029 	0.00109713 	-0.259642
0.0117391 	-0.000472385 	0.00110903 	-0.258617
0.0117893 	-0.000523334 	0.00112375 	-0.257581
0.0118395 	-0.000577919 	0.00112861 	-0.256568
0.0118896 	-0.000635577 	0.00112515 	-0.255572
0.0119398 	-0.00070313 	0.00111317 	-0.254587
0.01199 	-0.000778293 	0.00109464 	-0.253611
0.0120401 	-0.000860887 	0.00107597 	-0.252623
0.0120903 	-0.000947972 	0.00105722 	-0.251627
0.0121405 	-0.00103602 	0.00104348 	-0.250601
0.0121906 	-0.00112446 	0.00103174 	-0.249563
0.0122408 	-0.00121145 	0.00102015 	-0.248483
0.012291 	-0.00129817 	0.00100858 	-0.247395
0.0123411 	-0.0013843 	0.000994161 	-0.246256
0.0123913 	-0.00147046 	0.000979619 	-0.245105
0.0124415 	-0.0015568 	0.000964571 	-0.24391
0.0124916 	-0.00164343 	0.000949235 	-0.242689
0.0125418 	-0.00173047 	0.000933492 	-0.241434
0.012592 	-0.00181823 	0.000917143 	-0.240135
0.0126421 	-0.00190634 	0.000900496 	-0.238814
0.0126923 	-0.00199574 	0.000882952 	-0.237425
0.0127425 	-0.00208563 	0.000865114 	-0.236011
0.0127926 	-0.00217669 	0.000846592 	-0.23454
0.0128428 	-0.00226884 	0.00082752 	-0.233016
0.012893 	-0.00236168 	0.000808105 	-0.231458
0.0129431 	-0.00245644 	0.000787925 	-0.22981
0.0129933 	-0.00255205 	0.000767405 	-0.228122
0.0130435 	-0.00264893 	0.000746372 	-0.226374
0.0130936 	-0.00274775 	0.000724481 	-0.224538
0.0131438 	-0.00284773 	0.000702153 	-0.222651
0.013194 	-0.00294963 	0.000679184 	-0.220681
0.0132441 	-0.00305373 	0.000655712 	-0.218612
0.0132943 	-0.0031593 	0.000631966 	-0.216474
0.0133445 	-0.0032669 	0.000607907 	-0.214233
0.0133946 	-0.00337647 	0.000583619 	-0.211861
0.0134448 	-0.00348708 	0.000559153 	-0.209393
0.013495 	-0.00359869 	0.000534484 	-0.206815
0.0135452 	-0.00371094 	0.000509592 	-0.204044
0.0135953 	-0.00382288 	0.000484585 	-0.201139
0.0136455 	-0.00393415 	0.000459444 	-0.198085
0.0136957 	-0.00404391 	0.000434099 	-0.194841
0.0137458 	-0.00415052 	0.000408626 	-0.191352
0.013796 	-0.00425366 	0.000383181 	-0.187657
0.0138462 	-0.00435238 	0.000357826 	-0.183737
0.0138963 	-0.00444552 	0.000332616 	-0.17957
0.0139465 	-0.00452858 	0.000307667 	-0.175039
0.0139967 	-0.00460113 	0.000283047 	-0.170192
0.0140468 	-0.00466107 	0.000258851 	-0.165004
0.014097 	-0.0047058 	0.000235204 	-0.159443
0.0141472 	-0.00473254 	0.000212243 	-0.153475
0.0141973 	-0.00473848 	0.000190091 	-0.14706
0.0142475 	-0.00471624 	0.000168797 	-0.140078
0.0142977 	-0.00466485 	0.000148164 	-0.132557
0.0143478 	-0.0045787 	0.000128435 	-0.124465
0.014398 	-0.00445046 	0.000110104 	-0.115779
0.0144482 	-0.00427191 	9.35529e-05 	-0.106504
0.0144983 	-0.00403536 	7.8777e-05 	-0.0966831
0.0145485 	-0.00373575 	6.55108e-05 	-0.0864093
0.0145987 	-0.00337337 	5.34917e-05 	-0.0758355
0.0146488 	-0.00295702 	4.25231e-05 	-0.0651584
0.014699 	-0.00250596 	3.2457e-05 	-0.0545862
0.0147492 	-0.00205037 	2.32718e-05 	-0.0443005
0.0147993 	-0.00163243 	1.52053e-05 	-0.034432
0.0148495 	-0.0013118 	8.06605e-06 	-0.0250758
0.0148997 	-0.00108058 	3.07087e-06 	-0.0162944
0.0149498 	-0.000719306 	6.12089e-07 	-0.00801315
0.015 	0 	0 	0
