0 	0 	0 	0
0 	0 	0 	0
0.00752508 	0.00345095 	0.000638433 	-0.29629
0.00752508 	0.00345095 	0.000638433 	-0.29629
0.00757525 	0.00344876 	0.000651942 	-0.296315
0.00762542 	0.00344658 	0.000665451 	-0.29634
0.00762542 	0.00344658 	0.000665451 	-0.29634
0.00767559 	0.00344432 	0.000678971 	-0.296364
0.00772575 	0.00343422 	0.000693644 	-0.296345
0.00777592 	0.00342413 	0.000708317 	-0.296325
0.00782609 	0.00341403 	0.00072299 	-0.296306
0.00782609 	0.00341403 	0.00072299 	-0.296306
0.00787625 	0.00339973 	0.000736092 	-0.296265
0.00792642 	0.00338238 	0.000748055 	-0.29621
0.00797659 	0.00336503 	0.000760018 	-0.296154
0.00802676 	0.00334644 	0.000771546 	-0.296091
0.00802676 	0.00334644 	0.000771546 	-0.296091
0.00807692 	0.0033232 	0.000781448 	-0.296002
0.00812709 	0.00329995 	0.000791349 	-0.295913
0.00812709 	0.00329995 	0.000791349 	-0.295913
0.00817726 	0.00327671 	0.00080125 	-0.295824
0.00822742 	0.0032492 	0.000812436 	-0.295704
0.00822742 	0.0032492 	0.000812436 	-0.295704
0.00827759 	0.00322121 	0.000823764 	-0.29558
0.00832776 	0.00319323 	0.000835092 	-0.295457
0.00832776 	0.00319323 	0.000835092 	-0.295457
0.00837793 	0.0031626 	0.000846254 	-0.29531
0.00842809 	0.00313054 	0.000857326 	-0.295151
0.00842809 	0.00313054 	0.000857326 	-0.295151
0.00847826 	0.00309849 	0.000868398 	-0.294991
0.00847826 	0.00309849 	0.000868398 	-0.294991
0.00852843 	0.00306488 	0.000879771 	-0.294814
0.00852843 	0.00306488 	0.000879771 	-0.294814
0.0085786 	0.0030294 	0.000891502 	-0.294615
0.0085786 	0.0030294 	0.000891502 	-0.294615
0.00862876 	0.00299392 	0.000903234 	-0.294416
0.00867893 	0.00295731 	0.000916826 	-0.294206
0.00867893 	0.00295731 	0.000916826 	-0.294206
0.0087291 	0.00291825 	0.00093442 	-0.293972
0.00877926 	0.00287919 	0.000952014 	-0.293738
0.00877926 	0.00287919 	0.000952014 	-0.293738
0.00882943 	0.00283899 	0.000970305 	-0.293501
0.0088796 	0.00279509 	0.000990868 	-0.293257
0.0088796 	0.00279509 	0.000990868 	-0.293257
0.00897993 	0.00270619 	0.00102773 	-0.292764
0.00897993 	0.00270619 	0.00102773 	-0.292764
0.0090301 	0.00265696 	0.00102765 	-0.292502
0.00908027 	0.00260773 	0.00102757 	-0.29224
0.00908027 	0.00260773 	0.00102757 	-0.29224
0.00913043 	0.00255751 	0.00102135 	-0.291942
0.0091806 	0.00250397 	0.000994724 	-0.291525
0.0091806 	0.00250397 	0.000994724 	-0.291525
0.00923077 	0.00245043 	0.000968102 	-0.291109
0.00928094 	0.00239732 	0.000952203 	-0.290594
0.00928094 	0.00239732 	0.000952203 	-0.290594
0.0093311 	0.00234516 	0.000960261 	-0.289861
0.00938127 	0.00229301 	0.00096832 	-0.289127
0.00938127 	0.00229301 	0.00096832 	-0.289127
0.00943144 	0.00224585 	0.00099514 	-0.288342
0.00943144 	0.00224585 	0.00099514 	-0.288342
0.00948161 	0.00220509 	0.00104602 	-0.28749
0.00948161 	0.00220509 	0.00104602 	-0.28749
0.00953177 	0.00216433 	0.0010969 	-0.286639
0.00953177 	0.00216433 	0.0010969 	-0.286639
0.00958194 	0.00213058 	0.0011292 	-0.285882
0.00958194 	0.00213058 	0.0011292 	-0.285882
0.00963211 	0.00210116 	0.00115 	-0.285184
0.00963211 	0.00210116 	0.00115 	-0.285184
0.00968227 	0.00207174 	0.0011708 	-0.284486
0.00968227 	0.00207174 	0.0011708 	-0.284486
0.00973244 	0.00203924 	0.00116557 	-0.283909
0.00978261 	0.00200619 	0.00115564 	-0.283355
0.00983278 	0.00197165 	0.00114678 	-0.282811
0.00988294 	0.00192673 	0.00114544 	-0.282335
0.00988294 	0.00192673 	0.00114544 	-0.282335
0.00993311 	0.00188181 	0.00114411 	-0.281859
0.00998328 	0.001834 	0.00114637 	-0.281389
0.00998328 	0.001834 	0.00114637 	-0.281389
0.0100334 	0.00178266 	0.00115301 	-0.280928
0.0100334 	0.00178266 	0.00115301 	-0.280928
0.0100836 	0.00173133 	0.00115965 	-0.280466
0.0101338 	0.00167904 	0.0011639 	-0.27999
0.0101338 	0.00167904 	0.0011639 	-0.27999
0.0102341 	0.00157405 	0.001171 	-0.279024
0.0102341 	0.00157405 	0.001171 	-0.279024
0.0102843 	0.00152148 	0.00117315 	-0.278519
0.0103344 	0.00146891 	0.0011753 	-0.278014
0.0103344 	0.00146891 	0.0011753 	-0.278014
0.0103846 	0.0014153 	0.00117711 	-0.277492
0.0103846 	0.0014153 	0.00117711 	-0.277492
0.0104348 	0.00136127 	0.00117877 	-0.276962
0.0104849 	0.00130672 	0.00118025 	-0.276428
0.0104849 	0.00130672 	0.00118025 	-0.276428
0.0105351 	0.00125034 	0.00118111 	-0.275876
0.0105853 	0.00119397 	0.00118198 	-0.275323
0.0105853 	0.00119397 	0.00118198 	-0.275323
0.0106355 	0.00113661 	0.00118235 	-0.274753
0.0106856 	0.00107897 	0.00118258 	-0.274178
0.0106856 	0.00107897 	0.00118258 	-0.274178
0.0107358 	0.00102106 	0.0011829 	-0.273593
0.0107358 	0.00102106 	0.0011829 	-0.273593
0.010786 	0.000962706 	0.00118335 	-0.272993
0.010786 	0.000962706 	0.00118335 	-0.272993
0.0108361 	0.000904333 	0.0011838 	-0.272392
0.0108361 	0.000904333 	0.0011838 	-0.272392
0.0108863 	0.000843022 	0.00118309 	-0.271762
0.0109365 	0.000781712 	0.00118237 	-0.271131
0.0109365 	0.000781712 	0.00118237 	-0.271131
0.0109866 	0.000717976 	0.00118215 	-0.270478
0.0109866 	0.000717976 	0.00118215 	-0.270478
0.0110368 	0.000653135 	0.00118216 	-0.269814
0.011087 	0.000586695 	0.00118486 	-0.269138
0.011087 	0.000586695 	0.00118486 	-0.269138
0.0111371 	0.000517935 	0.00119146 	-0.268445
0.0111873 	0.000447573 	0.00119799 	-0.267748
0.0111873 	0.000447573 	0.00119799 	-0.267748
0.0112375 	0.000369348 	0.0012041 	-0.26704
0.0112876 	0.000291124 	0.00121021 	-0.266331
0.0112876 	0.000291124 	0.00121021 	-0.266331
0.0113378 	0.000199453 	0.00120039 	-0.265614
0.011388 	0.000107369 	0.00119007 	-0.264896
0.011388 	0.000107369 	0.00119007 	-0.264896
0.0114883 	-9.16912e-05 	0.00113586 	-0.263368
0.0114883 	-9.16912e-05 	0.00113586 	-0.263368
0.0115385 	-0.000184801 	0.0011126 	-0.262514
0.0115886 	-0.000274636 	0.00109188 	-0.261621
0.0115886 	-0.000274636 	0.00109188 	-0.261621
0.0116388 	-0.000349704 	0.00108871 	-0.260655
0.011689 	-0.000415028 	0.00109713 	-0.259642
0.011689 	-0.000415028 	0.00109713 	-0.259642
0.0117391 	-0.000472384 	0.00110903 	-0.258617
0.0117893 	-0.000523333 	0.00112375 	-0.257582
0.0117893 	-0.000523333 	0.00112375 	-0.257582
0.0118395 	-0.000577918 	0.00112861 	-0.256568
0.0118896 	-0.000635576 	0.00112515 	-0.255572
0.0118896 	-0.000635576 	0.00112515 	-0.255572
0.0119398 	-0.00070313 	0.00111317 	-0.254587
0.0119398 	-0.00070313 	0.00111317 	-0.254587
0.01199 	-0.000778292 	0.00109464 	-0.253611
0.01199 	-0.000778292 	0.00109464 	-0.253611
0.0120401 	-0.000860887 	0.00107597 	-0.252623
0.0120401 	-0.000860887 	0.00107597 	-0.252623
0.0120903 	-0.000947971 	0.00105722 	-0.251627
0.0120903 	-0.000947971 	0.00105722 	-0.251627
0.0121405 	-0.00103602 	0.00104348 	-0.250601
0.0121405 	-0.00103602 	0.00104348 	-0.250601
0.0121906 	-0.00112446 	0.00103174 	-0.249563
0.0121906 	-0.00112446 	0.00103174 	-0.249563
0.0122408 	-0.00121145 	0.00102015 	-0.248483
0.0122408 	-0.00121145 	0.00102015 	-0.248483
0.012291 	-0.00129817 	0.00100858 	-0.247395
0.012291 	-0.00129817 	0.00100858 	-0.247395
0.0123411 	-0.0013843 	0.000994161 	-0.246256
0.0123411 	-0.0013843 	0.000994161 	-0.246256
0.0123913 	-0.00147046 	0.000979619 	-0.245105
0.0123913 	-0.00147046 	0.000979619 	-0.245105
0.0124415 	-0.0015568 	0.000964571 	-0.24391
0.0124916 	-0.00164343 	0.000949235 	-0.24269
0.0124916 	-0.00164343 	0.000949235 	-0.24269
0.012592 	-0.00181823 	0.000917144 	-0.240135
0.012592 	-0.00181823 	0.000917144 	-0.240135
0.0126421 	-0.00190634 	0.000900497 	-0.238815
0.0126923 	-0.00199574 	0.000882953 	-0.237425
0.0126923 	-0.00199574 	0.000882953 	-0.237425
0.0127425 	-0.00208563 	0.000865114 	-0.236011
0.0127425 	-0.00208563 	0.000865114 	-0.236011
0.0127926 	-0.00217669 	0.000846592 	-0.23454
0.0128428 	-0.00226884 	0.00082752 	-0.233015
0.0128428 	-0.00226884 	0.00082752 	-0.233015
0.012893 	-0.00236168 	0.000808106 	-0.231458
0.0129431 	-0.00245644 	0.000787925 	-0.22981
0.0129431 	-0.00245644 	0.000787925 	-0.22981
0.0129933 	-0.00255205 	0.000767405 	-0.228122
0.0130435 	-0.00264893 	0.000746372 	-0.226374
0.0130435 	-0.00264893 	0.000746372 	-0.226374
0.0130936 	-0.00274775 	0.00072448 	-0.224538
0.0131438 	-0.00284773 	0.000702153 	-0.222651
0.0131438 	-0.00284773 	0.000702153 	-0.222651
0.013194 	-0.00294962 	0.000679184 	-0.220681
0.0132441 	-0.00305372 	0.000655712 	-0.218612
0.0132441 	-0.00305372 	0.000655712 	-0.218612
0.0132943 	-0.0031593 	0.000631966 	-0.216474
0.0133445 	-0.0032669 	0.000607907 	-0.214233
0.0133445 	-0.0032669 	0.000607907 	-0.214233
0.0133946 	-0.00337647 	0.000583619 	-0.211861
0.0134448 	-0.00348708 	0.000559153 	-0.209393
0.0134448 	-0.00348708 	0.000559153 	-0.209393
0.013495 	-0.00359869 	0.000534484 	-0.206815
0.0135452 	-0.00371094 	0.000509592 	-0.204045
0.0135452 	-0.00371094 	0.000509592 	-0.204045
0.0136455 	-0.00393415 	0.000459444 	-0.198085
0.0136455 	-0.00393415 	0.000459444 	-0.198085
0.0136957 	-0.00404391 	0.0004341 	-0.194841
0.0137458 	-0.00415052 	0.000408626 	-0.191352
0.0137458 	-0.00415052 	0.000408626 	-0.191352
0.013796 	-0.00425366 	0.000383182 	-0.187657
0.0138462 	-0.00435238 	0.000357826 	-0.183737
0.0138462 	-0.00435238 	0.000357826 	-0.183737
0.0138963 	-0.00444552 	0.000332615 	-0.17957
0.0138963 	-0.00444552 	0.000332615 	-0.17957
0.0139465 	-0.00452858 	0.000307667 	-0.175039
0.0139967 	-0.00460113 	0.000283047 	-0.170192
0.0139967 	-0.00460113 	0.000283047 	-0.170192
0.0140468 	-0.00466107 	0.000258851 	-0.165004
0.0140468 	-0.00466107 	0.000258851 	-0.165004
0.014097 	-0.0047058 	0.000235204 	-0.159443
0.0141472 	-0.00473254 	0.000212243 	-0.153475
0.0141973 	-0.00473847 	0.000190091 	-0.14706
0.0141973 	-0.00473847 	0.000190091 	-0.14706
0.0142475 	-0.00471624 	0.000168797 	-0.140078
0.0142977 	-0.00466485 	0.000148164 	-0.132557
0.0143478 	-0.0045787 	0.000128435 	-0.124465
0.0143478 	-0.0045787 	0.000128435 	-0.124465
0.014398 	-0.00445046 	0.000110104 	-0.115779
0.014398 	-0.00445046 	0.000110104 	-0.115779
0.0144482 	-0.00427191 	9.35529e-05 	-0.106504
0.0144983 	-0.00403535 	7.87771e-05 	-0.0966831
0.0144983 	-0.00403535 	7.87771e-05 	-0.0966831
0.0145485 	-0.00373574 	6.55108e-05 	-0.0864093
0.0145987 	-0.00337337 	5.34917e-05 	-0.0758355
0.0145987 	-0.00337337 	5.34917e-05 	-0.0758355
0.0146488 	-0.00295701 	4.25231e-05 	-0.0651584
0.014699 	-0.00250596 	3.2457e-05 	-0.0545862
0.014699 	-0.00250596 	3.2457e-05 	-0.0545862
0.0147492 	-0.00205037 	2.32718e-05 	-0.0443005
0.0147993 	-0.00163243 	1.52053e-05 	-0.034432
0.0147993 	-0.00163243 	1.52053e-05 	-0.034432
0.0148495 	-0.00131179 	8.06609e-06 	-0.0250758
0.0148495 	-0.00131179 	8.06609e-06 	-0.0250758
0.0148997 	-0.00108058 	3.07087e-06 	-0.0162944
0.0148997 	-0.00108058 	3.07087e-06 	-0.0162944
0.0149498 	-0.000719305 	6.12081e-07 	-0.00801315
0.0149498 	-0.000719305 	6.12081e-07 	-0.00801315
0.015 	0 	0 	0
