/*--------------------------------*- C++ -*----------------------------------*\
| =========                 |                                                 |
| \\      /  F ield         | OpenFOAM: The Open Source CFD Toolbox           |
|  \\    /   O peration     | Version:  v1912                                 |
|   \\  /    A nd           | Website:  www.openfoam.com                      |
|    \\/     M anipulation  |                                                 |
\*---------------------------------------------------------------------------*/
FoamFile
{
    version     2.0;
    format      ascii;
    class       volScalarField;
    location    "10.4";
    object      alphat;
}
// * * * * * * * * * * * * * * * * * * * * * * * * * * * * * * * * * * * * * //

dimensions      [1 -1 -1 0 0 0 0];


internalField   nonuniform List<scalar> 
34128
(
2.04717e-09
1.9919e-09
1.8853e-09
1.86972e-09
1.93473e-09
1.95735e-09
1.94208e-09
1.9591e-09
2.00909e-09
2.04102e-09
2.06021e-09
2.08009e-09
2.41097e-09
2.3699e-09
2.26295e-09
2.2467e-09
2.30983e-09
2.3254e-09
2.30466e-09
2.32766e-09
2.38545e-09
2.41252e-09
2.41881e-09
2.44285e-09
1.14624e-08
1.16339e-08
1.14099e-08
1.13651e-08
1.14576e-08
1.1361e-08
1.12203e-08
1.13754e-08
1.16376e-08
1.16086e-08
1.13868e-08
1.15064e-08
7.3141e-08
7.47373e-08
7.3719e-08
7.34837e-08
7.37663e-08
7.29044e-08
7.19546e-08
7.30075e-08
7.46768e-08
7.42906e-08
7.25213e-08
7.32688e-08
3.12568e-07
3.19814e-07
3.15967e-07
3.15049e-07
3.15877e-07
3.1195e-07
3.07888e-07
3.12418e-07
3.1952e-07
3.17723e-07
3.09873e-07
3.13003e-07
9.7825e-07
1.00164e-06
9.91053e-07
9.88476e-07
9.90102e-07
9.77373e-07
9.64823e-07
9.7889e-07
1.00067e-06
9.94698e-07
9.69866e-07
9.79566e-07
2.44792e-06
2.50796e-06
2.48596e-06
2.48045e-06
2.48189e-06
2.44924e-06
2.41856e-06
2.45302e-06
2.50524e-06
2.48911e-06
2.42714e-06
2.45147e-06
5.16763e-06
5.29702e-06
5.26189e-06
5.25262e-06
5.24983e-06
5.17993e-06
5.11729e-06
5.18739e-06
5.2903e-06
5.25301e-06
5.12434e-06
5.17645e-06
9.52798e-06
9.7695e-06
9.72769e-06
9.71546e-06
9.69996e-06
9.57113e-06
9.46036e-06
9.58269e-06
9.7549e-06
9.67942e-06
9.44965e-06
9.54825e-06
1.57313e-05
1.61305e-05
1.60999e-05
1.60879e-05
1.60478e-05
1.58387e-05
1.56643e-05
1.58518e-05
1.61027e-05
1.5967e-05
1.56056e-05
1.5774e-05
2.37184e-05
2.4313e-05
2.43211e-05
2.4315e-05
2.42384e-05
2.39343e-05
2.36845e-05
2.39416e-05
2.42663e-05
2.4047e-05
2.35362e-05
2.38004e-05
3.31813e-05
3.39916e-05
3.407e-05
3.40767e-05
3.3957e-05
3.3555e-05
3.32225e-05
3.35424e-05
3.39216e-05
3.35987e-05
3.29397e-05
3.33256e-05
4.27182e-05
4.36494e-05
4.39038e-05
4.39559e-05
4.38248e-05
4.34227e-05
4.30289e-05
4.32736e-05
4.35489e-05
4.31133e-05
4.2423e-05
4.29433e-05
5.13442e-05
5.23926e-05
5.27125e-05
5.27879e-05
5.26551e-05
5.22142e-05
5.17538e-05
5.2003e-05
5.22834e-05
5.177e-05
5.10173e-05
5.16705e-05
6.01313e-05
6.12788e-05
6.16655e-05
6.17662e-05
6.16357e-05
6.11633e-05
6.06395e-05
6.08867e-05
6.11643e-05
6.0576e-05
5.978e-05
6.05763e-05
6.8961e-05
7.01893e-05
7.06475e-05
7.07748e-05
7.06473e-05
7.01503e-05
6.95678e-05
6.98069e-05
7.00721e-05
6.94114e-05
6.85925e-05
6.95396e-05
7.77177e-05
7.90099e-05
7.95476e-05
7.97015e-05
7.95743e-05
7.90583e-05
7.84228e-05
7.86492e-05
7.88922e-05
7.81611e-05
7.73396e-05
7.84426e-05
8.63028e-05
8.76451e-05
8.82738e-05
8.8453e-05
8.83196e-05
8.77889e-05
8.71066e-05
8.73175e-05
8.75284e-05
8.67284e-05
8.59234e-05
8.71851e-05
9.46397e-05
9.60224e-05
9.67579e-05
9.69604e-05
9.68103e-05
9.6267e-05
9.55442e-05
9.57385e-05
9.59083e-05
9.50395e-05
9.42687e-05
9.56898e-05
0.000102681
0.000104102
0.000104965
0.000105188
0.000105006
0.000104449
0.000103692
0.000103871
0.000103991
0.000103052
0.000102331
0.000103911
0.000110422
0.000111887
0.000112906
0.000113147
0.000112913
0.000112335
0.000111549
0.000111717
0.000111782
0.000110769
0.00011011
0.000111848
0.000117909
0.000119439
0.000120651
0.000120907
0.000120592
0.000119979
0.000119169
0.000119336
0.000119341
0.000118244
0.000117658
0.000119552
0.000125241
0.000126871
0.000128324
0.000128592
0.000128158
0.000127487
0.000126658
0.000126839
0.000126781
0.000125588
0.000125081
0.000127125
0.000132546
0.00013433
0.000136087
0.000136359
0.000135755
0.000134994
0.000134154
0.00013437
0.000134244
0.000132937
0.000132513
0.000134694
0.000139946
0.000141948
0.000144083
0.000144352
0.000143514
0.000142625
0.000141783
0.000142061
0.000141854
0.000140415
0.000140074
0.000142363
0.000147507
0.000149797
0.000152393
0.000152645
0.000151497
0.000150438
0.000149614
0.000149973
0.000149667
0.000148077
0.000147816
0.000150159
0.000155185
0.000157824
0.000160971
0.000161188
0.000159644
0.000158379
0.000157604
0.000158055
0.000157614
0.000155861
0.000155677
0.000157983
0.000162779
0.00016579
0.000169569
0.00016973
0.000167709
0.000166222
0.000165541
0.00016607
0.00016544
0.000163527
0.000163416
0.000165553
0.000169843
0.000173156
0.000177593
0.00017768
0.000175142
0.000173467
0.000172943
0.000173479
0.000172587
0.000170553
0.000170515
0.000172309
0.000175654
0.000179088
0.000184144
0.000184148
0.000181107
0.000179332
0.000179038
0.000179453
0.000178219
0.000176139
0.000176176
0.000177434
0.000179465
0.000182801
0.000188382
0.000188306
0.000184825
0.000183052
0.000183046
0.000183205
0.000181581
0.000179541
0.000179653
0.000180255
0.000181185
0.000184351
0.000190238
0.000190133
0.000186402
0.000184668
0.000184855
0.000184775
0.000182901
0.000180926
0.000181082
0.000181237
0.000181135
0.000184081
0.00019014
0.000190037
0.000186162
0.000184496
0.000184822
0.000184513
0.000182446
0.000180564
0.000180753
0.000180515
0.000179427
0.000182091
0.000188207
0.000188129
0.000184197
0.000182632
0.000183069
0.000182517
0.000180302
0.000178543
0.000178755
0.000178174
0.000176202
0.000178533
0.000184581
0.000184548
0.000180651
0.000179214
0.000179725
0.000178933
0.000176627
0.000175017
0.000175245
0.000174395
0.000171697
0.000173669
0.000179508
0.000179534
0.000175764
0.000174469
0.00017501
0.000174009
0.000171694
0.000170251
0.000170483
0.000169464
0.000166255
0.000167882
0.000173356
0.000173442
0.000169883
0.000168723
0.000169246
0.000168107
0.000165887
0.00016462
0.000164842
0.00016377
0.000160324
0.000161664
0.000166602
0.000166727
0.000163448
0.000162392
0.000162849
0.00016169
0.000159686
0.000158595
0.000158793
0.000157782
0.000154436
0.000155595
0.000159808
0.000159923
0.000156979
0.000155965
0.000156315
0.000155298
0.000153654
0.000152723
0.000152881
0.000152028
0.000149188
0.000150316
0.000153595
0.000153612
0.000151036
0.000149977
0.000150196
0.000149528
0.000148409
0.000147619
0.0001477
0.000147077
0.000145224
0.000146517
0.000148617
0.000148407
0.000146209
0.000145003
0.000145083
0.000145011
0.000144589
0.000143922
0.000143894
0.000143531
0.000143255
0.000144934
0.000145561
0.000144952
0.00014312
0.000141656
0.000141605
0.000142413
0.000142872
0.000142307
0.000142142
0.000142032
0.000144117
0.000146413
0.000145169
0.000143932
0.000142446
0.000140605
0.000140445
0.000142462
0.000144011
0.000143526
0.000143197
0.000143311
0.000148794
0.000152008
0.000148322
0.000146139
0.000144983
0.000142631
0.000142392
0.000146022
0.000148923
0.000148502
0.000147981
0.000148275
0.000158604
0.000163138
0.000156152
0.000152587
0.000151761
0.000148732
0.000148447
0.000154222
0.000158864
0.000158495
0.000157747
0.000158176
0.000175514
0.000181968
0.000170306
0.000164719
0.000164256
0.000160315
0.000160014
0.00016871
0.000175724
0.000175406
0.00017438
0.000174905
0.000202661
0.000212008
0.00019339
0.000184766
0.000184749
0.000179531
0.000179231
0.000192071
0.000202536
0.000202281
0.000200898
0.000201486
0.000245103
0.000258922
0.000229645
0.000216321
0.0002169
0.000209809
0.000209508
0.000228459
0.000244152
0.000244003
0.000242141
0.000242734
0.000308722
0.000328744
0.000285276
0.000264875
0.000266135
0.000256334
0.000256065
0.000283625
0.000305588
0.000305565
0.000303256
0.000303322
0.000398755
0.000417587
0.000362688
0.000333979
0.000336192
0.00032451
0.000324345
0.000364458
0.00038418
0.00038639
0.00038586
0.000379034
0.000486675
0.000509101
0.000440013
0.00040246
0.000405691
0.000397658
0.000404215
0.000445711
0.000466224
0.000469286
0.000469061
0.000459741
0.000593391
0.000618603
0.000535588
0.000489012
0.000493345
0.000484309
0.000492833
0.000543199
0.000565684
0.000569765
0.000570116
0.000557883
0.000718373
0.000746284
0.000648316
0.000592634
0.000598101
0.000588692
0.000599457
0.000658169
0.000682079
0.000687398
0.000688502
0.000672789
0.000862261
0.000892829
0.000779019
0.000713395
0.000720115
0.000710561
0.00072396
0.000791445
0.000816535
0.000823319
0.000825278
0.000805444
0.0010246
0.00105775
0.000928308
0.000852337
0.000860397
0.000850895
0.000867326
0.00094361
0.000969496
0.000977925
0.000980734
0.000956154
0.00120351
0.00123913
0.00109558
0.00100956
0.00101887
0.00100972
0.00102954
0.00111406
0.00114024
0.0011504
0.0011539
0.00112402
0.00139563
0.00143366
0.00127887
0.00118387
0.00119421
0.00118575
0.00120925
0.00130081
0.00132672
0.00133857
0.00134241
0.0013068
0.00159644
0.00163685
0.00147489
0.00137273
0.00138369
0.00137632
0.00140364
0.00150055
0.00152562
0.00153895
0.00154262
0.00150103
0.00180071
0.00184352
0.00167925
0.00157232
0.00158341
0.00157749
0.00160864
0.00170885
0.0017326
0.00174706
0.00174988
0.00170227
0.00200311
0.00204833
0.00188688
0.00177792
0.00178862
0.00178447
0.00181926
0.00192059
0.0019427
0.00195781
0.00195904
0.00190557
0.00219872
0.00224631
0.00209254
0.00198435
0.00199417
0.00199207
0.00203015
0.0021305
0.00215079
0.002166
0.00216488
0.00210591
0.00238346
0.00243326
0.00229131
0.00218649
0.00219507
0.00219522
0.00223603
0.0023336
0.00235207
0.00236682
0.00236265
0.00229872
0.00255429
0.00260601
0.00247896
0.00237978
0.0023869
0.00238941
0.00243228
0.00252563
0.00254237
0.00255613
0.00254839
0.00248013
0.00270925
0.00276246
0.00265224
0.00256046
0.00256609
0.00257098
0.00261516
0.00270323
0.00271843
0.00273078
0.00271908
0.00264721
0.00284738
0.00290156
0.002809
0.00272585
0.00273006
0.00273726
0.00278199
0.00286408
0.00287797
0.00288861
0.00287278
0.00279802
0.00296856
0.00302315
0.00294852
0.00287427
0.00287727
0.00288662
0.00293116
0.0030069
0.0030197
0.00302847
0.00300853
0.00293159
0.00307331
0.00312777
0.00307037
0.00300505
0.00300709
0.00301834
0.00306205
0.00313138
0.00314322
0.00315004
0.00312621
0.00304776
0.00316262
0.00321647
0.00317491
0.00311831
0.00311964
0.00313249
0.00317485
0.00323785
0.00324893
0.00325374
0.00322643
0.00314706
0.00323774
0.00329062
0.00326315
0.00321482
0.00321567
0.00322975
0.00327037
0.00332727
0.00333766
0.00334057
0.00331034
0.00323055
0.00330005
0.0033517
0.00333646
0.00329577
0.00329631
0.00331121
0.00334987
0.00340111
0.00341093
0.00341209
0.00337923
0.00329988
0.00335085
0.00340123
0.00339641
0.0033626
0.00336295
0.00337827
0.00341486
0.00346099
0.00347019
0.00346981
0.00343477
0.00335654
0.00339127
0.00344066
0.00344464
0.00341688
0.00341711
0.00343246
0.00346698
0.00350864
0.00351703
0.00351497
0.00347903
0.00340151
0.00342224
0.00347159
0.00348267
0.00346017
0.0034603
0.00347532
0.00350791
0.00354576
0.00355307
0.00354948
0.00351318
0.00343607
0.0034452
0.00349513
0.00351194
0.00349396
0.00349398
0.00350835
0.00353943
0.00357388
0.00358001
0.00357518
0.00353835
0.0034624
0.00346341
0.00351214
0.00353364
0.0035196
0.00351944
0.0035329
0.00356304
0.00359444
0.0035995
0.00359357
0.00355644
0.00348213
0.00347625
0.00352329
0.00354879
0.00353822
0.0035378
0.00355013
0.00357955
0.00360872
0.00361282
0.00360588
0.00356881
0.0034965
0.00348382
0.00352908
0.00355817
0.00355078
0.00354997
0.00356102
0.00358985
0.00361774
0.00362098
0.00361302
0.00357644
0.00350642
0.00348626
0.00352978
0.00356235
0.00355797
0.00355656
0.00356626
0.00359471
0.00362228
0.00362471
0.00361564
0.00358001
0.00351256
0.0034836
0.00352541
0.00356167
0.00356021
0.00355792
0.0035663
0.00359463
0.00362271
0.00362428
0.00361393
0.00357986
0.0035153
2.19311e-09
2.14717e-09
2.03568e-09
2.02164e-09
2.09093e-09
2.10836e-09
2.08586e-09
2.10402e-09
2.15881e-09
2.18771e-09
2.20085e-09
2.22931e-09
2.47988e-09
2.43989e-09
2.32535e-09
2.31278e-09
2.38539e-09
2.40003e-09
2.37217e-09
2.39264e-09
2.45078e-09
2.47614e-09
2.48631e-09
2.52765e-09
1.02381e-08
1.02656e-08
9.9785e-09
9.9796e-09
1.01839e-08
1.01603e-08
1.00078e-08
1.00933e-08
1.02766e-08
1.02661e-08
1.02295e-08
1.05402e-08
6.32885e-08
6.3774e-08
6.23235e-08
6.24171e-08
6.34919e-08
6.31932e-08
6.22027e-08
6.27461e-08
6.38055e-08
6.35664e-08
6.31944e-08
6.52958e-08
2.69001e-07
2.71395e-07
2.65709e-07
2.66205e-07
2.70424e-07
2.68939e-07
2.64757e-07
2.67121e-07
2.71561e-07
2.70394e-07
2.68639e-07
2.77579e-07
8.3974e-07
8.47892e-07
8.3161e-07
8.33389e-07
8.45488e-07
8.40359e-07
8.27573e-07
8.35058e-07
8.48555e-07
8.44566e-07
8.3885e-07
8.66483e-07
2.09613e-06
2.11802e-06
2.08186e-06
2.08691e-06
2.11408e-06
2.10025e-06
2.06934e-06
2.088e-06
2.11997e-06
2.10895e-06
2.09462e-06
2.16274e-06
4.41288e-06
4.46183e-06
4.3968e-06
4.40875e-06
4.45907e-06
4.42839e-06
4.36596e-06
4.40442e-06
4.46632e-06
4.44049e-06
4.41145e-06
4.55286e-06
8.11263e-06
8.20646e-06
8.10904e-06
8.13331e-06
8.21312e-06
8.15542e-06
8.04623e-06
8.11384e-06
8.21508e-06
8.16255e-06
8.11352e-06
8.36964e-06
1.33552e-05
1.35127e-05
1.3389e-05
1.34322e-05
1.35443e-05
1.345e-05
1.32799e-05
1.33837e-05
1.35273e-05
1.34332e-05
1.33631e-05
1.37784e-05
2.00795e-05
2.03153e-05
2.01813e-05
2.02499e-05
2.03936e-05
2.02572e-05
2.00158e-05
2.01577e-05
2.0338e-05
2.01873e-05
2.0102e-05
2.07169e-05
2.80185e-05
2.83385e-05
2.82167e-05
2.83158e-05
2.84879e-05
2.83096e-05
2.79922e-05
2.81676e-05
2.8372e-05
2.81531e-05
2.80659e-05
2.891e-05
3.58809e-05
3.61908e-05
3.61473e-05
3.62775e-05
3.64913e-05
3.63586e-05
3.60008e-05
3.61027e-05
3.62299e-05
3.59601e-05
3.59462e-05
3.69623e-05
4.30972e-05
4.34398e-05
4.34201e-05
4.35715e-05
4.3809e-05
4.36599e-05
4.32497e-05
4.33626e-05
4.34982e-05
4.31822e-05
4.31986e-05
4.43958e-05
5.04452e-05
5.08203e-05
5.08354e-05
5.10039e-05
5.12514e-05
5.10805e-05
5.06231e-05
5.0754e-05
5.09e-05
5.05381e-05
5.05896e-05
5.19605e-05
5.78225e-05
5.8233e-05
5.82976e-05
5.8477e-05
5.87164e-05
5.85164e-05
5.80184e-05
5.81762e-05
5.83341e-05
5.79264e-05
5.80159e-05
5.95472e-05
6.51314e-05
6.55844e-05
6.57163e-05
6.58987e-05
6.61073e-05
6.58691e-05
6.53384e-05
6.55335e-05
6.5705e-05
6.52514e-05
6.53798e-05
6.70524e-05
7.22896e-05
7.27965e-05
7.30163e-05
7.31916e-05
7.33431e-05
7.30554e-05
7.25016e-05
7.27458e-05
7.29327e-05
7.24328e-05
7.2599e-05
7.43884e-05
7.92343e-05
7.98111e-05
8.01414e-05
8.02982e-05
8.03626e-05
8.00119e-05
7.94458e-05
7.97523e-05
7.99568e-05
7.941e-05
7.96116e-05
8.14873e-05
8.59286e-05
8.65973e-05
8.70626e-05
8.71875e-05
8.71311e-05
8.67009e-05
8.61356e-05
8.65192e-05
8.67439e-05
8.61493e-05
8.63824e-05
8.83089e-05
9.23718e-05
9.31623e-05
9.37893e-05
9.38668e-05
9.36514e-05
9.3121e-05
9.25711e-05
9.30504e-05
9.3298e-05
9.26534e-05
9.29129e-05
9.485e-05
9.8608e-05
9.9561e-05
0.000100379
0.00010039
9.99716e-05
9.93149e-05
9.87971e-05
9.93956e-05
9.96683e-05
9.89704e-05
9.92498e-05
0.000101153
0.000104726
0.000105894
0.000106934
0.000106856
0.000106183
0.000105367
0.000104901
0.000105649
0.000105946
0.00010519
0.000105482
0.000107299
0.000110841
0.00011229
0.00011358
0.000113386
0.0001124
0.000111387
0.000110995
0.000111927
0.000112245
0.000111424
0.000111719
0.000113391
0.000117063
0.000118862
0.000120434
0.00012009
0.000118723
0.000117472
0.000117184
0.000118334
0.000118662
0.000117771
0.00011806
0.000119506
0.000123452
0.000125667
0.000127548
0.000127014
0.000125193
0.000123668
0.000123523
0.000124918
0.000125232
0.000124271
0.000124546
0.000125664
0.000129973
0.000132648
0.000134863
0.000134095
0.000131751
0.000129932
0.000129977
0.000131625
0.000131882
0.000130858
0.000131113
0.000131785
0.00013646
0.000139597
0.000142154
0.000141116
0.0001382
0.000136097
0.000136384
0.000138249
0.000138391
0.000137323
0.000137555
0.00013766
0.000142536
0.000146036
0.000148931
0.00014762
0.000144136
0.000141814
0.000142381
0.000144352
0.000144308
0.000143239
0.000143451
0.000142902
0.000147605
0.000151268
0.000154478
0.000152931
0.000148952
0.00014654
0.000147393
0.00014928
0.000148987
0.000147974
0.000148175
0.000146963
0.000151067
0.000154663
0.000158141
0.000156429
0.000152083
0.000149729
0.000150836
0.00015244
0.000151863
0.000150964
0.000151161
0.000149401
0.000152899
0.000156367
0.000160004
0.000158247
0.000153725
0.000151455
0.000152684
0.000154018
0.000153271
0.000152472
0.000152663
0.000150575
0.000153344
0.000156629
0.000160349
0.000158613
0.000154035
0.000151878
0.000153158
0.000154212
0.000153338
0.000152646
0.000152833
0.000150537
0.000152496
0.000155538
0.000159264
0.000157606
0.000153079
0.00015107
0.000152345
0.000153098
0.000152139
0.000151558
0.000151743
0.000149352
0.000150497
0.000153254
0.000156895
0.000155363
0.000150993
0.000149149
0.000150365
0.000150823
0.000149836
0.000149364
0.000149545
0.000147174
0.000147588
0.000150058
0.000153498
0.000152122
0.000148004
0.000146316
0.000147424
0.000147635
0.000146696
0.000146325
0.000146497
0.000144246
0.000144126
0.000146353
0.00014944
0.00014822
0.000144434
0.000142862
0.000143823
0.00014389
0.000143093
0.000142806
0.000142957
0.000140905
0.000140573
0.000142648
0.000145186
0.000144082
0.000140686
0.000139163
0.000139955
0.000140037
0.000139481
0.000139257
0.000139373
0.000137564
0.000137483
0.000139539
0.000141275
0.000140198
0.00013722
0.000135664
0.000136293
0.000136595
0.000136369
0.000136194
0.000136264
0.0001347
0.000135491
0.000137689
0.0001383
0.000137107
0.000134556
0.000132873
0.000133368
0.000134142
0.000134311
0.000134163
0.000134202
0.000132844
0.000135311
0.000137832
0.000136902
0.000135393
0.000133269
0.000131356
0.000131774
0.000133307
0.000133923
0.000133776
0.000133806
0.000132588
0.000137755
0.000140808
0.000137788
0.000135695
0.000134004
0.000131747
0.000132175
0.000134792
0.0001359
0.000135735
0.000135786
0.000134612
0.000143803
0.000147644
0.000141787
0.00013876
0.000137527
0.000134797
0.000135351
0.000139435
0.000141091
0.000140894
0.000141008
0.000139756
0.00015483
0.000159773
0.000149969
0.000145549
0.000144829
0.000141469
0.000142294
0.000148337
0.000150641
0.000150399
0.000150643
0.000149154
0.000172936
0.000179439
0.000163901
0.000157417
0.000157322
0.000153113
0.00015439
0.000163113
0.000166253
0.000165952
0.00016643
0.000164492
0.000201578
0.000210381
0.00018606
0.000176447
0.000177184
0.000171781
0.000173759
0.000186319
0.000190642
0.000190263
0.000191156
0.000188453
0.000246542
0.00025886
0.000220549
0.00020603
0.000207954
0.000200777
0.000203826
0.000222154
0.000228244
0.000227759
0.00022939
0.00022539
0.000313766
0.000330453
0.000273403
0.000251429
0.000254952
0.00024513
0.000249874
0.000276385
0.000284244
0.000283762
0.000286532
0.000280147
0.000389906
0.000398982
0.000342628
0.000314648
0.000321565
0.00030984
0.000317298
0.000353226
0.000347387
0.00035193
0.00036432
0.000358471
0.0004765
0.000485861
0.000415311
0.000378708
0.000388514
0.000383866
0.000398042
0.000429845
0.000420879
0.000427091
0.000443643
0.000436057
0.000580676
0.000589456
0.000506106
0.000460865
0.000474021
0.000469486
0.000487977
0.000524729
0.000511625
0.000519808
0.000541067
0.000531994
0.000702022
0.000710106
0.000613591
0.000560227
0.000577001
0.000573416
0.000596396
0.000636489
0.000618522
0.000629003
0.000655577
0.000645062
0.000841593
0.000848998
0.000738649
0.000676521
0.000697455
0.000695193
0.000723276
0.000766117
0.000742776
0.000755905
0.000788422
0.000776332
0.000999376
0.00100626
0.000882378
0.000811146
0.000836621
0.000836096
0.000869945
0.000914521
0.000885409
0.000901458
0.000940285
0.000926455
0.0011739
0.00118064
0.00104476
0.000964651
0.00099471
0.000996434
0.00103655
0.00108145
0.00104638
0.00106547
0.00111057
0.00109477
0.00136217
0.00136941
0.00122447
0.0011363
0.00117069
0.00117507
0.00122169
0.00126526
0.00122434
0.00124641
0.0012972
0.00127913
0.0015599
0.00156856
0.00141872
0.00132392
0.00136202
0.00136934
0.00142229
0.00146291
0.00141661
0.00144134
0.00149666
0.00147595
0.00176199
0.00177314
0.00162334
0.00152394
0.00156479
0.00157519
0.0016338
0.00167019
0.0016193
0.00164615
0.00170432
0.00168052
0.00196314
0.00197785
0.00183327
0.00173169
0.00177411
0.00178753
0.00185072
0.00188208
0.0018277
0.00185593
0.00191485
0.00188752
0.00215839
0.00217757
0.00204311
0.00194189
0.00198461
0.00200085
0.00206719
0.00209325
0.0020367
0.00206542
0.00212285
0.00209158
0.00234357
0.00236781
0.00224759
0.00214916
0.002191
0.00220971
0.00227761
0.0022986
0.00224127
0.00226955
0.00232333
0.0022878
0.00251552
0.00254503
0.00244209
0.00234855
0.00238851
0.00240927
0.00247711
0.00249361
0.0024369
0.00246384
0.00251208
0.00247208
0.00267218
0.00270673
0.00262294
0.0025359
0.00257329
0.00259561
0.00266192
0.00267469
0.00261986
0.00264466
0.0026859
0.00264139
0.00281248
0.00285153
0.00278753
0.00270808
0.00274249
0.00276591
0.00282945
0.00283925
0.00278738
0.00280939
0.0028427
0.00279376
0.00293621
0.00297896
0.00293416
0.00286307
0.00289437
0.00291845
0.00297825
0.0029858
0.00293767
0.00295646
0.00298137
0.00292822
0.0030438
0.00308934
0.00306155
0.0029999
0.0030282
0.00305252
0.00310793
0.00311377
0.00306987
0.00308524
0.00310169
0.00304475
0.00313617
0.0031836
0.00317026
0.00311855
0.00314407
0.00316825
0.0032189
0.00322326
0.0031839
0.00319595
0.00320419
0.00314405
0.00321454
0.00326302
0.00326157
0.0032197
0.00324275
0.00326644
0.00331223
0.00331529
0.00328034
0.00328945
0.00328989
0.0032272
0.00328035
0.00332913
0.00333717
0.00330458
0.00332544
0.00334833
0.00338941
0.00339124
0.00336045
0.00336689
0.00336022
0.0032954
0.00333511
0.00338354
0.00339894
0.00337476
0.00339367
0.00341547
0.00345209
0.00345256
0.00342534
0.00342936
0.00341703
0.00334972
0.00338035
0.00342785
0.00344877
0.00343196
0.0034491
0.00346955
0.003502
0.00350095
0.00347685
0.0034787
0.00346191
0.00339193
0.00341756
0.00346336
0.00348845
0.00347793
0.00349343
0.00351234
0.0035409
0.00353818
0.00351705
0.00351745
0.00349583
0.00342493
0.00344793
0.00349074
0.00351959
0.00351435
0.00352826
0.00354549
0.00357044
0.00356602
0.00354796
0.00354724
0.00352122
0.00345118
0.00347149
0.00351084
0.0035436
0.00354275
0.00355508
0.00357038
0.00359191
0.00358626
0.00357124
0.00356932
0.00354041
0.00347145
0.00348649
0.0035249
0.00356166
0.00356448
0.00357519
0.00358823
0.00360653
0.00360044
0.00358812
0.00358499
0.00355418
0.0034866
0.00349608
0.00353411
0.00357477
0.00358069
0.00358963
0.00360006
0.00361591
0.0036098
0.00359974
0.00359546
0.00356342
0.00349746
0.00350186
0.00353934
0.00358369
0.00359232
0.00359922
0.00360667
0.00362111
0.00361532
0.00360708
0.00360181
0.00356897
0.00350479
0.00350432
0.00354103
0.00358905
0.00360008
0.00360448
0.00360864
0.00362283
0.00361772
0.00361096
0.00360497
0.00357154
0.00350919
0.00350336
0.00353934
0.00359125
0.00360443
0.0036057
0.00360629
0.00362131
0.00361737
0.00361189
0.0036056
0.00357167
0.00351106
2.21486e-09
2.16731e-09
2.05553e-09
2.04442e-09
2.11597e-09
2.1324e-09
2.10866e-09
2.12708e-09
2.18171e-09
2.21065e-09
2.22663e-09
2.25947e-09
2.50966e-09
2.4719e-09
2.36124e-09
2.35111e-09
2.42104e-09
2.43044e-09
2.40214e-09
2.42713e-09
2.48789e-09
2.51228e-09
2.52153e-09
2.56183e-09
1.04406e-08
1.05415e-08
1.03366e-08
1.03339e-08
1.04442e-08
1.0334e-08
1.01951e-08
1.0366e-08
1.06038e-08
1.05735e-08
1.04676e-08
1.06792e-08
6.46495e-08
6.5693e-08
6.48495e-08
6.48951e-08
6.52601e-08
6.43266e-08
6.34462e-08
6.46184e-08
6.60769e-08
6.56904e-08
6.47885e-08
6.61264e-08
2.74815e-07
2.79692e-07
2.76649e-07
2.76902e-07
2.77995e-07
2.73738e-07
2.70055e-07
2.75162e-07
2.81322e-07
2.79507e-07
2.75409e-07
2.80954e-07
8.578e-07
8.73945e-07
8.65953e-07
8.66855e-07
8.69019e-07
8.55148e-07
8.43998e-07
8.60111e-07
8.78944e-07
8.72895e-07
8.59697e-07
8.76419e-07
2.14092e-06
2.18336e-06
2.16786e-06
2.17036e-06
2.17237e-06
2.13659e-06
2.10995e-06
2.1502e-06
2.19532e-06
2.17909e-06
2.1457e-06
2.18581e-06
4.50674e-06
4.60018e-06
4.57828e-06
4.58398e-06
4.58068e-06
4.50363e-06
4.45067e-06
4.53453e-06
4.62361e-06
4.58673e-06
4.51672e-06
4.59747e-06
8.28498e-06
8.46274e-06
8.44341e-06
8.45439e-06
8.43474e-06
8.29171e-06
8.20081e-06
8.35146e-06
8.50157e-06
8.42868e-06
8.30289e-06
8.44439e-06
1.36402e-05
1.3939e-05
1.39408e-05
1.3959e-05
1.39065e-05
1.36719e-05
1.35335e-05
1.37728e-05
1.39948e-05
1.38672e-05
1.36685e-05
1.389e-05
2.05128e-05
2.09653e-05
2.10137e-05
2.10398e-05
2.09356e-05
2.05889e-05
2.03977e-05
2.0741e-05
2.10355e-05
2.08349e-05
2.05533e-05
2.08691e-05
2.86342e-05
2.92615e-05
2.93832e-05
2.9416e-05
2.92433e-05
2.8773e-05
2.85295e-05
2.89816e-05
2.93398e-05
2.90517e-05
2.86871e-05
2.91034e-05
3.66911e-05
3.73928e-05
3.76525e-05
3.77009e-05
3.74859e-05
3.69893e-05
3.67094e-05
3.71408e-05
3.74606e-05
3.71011e-05
3.67296e-05
3.72382e-05
4.4101e-05
4.4922e-05
4.52483e-05
4.52958e-05
4.5026e-05
4.44441e-05
4.41272e-05
4.46256e-05
4.49813e-05
4.45573e-05
4.41411e-05
4.47275e-05
5.16607e-05
5.2603e-05
5.29981e-05
5.30379e-05
5.27047e-05
5.20343e-05
5.16859e-05
5.2254e-05
5.26419e-05
5.21542e-05
5.16979e-05
5.23541e-05
5.92675e-05
6.03333e-05
6.07998e-05
6.08242e-05
6.04178e-05
5.96572e-05
5.92834e-05
5.99229e-05
6.03372e-05
5.9787e-05
5.92962e-05
6.00123e-05
6.68241e-05
6.80157e-05
6.85561e-05
6.85562e-05
6.80665e-05
6.72147e-05
6.68228e-05
6.75341e-05
6.79673e-05
6.73565e-05
6.6838e-05
6.76027e-05
7.42483e-05
7.55683e-05
7.61846e-05
7.61509e-05
7.55678e-05
7.46247e-05
7.42224e-05
7.50051e-05
7.54484e-05
7.47794e-05
7.42411e-05
7.5042e-05
8.14777e-05
8.29299e-05
8.36226e-05
8.35453e-05
8.28584e-05
8.18244e-05
8.14205e-05
8.22731e-05
8.2717e-05
8.19923e-05
8.14433e-05
8.22669e-05
8.84767e-05
9.00672e-05
9.08364e-05
9.07051e-05
8.99029e-05
8.87771e-05
8.83814e-05
8.93031e-05
8.97382e-05
8.89597e-05
8.84096e-05
8.92412e-05
9.52469e-05
9.69874e-05
9.78325e-05
9.76355e-05
9.67035e-05
9.5482e-05
9.51061e-05
9.6099e-05
9.65161e-05
9.56842e-05
9.51426e-05
9.59653e-05
0.000101836
0.000103747
0.000104668
0.00010439
0.000103308
0.000101982
0.000101641
0.000102713
0.000103101
0.000102215
0.00010169
0.000102484
0.000108336
0.00011045
0.000111445
0.000111066
0.000109807
0.000108363
0.000108075
0.000109241
0.000109588
0.000108645
0.000108144
0.00010888
0.000114866
0.000117222
0.000118291
0.000117783
0.000116313
0.000114732
0.000114524
0.000115802
0.000116089
0.000115085
0.000114615
0.000115255
0.00012153
0.00012417
0.000125311
0.000124642
0.000122922
0.000121189
0.000121093
0.000122499
0.000122698
0.000121632
0.0001212
0.000121694
0.000128375
0.000131329
0.000132547
0.000131682
0.000129674
0.000127781
0.000127835
0.000129372
0.000129447
0.000128317
0.000127929
0.000128221
0.000135349
0.000138623
0.000139926
0.000138837
0.000136507
0.000134464
0.000134709
0.000136356
0.000136257
0.00013507
0.000134738
0.000134762
0.000142254
0.000145798
0.000147211
0.000145886
0.000143218
0.000141064
0.000141537
0.000143232
0.000142903
0.000141676
0.000141413
0.000141105
0.000148667
0.000152338
0.000153904
0.000152376
0.000149399
0.00014722
0.000147933
0.000149549
0.000148941
0.000147707
0.000147528
0.000146852
0.000153944
0.000157512
0.000159281
0.000157633
0.000154433
0.000152357
0.000153286
0.000154637
0.000153728
0.000152535
0.000152452
0.000151408
0.000157466
0.0001607
0.000162698
0.000161034
0.000157728
0.000155884
0.000156976
0.000157889
0.0001567
0.000155592
0.000155606
0.000154271
0.000159322
0.000162255
0.000164378
0.000162758
0.000159447
0.000157807
0.000158953
0.000159534
0.000158195
0.000157155
0.000157224
0.000155767
0.000159744
0.000162349
0.000164548
0.000163013
0.000159766
0.000158325
0.000159471
0.000159759
0.000158328
0.000157358
0.000157464
0.000155964
0.000158818
0.000161068
0.00016329
0.000161878
0.000158758
0.000157518
0.000158624
0.000158642
0.000157173
0.000156276
0.000156402
0.000154918
0.0001567
0.000158594
0.000160763
0.000159498
0.000156563
0.000155514
0.000156544
0.000156338
0.00015489
0.000154064
0.000154194
0.000152777
0.000153651
0.00015523
0.000157232
0.000156114
0.000153415
0.000152527
0.000153455
0.000153109
0.000151741
0.000150982
0.000151102
0.000149795
0.000150042
0.000151391
0.00015307
0.00015207
0.000149645
0.000148868
0.000149683
0.000149318
0.000148088
0.000147386
0.000147487
0.000146325
0.000146341
0.000147585
0.000148742
0.000147793
0.000145669
0.000144936
0.000145649
0.000145422
0.000144371
0.000143718
0.0001438
0.000142802
0.000143089
0.000144386
0.000144779
0.00014378
0.000141973
0.000141203
0.000141851
0.000141944
0.000141095
0.000140487
0.000140563
0.000139727
0.000140886
0.000142417
0.000141765
0.000140578
0.000139099
0.000138205
0.000138853
0.000139463
0.000138834
0.000138255
0.00013835
0.000137659
0.00014039
0.000142353
0.000140329
0.000138782
0.000137642
0.000136536
0.000137274
0.000138611
0.000138202
0.000137639
0.000137798
0.000137217
0.000142339
0.000144951
0.000141167
0.000139055
0.000138267
0.000136865
0.000137809
0.000140093
0.000139886
0.000139331
0.000139621
0.000139106
0.000147627
0.000151141
0.000145098
0.000142169
0.000141762
0.00013998
0.000141267
0.000144753
0.00014471
0.000144169
0.00014468
0.000144185
0.000157426
0.000162191
0.000153184
0.000149112
0.00014914
0.000146885
0.000148683
0.000153697
0.000153778
0.000153261
0.000154124
0.000153602
0.000173425
0.000179964
0.000166941
0.000161269
0.000161831
0.000158976
0.000161496
0.000168519
0.000168698
0.000168228
0.000169625
0.000169035
0.000198232
0.000207376
0.000188689
0.000180736
0.000181997
0.000178345
0.000181878
0.00019165
0.000191977
0.000191596
0.000193797
0.000193094
0.000235992
0.000249017
0.000222135
0.00021083
0.00021306
0.00020829
0.00021325
0.00022693
0.000227642
0.000227445
0.000230834
0.000229965
0.000292736
0.000310915
0.000273131
0.000256786
0.000260376
0.00025399
0.000260967
0.000280349
0.000281766
0.000281968
0.000287115
0.000285725
0.000376255
0.00039676
0.000347712
0.000322661
0.000328449
0.000320618
0.000330438
0.000358239
0.000350971
0.000355497
0.000369955
0.00036772
0.000468631
0.000480985
0.00042047
0.000387825
0.000395632
0.00039414
0.000410444
0.000437107
0.000424166
0.000430372
0.000449241
0.000446785
0.000569272
0.000582513
0.000510774