/*--------------------------------*- C++ -*----------------------------------*\
| =========                 |                                                 |
| \\      /  F ield         | OpenFOAM: The Open Source CFD Toolbox           |
|  \\    /   O peration     | Version:  v1912                                 |
|   \\  /    A nd           | Website:  www.openfoam.com                      |
|    \\/     M anipulation  |                                                 |
\*---------------------------------------------------------------------------*/
FoamFile
{
    version     2.0;
    format      ascii;
    class       volScalarField;
    location    "7.6";
    object      alphat;
}
// * * * * * * * * * * * * * * * * * * * * * * * * * * * * * * * * * * * * * //

dimensions      [1 -1 -1 0 0 0 0];


internalField   nonuniform List<scalar> 
34128
(
5.04064e-09
4.96609e-09
4.95171e-09
4.81125e-09
4.86824e-09
5.07215e-09
5.22419e-09
5.25025e-09
5.15333e-09
5.26474e-09
5.16443e-09
4.76693e-09
4.97113e-09
4.89377e-09
4.86247e-09
4.73199e-09
4.80336e-09
4.99385e-09
5.13947e-09
5.17814e-09
5.08926e-09
5.19745e-09
5.08724e-09
4.68174e-09
9.04745e-09
8.82066e-09
8.43778e-09
8.36061e-09
8.78188e-09
8.93308e-09
9.10762e-09
9.41006e-09
9.37858e-09
9.54132e-09
9.13201e-09
8.16209e-09
3.84735e-08
3.7194e-08
3.44491e-08
3.46991e-08
3.74929e-08
3.74628e-08
3.78462e-08
3.9884e-08
4.02344e-08
4.07958e-08
3.83433e-08
3.35231e-08
1.50531e-07
1.45254e-07
1.33531e-07
1.35184e-07
1.46994e-07
1.46119e-07
1.47064e-07
1.55606e-07
1.57623e-07
1.59632e-07
1.49384e-07
1.30309e-07
4.51332e-07
4.35714e-07
4.00146e-07
4.06077e-07
4.41781e-07
4.37814e-07
4.39539e-07
4.65354e-07
4.72544e-07
4.78188e-07
4.4703e-07
3.91034e-07
1.08541e-06
1.04987e-06
9.65579e-07
9.81483e-07
1.06581e-06
1.05298e-06
1.05481e-06
1.11657e-06
1.13616e-06
1.14886e-06
1.07411e-06
9.43914e-07
2.19781e-06
2.13255e-06
1.96755e-06
2.002e-06
2.16632e-06
2.13322e-06
2.13283e-06
2.25657e-06
2.30028e-06
2.32423e-06
2.1748e-06
1.92206e-06
3.88593e-06
3.78635e-06
3.50943e-06
3.57202e-06
3.84612e-06
3.77521e-06
3.76839e-06
3.98405e-06
4.06725e-06
4.10684e-06
3.84794e-06
3.42226e-06
6.16863e-06
6.0393e-06
5.62906e-06
5.72727e-06
6.13009e-06
6.00003e-06
5.98156e-06
6.31744e-06
6.45688e-06
6.5161e-06
6.11559e-06
5.475e-06
8.98512e-06
8.84068e-06
8.2914e-06
8.42747e-06
8.96133e-06
8.75162e-06
8.71637e-06
9.19379e-06
9.4047e-06
9.48683e-06
8.92058e-06
8.03916e-06
1.21736e-05
1.20665e-05
1.1401e-05
1.15703e-05
1.21748e-05
1.1894e-05
1.18407e-05
1.24159e-05
1.26757e-05
1.27724e-05
1.21082e-05
1.1017e-05
1.50458e-05
1.49473e-05
1.42547e-05
1.44106e-05
1.50607e-05
1.47164e-05
1.46431e-05
1.53287e-05
1.56531e-05
1.57729e-05
1.49687e-05
1.37376e-05
1.80499e-05
1.79697e-05
1.71966e-05
1.73644e-05
1.80818e-05
1.76708e-05
1.75752e-05
1.83705e-05
1.87639e-05
1.89068e-05
1.79588e-05
1.65491e-05
2.1147e-05
2.10952e-05
2.02508e-05
2.04277e-05
2.11992e-05
2.07178e-05
2.05985e-05
2.15016e-05
2.19682e-05
2.21331e-05
2.10391e-05
1.94642e-05
2.43043e-05
2.42896e-05
2.33851e-05
2.35683e-05
2.43786e-05
2.38248e-05
2.36807e-05
2.46885e-05
2.52321e-05
2.54181e-05
2.41753e-05
2.24516e-05
2.74981e-05
2.75268e-05
2.65746e-05
2.67609e-05
2.75943e-05
2.69689e-05
2.68e-05
2.7908e-05
2.85319e-05
2.87387e-05
2.73428e-05
2.54867e-05
3.07151e-05
3.0792e-05
2.98041e-05
2.99894e-05
3.08304e-05
3.01384e-05
2.99458e-05
3.11495e-05
3.1856e-05
3.2083e-05
3.05273e-05
2.85537e-05
3.39529e-05
3.40828e-05
3.30705e-05
3.32486e-05
3.40823e-05
3.33325e-05
3.31197e-05
3.44153e-05
3.52058e-05
3.54518e-05
3.37262e-05
3.16469e-05
3.72212e-05
3.74118e-05
3.63855e-05
3.65474e-05
3.73584e-05
3.65626e-05
3.63352e-05
3.77213e-05
3.85964e-05
3.88587e-05
3.69498e-05
3.47732e-05
4.05417e-05
4.08067e-05
3.97772e-05
3.99099e-05
4.06812e-05
3.98528e-05
3.96179e-05
4.10957e-05
4.20566e-05
4.23306e-05
4.02208e-05
3.79533e-05
4.39464e-05
4.43077e-05
4.32864e-05
4.33733e-05
4.40849e-05
4.32373e-05
4.30031e-05
4.45762e-05
4.56252e-05
4.59041e-05
4.35717e-05
4.12213e-05
4.74733e-05
4.79608e-05
4.69608e-05
4.69818e-05
4.76102e-05
4.67563e-05
4.65314e-05
4.82059e-05
4.93451e-05
4.96203e-05
4.704e-05
4.46193e-05
5.11619e-05
5.18123e-05
5.08464e-05
5.07768e-05
5.12968e-05
5.04507e-05
5.02451e-05
5.20285e-05
5.32588e-05
5.35209e-05
5.06653e-05
4.81889e-05
5.50518e-05
5.59059e-05
5.49834e-05
5.47919e-05
5.51797e-05
5.43598e-05
5.41867e-05
5.60881e-05
5.74078e-05
5.76496e-05
5.44875e-05
5.19663e-05
5.91847e-05
6.02871e-05
5.94107e-05
5.90559e-05
5.92919e-05
5.85245e-05
5.84023e-05
6.04339e-05
6.18391e-05
6.20591e-05
5.85522e-05
5.59831e-05
6.36124e-05
6.50163e-05
6.41811e-05
6.36037e-05
6.36723e-05
6.29954e-05
6.29502e-05
6.51297e-05
6.66161e-05
6.68234e-05
6.29192e-05
6.02743e-05
6.84085e-05
7.01876e-05
6.93837e-05
6.84938e-05
6.83797e-05
6.78454e-05
6.79132e-05
7.02657e-05
7.18319e-05
7.20507e-05
6.76774e-05
6.48926e-05
7.36814e-05
7.59518e-05
7.51705e-05
7.38291e-05
7.35068e-05
7.31846e-05
7.34123e-05
7.59718e-05
7.76231e-05
7.78991e-05
7.2959e-05
6.99283e-05
7.95911e-05
8.25429e-05
8.17866e-05
7.97829e-05
7.92e-05
7.9176e-05
7.96213e-05
8.24312e-05
8.41866e-05
8.45894e-05
7.89603e-05
7.55304e-05
8.63668e-05
9.03003e-05
8.95943e-05
8.66348e-05
8.5686e-05
8.60544e-05
8.67816e-05
8.98832e-05
9.17577e-05
9.23726e-05
8.59482e-05
8.19374e-05
9.42996e-05
9.96123e-05
9.89915e-05
9.47042e-05
9.32283e-05
9.41063e-05
9.51784e-05
9.85831e-05
0.000100598
0.000101552
9.42275e-05
8.94864e-05
0.000103741
0.000110987
0.000110483
0.000104351
0.000102113
0.000103641
0.000105136
0.00010887
0.000111076
0.000112573
0.0001042
9.85273e-05
0.00011527
0.000125224
0.000124849
0.000116147
0.000112809
0.000115158
0.000117178
0.000121284
0.000123768
0.000126123
0.000116511
0.000109623
0.000129756
0.000143555
0.000143274
0.000130948
0.000126023
0.000129406
0.00013209
0.000136632
0.000139533
0.000143236
0.000132144
0.000123623
0.000148528
0.0001679
0.000167588
0.000150059
0.000142812
0.000147496
0.000151047
0.000156121
0.000159652
0.000165462
0.000152611
0.000141832
0.000173667
0.000201295
0.000200641
0.00017552
0.000164795
0.000171116
0.000175824
0.000181576
0.000186061
0.000195203
0.000180294
0.000166308
0.000208528
0.000248717
0.000247053
0.000210672
0.000194544
0.000202863
0.000209159
0.000215821
0.000221781
0.000236155
0.000218902
0.000200459
0.000258092
0.000317735
0.000314098
0.00025964
0.000235941
0.00024688
0.000255378
0.000263161
0.000271334
0.000286067
0.00026343
0.000249666
0.000306979
0.000393472
0.000395405
0.000306786
0.000281222
0.00030919
0.000320759
0.000323137
0.000327206
0.000340091
0.000312465
0.000298586
0.000371693
0.000485641
0.000488697
0.000369603
0.000335197
0.000378185
0.000396978
0.000389478
0.000394171
0.000410236
0.000377403
0.000361164
0.000453812
0.000600011
0.000604348
0.000449024
0.000405458
0.000460895
0.000485582
0.000473291
0.000477612
0.000496622
0.000458523
0.000441008
0.000554645
0.000739421
0.000745049
0.000545932
0.00049245
0.000562556
0.000594505
0.000577543
0.000579706
0.000601607
0.000557589
0.000539015
0.000676719
0.000905602
0.000912083
0.000662493
0.000598181
0.000685659
0.000726892
0.000704675
0.000703881
0.000727652
0.000677089
0.000657528
0.000821737
0.00109922
0.00110446
0.000800035
0.000724864
0.000832064
0.000887347
0.000855342
0.000853088
0.00087631
0.000818755
0.000798075
0.000989971
0.00132151
0.00131857
0.000958513
0.000873603
0.0010019
0.00107876
0.00102928
0.00102637
0.00104757
0.000983036
0.000960814
0.00117987
0.0015628
0.00154841
0.00113621
0.0010438
0.00119292
0.00129388
0.00122448
0.00122121
0.00123934
0.00116864
0.00114428
0.00138794
0.00181144
0.00178633
0.00132973
0.00123278
0.00140019
0.00152371
0.0014364
0.00143345
0.00144732
0.00137222
0.00134544
0.00160908
0.00205698
0.00202416
0.00153442
0.00143579
0.00161654
0.0017577
0.00165814
0.00165713
0.00166531
0.00158846
0.00156011
0.00183715
0.00229085
0.00225432
0.00174499
0.00164649
0.00183351
0.00198597
0.00188057
0.00188493
0.00188605
0.0018106
0.00178338
0.0020655
0.00250575
0.00247049
0.00195613
0.00185785
0.0020427
0.00219999
0.0020958
0.00210877
0.00210236
0.00203144
0.00200921
0.00228655
0.00269155
0.00266739
0.00216223
0.00206298
0.00223694
0.00239369
0.00229691
0.00232027
0.00230795
0.00224409
0.00223035
0.00248252
0.00284924
0.0028414
0.00232934
0.0022556
0.00241069
0.00256384
0.00247889
0.00251419
0.00249757
0.00244234
0.00243959
0.00249527
0.0029809
0.00299104
0.00228796
0.00243094
0.00256087
0.00270872
0.00263924
0.00268688
0.00261517
0.00262098
0.00263084
0.00252906
0.00308852
0.00311631
0.0022763
0.0023032
0.00233129
0.00262371
0.00277787
0.00283633
0.00259611
0.00264859
0.00276904
0.00259468
0.00317474
0.00321789
0.00230651
0.00215932
0.00214068
0.00243471
0.00289456
0.00296243
0.00259149
0.00264618
0.00294685
0.00268273
0.00324266
0.00329738
0.00237151
0.0020802
0.0020245
0.00232316
0.00281657
0.00306623
0.00260347
0.00265996
0.00306859
0.00279024
0.00329564
0.00335774
0.00246371
0.00205043
0.0019626
0.0022882
0.00261371
0.00314914
0.00263296
0.00268484
0.00316788
0.00291651
0.00333662
0.00340279
0.00257633
0.00205572
0.00193997
0.00231594
0.00246427
0.00321356
0.0026802
0.00271514
0.00324804
0.00306043
0.00336809
0.00343484
0.0027028
0.00208733
0.00194889
0.00239733
0.00237812
0.00326189
0.00274492
0.00274785
0.00331254
0.00321731
0.00339202
0.00345692
0.0028365
0.00214016
0.00198682
0.00252556
0.00234156
0.00329659
0.00282652
0.00278208
0.00336447
0.00337474
0.00341
0.0034715
0.00297055
0.00221093
0.00205483
0.00269367
0.00234306
0.00332007
0.00292395
0.00281875
0.00340629
0.00341407
0.00342327
0.00348033
0.00309786
0.00229723
0.00215645
0.00289466
0.00237352
0.00333449
0.00303501
0.00286005
0.00343988
0.00343035
0.00343285
0.00348457
0.0032118
0.00239709
0.00229671
0.00311463
0.00242679
0.00319841
0.00315772
0.0029088
0.00346671
0.0034423
0.00343939
0.00348498
0.00330731
0.00250949
0.00247992
0.00333315
0.00249901
0.00305953
0.00328687
0.00296805
0.00348791
0.00345039
0.00344328
0.0034821
0.00338216
0.00263468
0.00270431
0.00335949
0.00258763
0.00294099
0.00336318
0.00304101
0.00350437
0.00345507
0.00344449
0.00347647
0.00343779
0.00277344
0.00295752
0.00337676
0.00269134
0.00283823
0.00336691
0.00313079
0.00351676
0.00345674
0.00344265
0.00346842
0.00345916
0.00292573
0.0032118
0.00339069
0.00280738
0.00275011
0.00336792
0.00324038
0.00352552
0.00345583
0.00343702
0.00345866
0.00345693
0.003092
0.00334923
0.00340136
0.0029318
0.00267769
0.00336663
0.0033722
0.00353093
0.00345282
0.00342886
0.00344725
0.00345087
0.0032673
0.00336538
0.00340895
0.00306059
0.00262028
0.00336345
0.00342014
0.00353317
0.0034482
0.00341952
0.00343426
0.00344149
0.00337884
0.00337782
0.00341373
0.00318963
0.00257651
0.00335885
0.00342647
0.00353322
0.00344246
0.00340959
0.00342002
0.00342945
0.0033846
0.00338685
0.00341617
0.00331276
0.00254594
0.0033534
0.00343157
0.00353229
0.00343605
0.00339957
0.003405
0.00341552
0.00338751
0.00339285
0.00341719
0.00340239
0.00252876
0.00334777
0.00343549
0.00352997
0.00342939
0.00338992
0.00338978
0.00340061
0.00338802
0.00339633
0.00341676
0.00340426
0.00252577
0.00334276
0.0034384
0.00352634
0.00342287
0.00338112
0.00337505
0.00338572
0.00338695
0.00339789
0.00341579
0.00340503
0.00253842
0.00333925
0.00344056
0.00352186
0.00341682
0.00337369
0.00336192
0.00337184
0.00338482
0.00339823
0.00341603
0.00340539
0.00256892
0.00333808
0.00344226
0.00351709
0.00341167
0.00336811
0.00335189
0.00335991
0.00338219
0.00339821
0.00341741
0.0034053
0.00262026
0.00333993
0.00344383
0.00351252
0.00340775
0.00336481
0.00334511
0.00335081
0.00338
0.00339813
0.00341975
0.00340486
0.00269546
0.00334512
0.00344555
0.00350854
0.00340566
0.00336403
0.00334263
0.00334623
0.0033776
0.00339745
0.00342267
0.00340605
0.00279624
0.00335349
0.00344764
0.00350531
5.39555e-09
5.29105e-09
5.2503e-09
5.13741e-09
5.22871e-09
5.40823e-09
5.55797e-09
5.61207e-09
5.51802e-09
5.64578e-09
5.52606e-09
5.07781e-09
5.17979e-09
5.07553e-09
5.03497e-09
4.93599e-09
5.02962e-09
5.19354e-09
5.33368e-09
5.39118e-09
5.29959e-09
5.42244e-09
5.30388e-09
4.86922e-09
6.94339e-09
6.72558e-09
6.63531e-09
6.68728e-09
6.93013e-09
6.98952e-09
7.0997e-09
7.28198e-09
7.14862e-09
7.31642e-09
7.08032e-09
6.42055e-09
1.96249e-08
1.86047e-08
1.81704e-08
1.93144e-08
2.07516e-08
1.99255e-08
1.97933e-08
2.08667e-08
2.04582e-08
2.09457e-08
1.98451e-08
1.76129e-08
6.7571e-08
6.36586e-08
6.20482e-08
6.72981e-08
7.32078e-08
6.89951e-08
6.78567e-08
7.21861e-08
7.08495e-08
7.25362e-08
6.81497e-08
6.0169e-08
1.944e-07
1.83378e-07
1.79203e-07
1.95395e-07
2.12877e-07
1.99437e-07
1.95297e-07
2.07952e-07
2.04462e-07
2.09286e-07
1.96167e-07
1.7362e-07
4.57783e-07
4.33656e-07
4.25872e-07
4.64802e-07
5.05169e-07
4.72055e-07
4.60973e-07
4.901e-07
4.82717e-07
4.93946e-07
4.6286e-07
4.11837e-07
9.13323e-07
8.70319e-07
8.603e-07
9.38072e-07
1.01492e-06
9.47305e-07
9.23118e-07
9.78789e-07
9.65478e-07
9.87561e-07
9.26221e-07
8.29731e-07
1.59565e-06
1.53067e-06
1.52469e-06
1.65891e-06
1.78436e-06
1.66544e-06
1.62028e-06
1.71217e-06
1.69064e-06
1.72866e-06
1.62381e-06
1.46573e-06
2.50695e-06
2.42202e-06
2.43272e-06
2.6385e-06
2.81942e-06
2.63466e-06
2.56015e-06
2.6942e-06
2.66189e-06
2.72094e-06
2.56126e-06
2.33032e-06
3.61861e-06
3.5212e-06
3.56712e-06
3.85354e-06
4.08968e-06
3.83129e-06
3.71988e-06
3.8958e-06
3.84963e-06
3.93431e-06
3.71263e-06
3.40469e-06
4.86387e-06
4.75062e-06
4.85781e-06
5.22333e-06
5.49619e-06
5.18154e-06
5.02972e-06
5.21956e-06
5.13835e-06
5.2429e-06
4.99128e-06
4.64038e-06
5.97375e-06
5.86612e-06
6.03508e-06
6.46201e-06
6.76925e-06
6.41475e-06
6.22593e-06
6.42604e-06
6.32354e-06
6.45463e-06
6.15619e-06
5.75194e-06
7.12209e-06
7.03398e-06
7.27963e-06
7.7603e-06
8.09338e-06
7.71201e-06
7.48498e-06
7.68259e-06
7.55691e-06
7.71619e-06
7.37336e-06
6.92332e-06
8.29316e-06
8.23991e-06
8.57727e-06
9.10149e-06
9.45035e-06
9.05855e-06
8.79299e-06
8.9731e-06
8.82207e-06
9.01061e-06
8.62772e-06
8.14129e-06
9.47493e-06
9.47245e-06
9.91579e-06
1.04711e-05
1.0825e-05
1.0443e-05
1.01395e-05
1.02851e-05
1.01059e-05
1.03243e-05
9.90744e-06
9.39472e-06
1.06602e-05
1.07243e-05
1.12863e-05
1.18581e-05
1.22064e-05
1.18583e-05
1.15185e-05
1.16113e-05
1.13999e-05
1.1648e-05
1.12051e-05
1.06758e-05
1.18472e-05
1.19932e-05
1.2684e-05
1.32559e-05
1.35892e-05
1.33023e-05
1.29289e-05
1.29498e-05
1.27009e-05
1.29781e-05
1.25185e-05
1.19809e-05
1.30401e-05
1.32824e-05
1.41093e-05
1.46636e-05
1.49743e-05
1.47781e-05
1.43749e-05
1.43048e-05
1.40117e-05
1.43169e-05
1.38508e-05
1.33114e-05
1.42491e-05
1.46016e-05
1.55687e-05
1.60872e-05
1.63705e-05
1.62948e-05
1.58661e-05
1.5687e-05
1.53422e-05
1.5674e-05
1.52121e-05
1.46743e-05
1.54913e-05
1.59671e-05
1.70762e-05
1.75414e-05
1.77952e-05
1.78683e-05
1.74186e-05
1.71141e-05
1.67092e-05
1.70661e-05
1.6619e-05
1.60838e-05
1.67904e-05
1.74028e-05
1.86536e-05
1.90485e-05
1.92732e-05
1.95225e-05
1.90557e-05
1.86101e-05
1.81363e-05
1.85176e-05
1.80957e-05
1.756e-05
1.81765e-05
1.8939e-05
2.03288e-05
2.06369e-05
2.08362e-05
2.12882e-05
2.08074e-05
2.02056e-05
1.96537e-05
2.00597e-05
1.9673e-05
1.91289e-05
1.96867e-05
2.06128e-05
2.21361e-05
2.234e-05
2.25209e-05
2.32022e-05
2.27103e-05
2.1938e-05
2.12985e-05
2.17317e-05
2.1388e-05
2.08207e-05
2.13657e-05
2.24705e-05
2.41191e-05
2.41981e-05
2.43711e-05
2.53093e-05
2.48093e-05
2.38532e-05
2.31177e-05
2.35844e-05
2.32868e-05
2.26712e-05
2.32698e-05
2.45739e-05
2.6339e-05
2.62643e-05
2.64418e-05
2.76666e-05
2.7163e-05
2.60116e-05
2.51733e-05
2.56863e-05
2.543e-05
2.47258e-05
2.54736e-05
2.70119e-05
2.88877e-05
2.86144e-05
2.8808e-05
3.03527e-05
2.98519e-05
2.84947e-05
2.75507e-05
2.81328e-05
2.79024e-05
2.70494e-05
2.80797e-05
2.99142e-05
3.19037e-05
3.13606e-05
3.15754e-05
3.34803e-05
3.29906e-05
3.14161e-05
3.03695e-05
3.1058e-05
3.08259e-05
2.97394e-05
3.12322e-05
3.34704e-05
3.55913e-05
3.46675e-05
3.4895e-05
3.72114e-05
3.67424e-05
3.4934e-05
3.37952e-05
3.46492e-05
3.43764e-05
3.29442e-05
3.51351e-05
3.79538e-05
4.02433e-05
3.87729e-05
3.89811e-05
4.17768e-05
4.1338e-05
3.92672e-05
3.80561e-05
3.91661e-05
3.88069e-05
3.6885e-05
4.00755e-05
4.37526e-05
4.62717e-05
4.40142e-05
4.41352e-05
4.74995e-05
4.70975e-05
4.47176e-05
4.34639e-05
4.49669e-05
4.44776e-05
4.18859e-05
4.64573e-05
5.14168e-05
5.42559e-05
5.08673e-05
5.07774e-05
5.48251e-05
5.44603e-05
5.16907e-05
5.04376e-05
5.25455e-05
5.19032e-05
4.84133e-05
5.46556e-05
6.15557e-05
6.48545e-05
5.98078e-05
5.9291e-05
6.41839e-05
6.3856e-05
6.05607e-05
5.93708e-05
6.24327e-05
6.16523e-05
5.69429e-05
6.5308e-05
7.51654e-05
7.91284e-05
7.16233e-05
7.03173e-05
7.62755e-05
7.59807e-05
7.19381e-05
7.09001e-05
7.54911e-05
7.46762e-05
6.8282e-05
7.94228e-05
9.38376e-05
9.87565e-05
8.75594e-05
8.48564e-05
9.21774e-05
9.19022e-05
8.67602e-05
8.6e-05
9.30799e-05
9.25238e-05
8.37372e-05
9.85934e-05
0.000120138
0.000126405
0.000109548
0.00010447
0.000113552
0.000113261
0.000106457
0.000106155
0.000117268
0.00011766
0.000105429
0.000125324
0.000158079
0.000165466
0.000137014
0.000131564
0.000143014
0.000142623
0.000133227
0.000133549
0.000145501
0.00014721
0.000134746
0.000159358
0.000202241
0.000208744
0.00016933
0.000164671
0.000184546
0.000183982
0.000169406
0.000165208
0.000180302
0.000183868
0.000167595
0.000199788
0.000259394
0.000266744
0.000212169
0.000204839
0.000233436
0.000238047
0.000210561
0.000205
0.000226243
0.000232964
0.000211699
0.000253816
0.00033629
0.00034429
0.000269014
0.000258079
0.000296219
0.000303662
0.000265004
0.000257458
0.000286959
0.000298692
0.000271024
0.000326061
0.000436005
0.00044369
0.000344044
0.000328702
0.000379412
0.000390935
0.000336926
0.000326725
0.000365718
0.000384192
0.000350088
0.00041938
0.00056229
0.000568559
0.000439183
0.000419209
0.000485336
0.000502702
0.000428014
0.000414944
0.000464766
0.000492601
0.00045145
0.000536984
0.000718218
0.00072185
0.000557689
0.000532285
0.000617631
0.000642758
0.000538742
0.000524252
0.000587171
0.000627297
0.000579109
0.000681984
0.000903917
0.000904427
0.000702053
0.000670769
0.000779079
0.000812651
0.000671328
0.000656329
0.000734851
0.000790019
0.000735914
0.000855579
0.00111409
0.00111427
0.000872984
0.000835792
0.000969675
0.00100597
0.000828034
0.000810761
0.00090777
0.000979958
0.000922442
0.00105609
0.00133539
0.00134631
0.00106873
0.00102595
0.00118539
0.0012116
0.00100866
0.000988313
0.00110346
0.00119336
0.00113615
0.00127856
0.00156311
0.00159283
0.00128479
0.00123689
0.00141826
0.00142761
0.00121023
0.00118738
0.001317
0.00142391
0.00137109
0.00151512
0.00179277
0.00184435
0.00151424
0.00146165
0.0016576
0.00164853
0.00142704
0.00140352
0.00154151
0.00166345
0.00161828
0.00175598
0.00201863
0.00209122
0.0017487
0.00169155
0.00189207
0.00186748
0.00165157
0.00163013
0.00176891
0.00190238
0.00173999
0.00188738
0.00223444
0.00232512
0.00197967
0.00191757
0.00211171
0.00207669
0.00187645
0.00185948
0.00199076
0.00213107
0.00173247
0.00183284
0.00235857
0.00254006
0.00209338
0.00213158
0.00230926
0.00226951
0.00209356
0.00208407
0.00203428
0.00216088
0.00176266
0.00179648
0.00239709
0.00273235
0.00209221
0.00223642
0.0023781
0.00244097
0.00229539
0.00229795
0.00201348
0.00218615
0.0018493
0.00179574
0.00246586
0.0029001
0.00211666
0.00215624
0.0022359
0.00223361
0.00247587
0.00249466
0.00200385
0.00223714
0.00199442
0.00182781
0.00256586
0.00303368
0.00217325
0.00208803
0.00211325
0.00204035
0.00236844
0.00267026
0.00200621
0.0023078
0.0022037
0.00188783
0.0026861
0.00313717
0.0022561
0.00205623
0.00203363
0.00191348
0.00217874
0.00282135
0.00201994
0.00238887
0.00248218
0.00196939
0.00281779
0.00325394
0.00235803
0.00205775
0.00198538
0.00184173
0.00201555
0.00294752
0.00204439
0.00247008
0.00283588
0.00206645
0.00295219
0.00332846
0.00247289
0.00208167
0.00195307
0.0018121
0.00189104
0.00304919
0.00207883
0.00254193
0.00324556
0.00217415
0.00308102
0.00338484
0.00259571
0.00211977
0.00192784
0.00181435
0.00180256
0.00312845
0.00212281
0.00259649
0.00334304
0.00228956
0.00320023
0.00342631
0.00272208
0.00216653
0.00190725
0.00184278
0.0017434
0.0031877
0.00217628
0.00263032
0.00339144
0.00241276
0.00330927
0.00345768
0.00284784
0.00221722
0.001893
0.00189574
0.00170642
0.00317619
0.00223992
0.00264536
0.00342973
0.00254718
0.00338272
0.00348159
0.00296894
0.00226683
0.00188892
0.00197444
0.00168745
0.00304573
0.0023156
0.00264643
0.00346082
0.00269774
0.00340467
0.0034998
0.00308194
0.00231031
0.00189962
0.0020817
0.00168504
0.00288991
0.00240544
0.00263984
0.0034855
0.00286769
0.00342102
0.00351355
0.00318484
0.00234405
0.00192976
0.00221972
0.00169946
0.0027272
0.00251068
0.00263242
0.00350528
0.00305847
0.00343272
0.00352369
0.00327796
0.00236769
0.00198393
0.00238737
0.00173212
0.00256487
0.00263181
0.00263096
0.00352117
0.00326644
0.00344051
0.00353076
0.00336424
0.00238545
0.00206635
0.00257824
0.00178439
0.00241178
0.00276745
0.00264174
0.00353383
0.00345365
0.00344494
0.0035351
0.00345048
0.00240592
0.00218046
0.00278012
0.00185681
0.00227577
0.00291287
0.00267005
0.00354369
0.00345804
0.00344642
0.00353672
0.0035141
0.0024405
0.00232767
0.00297755
0.00194917
0.00216119
0.00305777
0.00272007
0.003551
0.00345933
0.00344527
0.00353575
0.00351762
0.00250072
0.0025049
0.00315669
0.00206082
0.00206846
0.00318486
0.00279495
0.00355595
0.00345794
0.00344172
0.0035318
0.00351818
0.00259558
0.00270321
0.00330591
0.00219065
0.0019962
0.00327067
0.00289715
0.0035587
0.00345431
0.00343596
0.00352521
0.00351598
0.00272976
0.00290986
0.00340677
0.00233661
0.00194312
0.00329523
0.00302866
0.00355949
0.00344889
0.00342835
0.00351642
0.00351134
0.00290248
0.00311449
0.00341183
0.00249583
0.00190834
0.00325345
0.00319156
0.00355857
0.00344226
0.00341922
0.00350568
0.00350453
0.00310893
0.00330505
0.00341398
0.00266473
0.00189106
0.00315363
0.00338738
0.00341188
0.0034349
0.00340902
0.00349327
0.00349565
0.00332569
0.00340923
0.00341715
0.00283835
0.00189052
0.00302113
0.00342672
0.00331091
0.00342738
0.00339839
0.00347958
0.00348487
0.00340858
0.00341265
0.00342132
0.00301033
0.00190595
0.00289162
0.00342879
0.00326445
0.00342025
0.00338803
0.00346508
0.00347225
0.00340832
0.00341363
0.00342619
0.00317471
0.0019365
0.00279285
0.00343077
0.00326828
0.0034141
0.00337866
0.00345005
0.00345796
0.00340705
0.00341291
0.00343049
0.0033233
0.00198151
0.00274012
0.00343311
0.00331623
0.00340934
0.003371
0.00343455
0.0034424
0.00340365
0.00341117
0.00343479
0.00339952
0.00204101
0.00273904
0.00343623
0.00340199
0.00340634
0.00336568
0.00342024
0.0034261
0.00339762
0.00340904
0.00343927
0.00341048
0.00211614
0.00278845
0.00344041
0.00351036
0.00340524
0.00336313
0.00340762
0.00340883
0.00339082
0.00340692
0.00344385
0.00342026
0.00220837
0.00288208
0.00344574
0.00352117
5.81045e-09
5.70055e-09
5.65493e-09
5.56179e-09
5.66818e-09
5.81685e-09
5.95636e-09
6.03555e-09
5.97398e-09
6.13325e-09
5.97026e-09
5.46884e-09
5.674e-09
5.57526e-09
5.53071e-09
5.44163e-09
5.54884e-09
5.68737e-09
5.81818e-09
5.90258e-09
5.85325e-09
6.01274e-09
5.83764e-09
5.33523e-09
9.2824e-09
9.27898e-09
9.202e-09
9.0965e-09
9.33461e-09
9.43321e-09
9.53737e-09
9.80314e-09
9.93231e-09
1.02606e-08
9.6799e-09
8.64306e-09
3.58761e-08
3.6464e-08
3.61318e-08
3.58843e-08
3.70385e-08
3.6944e-08
3.69035e-08
3.83744e-08
3.96801e-08
4.11614e-08
3.78469e-08
3.31481e-08
1.36689e-07
1.39677e-07
1.38385e-07
1.37595e-07
1.42116e-07
1.41283e-07
1.40569e-07
1.46455e-07
1.52294e-07
1.57951e-07
1.44461e-07
1.2643e-07
4.05244e-07
4.15475e-07
4.11923e-07
4.09572e-07
4.22448e-07
4.19483e-07
4.16586e-07
4.33796e-07
4.51948e-07
4.68088e-07
4.28141e-07
3.76433e-07
9.6666e-07
9.94394e-07
9.87329e-07
9.81155e-07
1.00942e-06
1.00159e-06
9.93422e-07
1.03318e-06
1.07727e-06
1.11367e-06
1.0205e-06
9.03204e-07
1.94433e-06
2.00705e-06
1.99678e-06
1.98234e-06
2.03261e-06
2.01594e-06
1.99773e-06
2.0744e-06
2.16324e-06
2.23166e-06
2.05065e-06
1.82882e-06
3.42031e-06
3.54319e-06
3.53298e-06
3.5027e-06
3.57793e-06
3.54851e-06
3.5146e-06
3.64231e-06
3.79702e-06
3.90868e-06
3.60403e-06
3.23983e-06
5.4129e-06
5.62467e-06
5.6207e-06
5.56352e-06
5.66113e-06
5.61751e-06
5.56277e-06
5.75259e-06
5.99221e-06
6.15549e-06
5.69692e-06
5.16129e-06
7.87649e-06
8.20417e-06
8.21356e-06
8.1157e-06
8.22817e-06
8.17388e-06
8.09517e-06
8.35255e-06
8.6903e-06
8.90946e-06
8.27714e-06
7.5539e-06
1.07186e-05
1.11107e-05
1.10999e-05
1.09754e-05
1.11137e-05
1.10834e-05
1.0991e-05
1.12892e-05
1.16832e-05
1.19378e-05
1.11768e-05
1.02925e-05
1.33069e-05
1.37747e-05
1.37585e-05
1.35894e-05
1.37394e-05
1.37184e-05
1.36126e-05
1.3966e-05
1.4438e-05
1.47315e-05
1.38216e-05
1.27798e-05
1.60082e-05
1.65818e-05
1.65611e-05
1.63395e-05
1.64926e-05
1.64827e-05
1.63655e-05
1.67755e-05
1.73274e-05
1.76539e-05
1.65936e-05
1.54035e-05
1.88109e-05
1.95017e-05
1.94789e-05
1.91955e-05
1.93412e-05
1.93455e-05
1.92195e-05
1.96867e-05
2.03187e-05
2.06711e-05
1.94595e-05
1.81338e-05
2.16908e-05
2.25111e-05
2.24894e-05
2.21325e-05
2.22589e-05
2.22834e-05
2.21517e-05
2.26761e-05
2.3387e-05
2.37569e-05
2.23934e-05
2.09456e-05
2.46326e-05
2.55968e-05
2.55794e-05
2.5134e-05
2.52294e-05
2.52826e-05
2.51493e-05
2.57307e-05
2.65179e-05
2.68957e-05
2.53788e-05
2.38225e-05
2.76309e-05
2.87569e-05
2.87462e-05
2.81942e-05
2.82473e-05
2.834e-05
2.82096e-05
2.8848e-05
2.97075e-05
3.00833e-05
2.84108e-05
2.67584e-05
3.06902e-05
3.20016e-05
3.19996e-05
3.13201e-05
3.13208e-05
3.14642e-05
3.1341e-05
3.20354e-05
3.29634e-05
3.3327e-05
3.14966e-05
2.97589e-05
3.38255e-05
3.53536e-05
3.5364e-05
3.45328e-05
3.44711e-05
3.4676e-05
3.45629e-05
3.53104e-05
3.63043e-05
3.66472e-05
3.4657e-05
3.28432e-05
3.70627e-05
3.88485e-05
3.88788e-05
3.78677e-05
3.77324e-05
3.80102e-05
3.79071e-05
3.87006e-05
3.97601e-05
4.0076e-05
3.79255e-05
3.60447e-05
4.04379e-05
4.25332e-05
4.2595e-05
4.13714e-05
4.11498e-05
4.15132e-05
4.14163e-05
4.22436e-05
4.33698e-05
4.3656e-05
4.13464e-05
3.94077e-05
4.39945e-05
4.64625e-05
4.65723e-05
4.5098e-05
4.4776e-05
4.52408e-05
4.51426e-05
4.59838e-05
4.71788e-05
4.74383e-05
4.49721e-05
4.29833e-05
4.77802e-05
5.06978e-05
5.0879e-05
4.91072e-05
4.86695e-05
4.92565e-05
4.91465e-05
4.9972e-05
5.12378e-05
5.14823e-05
4.88641e-05
4.68274e-05
5.18493e-05
5.53121e-05
5.55987e-05
5.34684e-05
5.28969e-05
5.36348e-05
5.34996e-05
5.42665e-05
5.56057e-05
5.58613e-05
5.30979e-05
5.10038e-05
5.62676e-05
6.04005e-05
6.08448e-05
5.82725e-05
5.75422e-05
5.84706e-05
5.82933e-05
5.89393e-05
6.03563e-05
6.06716e-05
5.77743e-05
5.55958e-05
6.11239e-05
6.6097e-05
6.67774e-05
6.36482e-05
6.27201e-05
6.38931e-05
6.36512e-05
6.40852e-05
6.55878e-05
6.60443e-05
6.30362e-05
6.07245e-05
6.65447e-05
7.25917e-05
7.36205e-05
6.97815e-05
6.85935e-05
7.00824e-05
6.9743e-05
6.98325e-05
7.14335e-05
7.21584e-05
6.90873e-05
6.65723e-05
7.2711e-05
8.01467e-05
8.16756e-05
7.69336e-05
7.53896e-05
7.72832e-05
7.67971e-05
7.6353e-05
7.80712e-05
7.92542e-05
7.6212e-05
7.34061e-05
7.98752e-05
8.91091e-05
9.13284e-05
8.54577e-05
8.34156e-05
8.58167e-05
8.51094e-05
8.38722e-05
8.57346e-05
8.76452e-05
8.47952e-05
8.15999e-05
8.83789e-05
9.99164e-05
0.000103048
9.58044e-05
9.30691e-05
9.60834e-05
9.50437e-05
9.26764e-05
9.47139e-05
9.77269e-05
9.53346e-05
9.16474e-05
9.8659e-05
0.000113129
0.000117439
0.000108536
0.000104839
0.000108563
0.000107032
0.000103118
0.000105365
0.00011002
0.000108493
0.000104172
0.0001113
0.000129621
0.000135456
0.000124497
0.000119409
0.000123938
0.000121696
0.000115681
0.000118195
0.000125317
0.000125309
0.000120106
0.000127255
0.000150787
0.000158584
0.000145031
0.000137868
0.000143269
0.000140003
0.000131128
0.000133997
0.000144856
0.000147463
0.000140966
0.000148023
0.000178825
0.000189102
0.000172243
0.000161886
0.000168143
0.000163406
0.00015061
0.000153957
0.000170564
0.000177712
0.000169223
0.000176007
0.000217295
0.000230592
0.000209518
0.000194073
0.000200939
0.000194072
0.00017588
0.000179886
0.000205422
0.000220528
0.000209071
0.000215053
0.000271601
0.000288499
0.000262119
0.000238539
0.000245329
0.000235312
0.000209691
0.000214486
0.000247801
0.000271483
0.000267223
0.000264646
0.000328413
0.00035719
0.000324826
0.000296546
0.000306808
0.000292385
0.000254871
0.000254886
0.000293283
0.000327168
0.000325681
0.000317186
0.000400026
0.000436387
0.000396157
0.000358329
0.000381161
0.000370793
0.000301862
0.000300969
0.000353123
0.000401019
0.000400652
0.000387131
0.000490422
0.000535299
0.000486974
0.000439183
0.000466541
0.000452653
0.000363464
0.000361525
0.000429045
0.000493416
0.000495731
0.000474987
0.0006008
0.000656349
0.00059868
0.00053979
0.000571756
0.000553496
0.000441127
0.000437645
0.000522323
0.000606992
0.000612512
0.000583061
0.000733252
0.000801933
0.000733657
0.000662937
0.000699648
0.000675755
0.000536314
0.000530676
0.000635421
0.000743799
0.000752557
0.000713861
0.000888377
0.000972975
0.000893003
0.000810857
0.000852615
0.000819406
0.000652046
0.000643344
0.000770144
0.000904387
0.000915639
0.000868703
0.00106481
0.00116819
0.00107594
0.000984177
0.00103166
0.000983622
0.000790809
0.000778139
0.000927086
0.00108739
0.00109956
0.00104713
0.00125939
0.00138355
0.00127965
0.00118128
0.00123413
0.00116704
0.000953524
0.00093655
0.00110516
0.0012896
0.00130055
0.00124658
0.00146774
0.00161225
0.00149949
0.00139796
0.00145237
0.00136668
0.00113894
0.00111797
0.00130134
0.0015068
0.00151443
0.00146252
0.00168412
0.00184602
0.00172944
0.00162767
0.00167857
0.00157661
0.00134324
0.00131939
0.00151067
0.00173607
0.00173865
0.00168913
0.00190251
0.00207675
0.00196281
0.00186224
0.00190448
0.00178909
0.00156016
0.00153555
0.00172677
0.00197296
0.0019764
0.00191914
0.00211697
0.00229734
0.00219272
0.00209297
0.00212226
0.00199615
0.00178162
0.00175943
0.00194266
0.00220395
0.00207972
0.00204891
0.0023213
0.00250202
0.00241241
0.00231172
0.00232512
0.00219107
0.00199858
0.00198311
0.00210956
0.00241926
0.00205949
0.00195905
0.00248032
0.00268663
0.0026154
0.00251155
0.00250749
0.00236875
0.00220173
0.00219872
0.00206034
0.00261151
0.00210114
0.00190925
0.00248719
0.00284853
0.00279649
0.00268681
0.00266471
0.00252496
0.00238403
0.00239896
0.00202412
0.002764
0.00221683
0.00190859
0.00251976
0.00298665
0.0029531
0.00280896
0.00279397