/*--------------------------------*- C++ -*----------------------------------*\
| =========                 |                                                 |
| \\      /  F ield         | OpenFOAM: The Open Source CFD Toolbox           |
|  \\    /   O peration     | Version:  v1912                                 |
|   \\  /    A nd           | Website:  www.openfoam.com                      |
|    \\/     M anipulation  |                                                 |
\*---------------------------------------------------------------------------*/
FoamFile
{
    version     2.0;
    format      ascii;
    class       volVectorField;
    location    "7.6";
    object      U;
}
// * * * * * * * * * * * * * * * * * * * * * * * * * * * * * * * * * * * * * //

dimensions      [0 1 -1 0 0 0 0];


internalField   nonuniform List<vector> 
34128
(
(-4.98558e-06 3.40518e-07 -0.0045551)
(-3.40452e-06 2.71921e-07 -0.00452043)
(2.55957e-06 2.58244e-07 -0.00451282)
(-4.83379e-06 3.48366e-07 -0.00444933)
(-1.06447e-05 3.74354e-07 -0.00447672)
(-1.16294e-05 3.16013e-07 -0.00456861)
(-1.41465e-05 2.97336e-07 -0.00463638)
(-9.35112e-06 3.16964e-07 -0.00464888)
(-3.11041e-06 3.10188e-07 -0.00460613)
(4.21918e-06 2.71937e-07 -0.00465567)
(2.1101e-05 2.95696e-07 -0.00461036)
(1.60174e-05 3.29389e-07 -0.00442848)
(-1.02315e-05 4.50006e-06 -0.0138497)
(-5.69843e-06 3.76935e-06 -0.0137369)
(7.16585e-06 3.49556e-06 -0.0136999)
(-1.77185e-05 4.33265e-06 -0.0135185)
(-3.32865e-05 4.71456e-06 -0.0136124)
(-3.5303e-05 4.37546e-06 -0.0138864)
(-4.39247e-05 4.05645e-06 -0.0140802)
(-2.95273e-05 4.01722e-06 -0.0141156)
(-8.61053e-06 3.99917e-06 -0.0139946)
(1.40236e-05 3.70063e-06 -0.0141382)
(6.27074e-05 3.96105e-06 -0.014)
(4.55339e-05 4.43539e-06 -0.0134676)
(-1.2989e-05 1.25705e-05 -0.0233604)
(-6.34056e-06 1.09051e-05 -0.0231567)
(1.01371e-05 1.03856e-05 -0.023071)
(-3.30935e-05 1.26071e-05 -0.0227839)
(-5.61856e-05 1.33898e-05 -0.0229614)
(-5.85954e-05 1.23468e-05 -0.0234146)
(-7.44567e-05 1.15127e-05 -0.0237237)
(-5.1132e-05 1.13307e-05 -0.023782)
(-1.41174e-05 1.12037e-05 -0.0235912)
(2.45772e-05 1.04625e-05 -0.0238238)
(0.000103867 1.1384e-05 -0.0235878)
(7.30203e-05 1.27605e-05 -0.0227148)
(-1.50898e-05 2.47927e-05 -0.0330326)
(-7.76497e-06 2.17822e-05 -0.0327229)
(1.06158e-05 2.08491e-05 -0.032566)
(-5.00414e-05 2.49908e-05 -0.0321891)
(-7.82621e-05 2.64026e-05 -0.0324708)
(-8.08615e-05 2.44816e-05 -0.0330968)
(-0.000105103 2.28258e-05 -0.0335084)
(-7.41596e-05 2.22905e-05 -0.0335913)
(-2.03446e-05 2.20527e-05 -0.0333408)
(3.51368e-05 2.07397e-05 -0.0336568)
(0.000144147 2.26237e-05 -0.033317)
(9.83688e-05 2.53943e-05 -0.0321133)
(-1.81946e-05 4.07813e-05 -0.0428079)
(-1.20536e-05 3.62708e-05 -0.0423775)
(8.02274e-06 3.49634e-05 -0.0421253)
(-6.76421e-05 4.14951e-05 -0.0416783)
(-9.86635e-05 4.35371e-05 -0.0420856)
(-0.000101697 4.04301e-05 -0.0428738)
(-0.000135404 3.77272e-05 -0.0433735)
(-9.86423e-05 3.66478e-05 -0.0434845)
(-2.78711e-05 3.62356e-05 -0.0431857)
(4.51243e-05 3.42622e-05 -0.0435788)
(0.000183174 3.75231e-05 -0.0431287)
(0.000121389 4.21725e-05 -0.0416051)
(-2.37919e-05 6.0312e-05 -0.0526257)
(-2.09532e-05 5.42028e-05 -0.0520622)
(2.00709e-06 5.25797e-05 -0.0516928)
(-8.50036e-05 6.1902e-05 -0.051197)
(-0.000116738 6.45418e-05 -0.0517501)
(-0.000120884 5.99754e-05 -0.0526849)
(-0.000165002 5.60085e-05 -0.0532577)
(-0.000124575 5.41628e-05 -0.0534022)
(-3.70968e-05 5.35282e-05 -0.0530671)
(5.41144e-05 5.08416e-05 -0.0535305)
(0.000220599 5.58797e-05 -0.0529645)
(0.00014185 6.28949e-05 -0.0511322)
(-3.31644e-05 8.31132e-05 -0.0624256)
(-3.58651e-05 7.54186e-05 -0.0617219)
(-7.57698e-06 7.3617e-05 -0.0612175)
(-0.000101284 8.6094e-05 -0.0606952)
(-0.000132035 8.92019e-05 -0.0614098)
(-0.000138366 8.28559e-05 -0.0624701)
(-0.000193605 7.74411e-05 -0.0631017)
(-0.000151879 7.46076e-05 -0.0632869)
(-4.8239e-05 7.36896e-05 -0.0629278)
(6.18006e-05 7.02561e-05 -0.0634548)
(0.000256058 7.75024e-05 -0.062768)
(0.000159487 8.73813e-05 -0.0606397)
(-4.73878e-05 0.000108895 -0.0721503)
(-5.78505e-05 9.97205e-05 -0.0713062)
(-2.06915e-05 9.79494e-05 -0.0706561)
(-0.000115711 0.000113917 -0.0701288)
(-0.000144296 0.000117278 -0.0710141)
(-0.000154216 0.00010879 -0.0721738)
(-0.000220947 0.000101771 -0.0728511)
(-0.000180368 9.77314e-05 -0.0730861)
(-6.13216e-05 9.64615e-05 -0.0727151)
(6.7986e-05 9.22596e-05 -0.0732992)
(0.000289167 0.000102163 -0.072488)
(0.000174041 0.000115422 -0.0700775)
(-6.73346e-05 0.000137348 -0.0817496)
(-8.7641e-05 0.000126883 -0.0807732)
(-3.71331e-05 0.000125431 -0.0799749)
(-0.000127591 0.000145209 -0.0794618)
(-0.000153435 0.00014852 -0.0805191)
(-0.000168601 0.000137474 -0.0817476)
(-0.000246758 0.000128722 -0.0824595)
(-0.000209732 0.000123267 -0.0827551)
(-7.61805e-05 0.000121572 -0.0823839)
(7.25741e-05 0.000116587 -0.0830195)
(0.000319536 0.000129612 -0.082081)
(0.000185302 0.000146789 -0.0794035)
(-9.36856e-05 0.000168183 -0.0911835)
(-0.000125655 0.000156665 -0.0900904)
(-5.65517e-05 0.000155908 -0.0891502)
(-0.000136321 0.000179808 -0.0886673)
(-0.000159515 0.000182683 -0.0898895)
(-0.00018175 0.000168618 -0.0911536)
(-0.00027075 0.00015802 -0.0918912)
(-0.000239541 0.000150948 -0.0922594)
(-9.24819e-05 0.000148754 -0.0918999)
(7.55562e-05 0.000142973 -0.0925819)
(0.000346789 0.000159599 -0.0915133)
(0.000193136 0.000181249 -0.0885849)
(-0.000126947 0.000201141 -0.100424)
(-0.000172018 0.000188828 -0.099236)
(-7.84668e-05 0.000189217 -0.0981684)
(-0.000141387 0.000217556 -0.0977273)
(-0.00016272 0.000219542 -0.0991002)
(-0.000193911 0.00020197 -0.100366)
(-0.000292602 0.00018942 -0.101122)
(-0.000269245 0.000180522 -0.101576)
(-0.00010975 0.000177761 -0.10124)
(7.69955e-05 0.00017117 -0.101964)
(0.000370572 0.000191889 -0.100762)
(0.000197513 0.000218579 -0.0975992)
(-0.00016747 0.000236005 -0.109457)
(-0.000226585 0.000223139 -0.108198)
(-0.000102281 0.000225193 -0.107024)
(-0.000142366 0.000258299 -0.106632)
(-0.000163319 0.000258896 -0.108135)
(-0.000205329 0.000237329 -0.109372)
(-0.000311943 0.000222712 -0.11014)
(-0.00029819 0.000211766 -0.110691)
(-0.000127398 0.000208372 -0.110391)
(7.70093e-05 0.000200968 -0.111154)
(0.000390568 0.000226279 -0.109813)
(0.000198517 0.000258566 -0.106433)
(-0.000215461 0.000272617 -0.118275)
(-0.00028895 0.000259379 -0.116972)
(-0.000127291 0.000263676 -0.115718)
(-0.000138923 0.000301897 -0.115379)
(-0.000161638 0.000300582 -0.116988)
(-0.000216211 0.000274557 -0.118167)
(-0.00032835 0.000257747 -0.118942)
(-0.000325625 0.000244498 -0.119601)
(-0.000144756 0.000240397 -0.11935)
(7.57513e-05 0.000232188 -0.120151)
(0.000406497 0.000262603 -0.118665)
(0.000196359 0.000301028 -0.115083)
(-0.000270971 0.000310856 -0.12688)
(-0.000358438 0.000297349 -0.12556)
(-0.00015269 0.000304488 -0.124254)
(-0.00013081 0.000348206 -0.123967)
(-0.00015803 0.000344464 -0.125657)
(-0.000226702 0.000313564 -0.126757)
(-0.000341329 0.000294418 -0.127533)
(-0.000350707 0.000278576 -0.128307)
(-0.000161096 0.000273685 -0.128116)
(7.3395e-05 0.000264689 -0.128954)
(0.000418116 0.000300733 -0.127317)
(0.00019138 0.000345797 -0.123549)
(-0.000333862 0.000350629 -0.135273)
(-0.000434072 0.000336848 -0.133964)
(-0.000177571 0.000347445 -0.132636)
(-0.000117879 0.000397076 -0.132397)
(-0.000152858 0.000390422 -0.134138)
(-0.000236866 0.000354285 -0.135146)
(-0.000350316 0.000332644 -0.135918)
(-0.000372512 0.000313888 -0.13681)
(-0.000175655 0.000308103 -0.13669)
(7.01206e-05 0.000298341 -0.137564)
(0.000425228 0.000340559 -0.135771)
(0.00018406 0.000392716 -0.131832)
(-0.000403778 0.000391867 -0.143456)
(-0.000514562 0.000377675 -0.142185)
(-0.000200938 0.000392333 -0.140865)
(-0.000100092 0.000448352 -0.140666)
(-0.000146472 0.00043836 -0.14243)
(-0.000246666 0.000396667 -0.143338)
(-0.00035469 0.000372361 -0.144101)
(-0.000390059 0.000350353 -0.14511)
(-0.000187673 0.000343544 -0.145071)
(6.61005e-05 0.000333032 -0.145979)
(0.00042769 0.000381995 -0.144026)
(0.000175018 0.00044164 -0.139935)
(-0.000480109 0.000434491 -0.151428)
(-0.000598285 0.000419611 -0.150224)
(-0.00022173 0.000438907 -0.148939)
(-7.753e-05 0.000501871 -0.148768)
(-0.000139188 0.000488186 -0.15053)
(-0.000255952 0.000440642 -0.151334)
(-0.000353799 0.000413491 -0.152084)
(-0.000402345 0.000387891 -0.153206)
(-0.000196434 0.00037991 -0.153255)
(6.1486e-05 0.00036865 -0.154196)
(0.000425436 0.000424954 -0.15208)
(0.000165005 0.000492421 -0.147858)
(-0.000561958 0.0004784 -0.159184)
(-0.000683284 0.000462395 -0.158077)
(-0.000238847 0.000486879 -0.156853)
(-5.04074e-05 0.00055745 -0.156697)
(-0.000131266 0.000539807 -0.15843)
(-0.000264456 0.000486103 -0.159131)
(-0.000347001 0.00045592 -0.159863)
(-0.000408396 0.00042641 -0.161092)
(-0.000201304 0.00041709 -0.161233)
(5.63938e-05 0.000405067 -0.162202)
(0.000418488 0.000469329 -0.159929)
(0.000154891 0.000544888 -0.1556)
(-0.000648117 0.000523447 -0.166718)
(-0.000767287 0.000505704 -0.165736)
(-0.000251199 0.000535902 -0.164597)
(-1.90717e-05 0.000614881 -0.164441)
(-0.000122883 0.000593107 -0.16612)
(-0.000271787 0.000532894 -0.166721)
(-0.000333718 0.000499483 -0.167431)
(-0.000407328 0.000465786 -0.168758)
(-0.000201788 0.000454959 -0.168993)
(5.08943e-05 0.000442128 -0.169983)
(0.000406977 0.000514982 -0.16756)
(0.000145635 0.000598839 -0.163155)
(-0.000737079 0.000569423 -0.174017)
(-0.000847756 0.00054914 -0.17319)
(-0.000257751 0.000585568 -0.172155)
(1.59995e-05 0.00067392 -0.171986)
(-0.000114112 0.00064794 -0.173588)
(-0.000277443 0.000580795 -0.174093)
(-0.000313494 0.000543949 -0.174774)
(-0.000398418 0.00050586 -0.176189)
(-0.000197573 0.000493366 -0.176518)
(4.50023e-05 0.000479652 -0.17752)
(0.000391151 0.000561723 -0.17496)
(0.000138235 0.000654019 -0.170514)
(-0.000827064 0.000616048 -0.181067)
(-0.000921984 0.000592224 -0.180423)
(-0.000257586 0.000635404 -0.179508)
(5.42156e-05 0.000734276 -0.179312)
(-0.000104893 0.000704111 -0.180817)
(-0.000280828 0.000629523 -0.18123)
(-0.000286055 0.000589023 -0.181879)
(-0.000381176 0.000546432 -0.183365)
(-0.000188567 0.000532136 -0.183787)
(3.86756e-05 0.000517422 -0.184791)
(0.00037138 0.000609303 -0.182112)
(0.000133675 0.000710116 -0.177664)
(-0.000916085 0.000662971 -0.187852)
(-0.000987222 0.000634393 -0.187413)
(-0.000249955 0.000684869 -0.186631)
(9.49009e-05 0.000795605 -0.186398)
(-9.50257e-05 0.000761372 -0.187788)
(-0.000281288 0.000678731 -0.188116)
(-0.000251367 0.00063435 -0.188725)
(-0.000355406 0.000587266 -0.190267)
(-0.000174917 0.000571073 -0.190776)
(3.18212e-05 0.000555188 -0.191771)
(0.000348143 0.000657412 -0.188996)
(0.000132842 0.00076675 -0.184588)
(-0.00100203 0.000709763 -0.194355)
(-0.00104082 0.000674999 -0.194139)
(-0.000234331 0.000733357 -0.193499)
(0.000137335 0.0008575 -0.193221)
(-8.41617e-05 0.000819413 -0.194482)
(-0.000278153 0.000728013 -0.19473)
(-0.000209671 0.000679517 -0.195294)
(-0.000321248 0.000628093 -0.196872)
(-0.000157012 0.000609962 -0.197461)
(2.43116e-05 0.000592678 -0.198434)
(0.000322018 0.000705671 -0.195592)
(0.000136456 0.000823475 -0.191267)
(-0.00108276 0.000755925 -0.200558)
(-0.00108037 0.000713326 -0.200575)
(-0.000210445 0.000780212 -0.20008)
(0.000180798 0.000919492 -0.199754)
(-7.18164e-05 0.000877869 -0.200877)
(-0.000270782 0.000776915 -0.201054)
(-0.000161506 0.000724067 -0.201564)
(-0.000279189 0.000668627 -0.203158)
(-0.000135446 0.000648583 -0.203818)
(1.6011e-05 0.000629597 -0.204758)
(0.000293645 0.000753637 -0.201879)
(0.000144988 0.000879778 -0.197681)
(-0.00115624 0.000800888 -0.206445)
(-0.00110389 0.0007486 -0.206697)
(-0.000178302 0.000824737 -0.206346)
(0.000224625 0.000981053 -0.205973)
(-5.73967e-05 0.000936312 -0.206954)
(-0.000258624 0.00082494 -0.207067)
(-0.000107706 0.000767509 -0.207518)
(-0.000230053 0.000708565 -0.209106)
(-0.000110973 0.000686715 -0.209825)
(6.80731e-06 0.000665642 -0.210719)
(0.0002637 0.00080081 -0.207837)
(0.000158597 0.000935085 -0.203807)
(-0.00122058 0.000844023 -0.212)
(-0.00110989 0.000780008 -0.212481)
(-0.000138183 0.000866208 -0.212267)
(0.000268248 0.00104161 -0.211853)
(-4.0245e-05 0.000994263 -0.212694)
(-0.000241268 0.000871564 -0.21275)
(-4.93789e-05 0.000809329 -0.213135)
(-0.000174959 0.000747606 -0.214696)
(-8.44334e-05 0.000724149 -0.215462)
(-3.35182e-06 0.000700509 -0.216299)
(0.000232855 0.000846638 -0.213447)
(0.000177091 0.00098877 -0.209624)
(-0.0012742 0.000884651 -0.217211)
(-0.00109751 0.000806731 -0.217902)
(-9.06266e-05 0.000903904 -0.217816)
(0.000311233 0.00110056 -0.217373)
(-1.96956e-05 0.0010512 -0.218082)
(-0.000218493 0.000916249 -0.218087)
(1.21451e-05 0.000849005 -0.2184)
(-0.000115259 0.000785452 -0.219914)
(-5.66797e-05 0.000760688 -0.220712)
(-1.4427e-05 0.000733902 -0.221483)
(0.000201747 0.000890529 -0.218695)
(0.000199912 0.00104017 -0.215109)
(-0.00131583 0.000922056 -0.222065)
(-0.00106653 0.000827966 -0.222942)
(-3.63973e-05 0.000937144 -0.222968)
(0.000353292 0.00115725 -0.222513)
(4.85941e-06 0.00110658 -0.223103)
(-0.000190308 0.000958459 -0.223062)
(7.53757e-05 0.000886017 -0.223299)
(-5.24548e-05 0.000821813 -0.224748)
(-2.84976e-05 0.000796159 -0.225565)
(-2.62622e-05 0.00076554 -0.226261)
(0.000170944 0.000931871 -0.223566)
(0.000226149 0.00108858 -0.220245)
(-0.00134457 0.000955504 -0.226556)
(-0.0010174 0.000842958 -0.227583)
(2.35573e-05 0.00096531 -0.227704)
(0.000394287 0.00121103 -0.22726)
(3.3902e-05 0.00115982 -0.227748)
(-0.000156973 0.000997679 -0.227665)
(0.000138742 0.000919869 -0.227822)
(1.18903e-05 0.000856421 -0.229192)
(-5.42333e-07 0.000830413 -0.230014)
(-3.85731e-05 0.000795165 -0.230627)
(0.000140921 0.000970044 -0.228052)
(0.000254585 0.0011333 -0.225013)
(-0.00135988 0.000984261 -0.230676)
(-0.000951221 0.000851037 -0.231813)
(8.81489e-05 0.000987867 -0.232011)
(0.000434201 0.00126127 -0.231603)
(6.77221e-05 0.00121036 -0.232012)
(-0.000119018 0.00103344 -0.231888)
(0.000200673 0.000950097 -0.23196)
(7.62393e-05 0.000889025 -0.233241)
(2.67067e-05 0.000863329 -0.234056)
(-5.09515e-05 0.000822548 -0.234581)
(0.000112042 0.00100444 -0.232146)
(0.000283766 0.00117364 -0.229401)
(-0.00136161 0.00100762 -0.234422)
(-0.000869628 0.000851647 -0.235625)
(0.000156189 0.0010044 -0.235882)
(0.000473097 0.00130735 -0.235538)
(0.000106361 0.00125766 -0.235891)
(-7.72292e-05 0.00106534 -0.235726)
(0.000259684 0.000976289 -0.235713)
(0.000139162 0.000919401 -0.236897)
(5.29685e-05 0.000894812 -0.237694)
(-6.28861e-05 0.000847498 -0.238127)
(8.45467e-05 0.00103451 -0.235847)
(0.000312094 0.00120893 -0.233398)
(-0.00134989 0.00102493 -0.237797)
(-0.000774746 0.000844378 -0.239019)
(0.000226426 0.00101463 -0.239318)
(0.000511063 0.00134871 -0.239065)
(0.000149573 0.00130121 -0.239387)
(-3.2629e-05 0.00109304 -0.239181)
(0.000314437 0.000998101 -0.239083)
(0.000199401 0.000947349 -0.240168)
(7.81566e-05 0.00092479 -0.240938)
(-7.38e-05 0.000869874 -0.241276)
(5.85487e-05 0.00105975 -0.239156)
(0.000337924 0.00123856 -0.237)
(-0.00132516 0.00103561 -0.240804)
(-0.000669057 0.000828997 -0.242001)
(0.000297569 0.00101843 -0.242326)
(0.000548153 0.00138487 -0.242191)
(0.000196799 0.00134058 -0.242507)
(1.35635e-05 0.00111631 -0.242258)
(0.000363805 0.00101526 -0.242078)
(0.000255916 0.000972698 -0.243064)
(0.000102352 0.000953206 -0.2438)
(-8.30988e-05 0.000889588 -0.244041)
(3.40354e-05 0.00107976 -0.242082)
(0.000359673 0.00126199 -0.240207)
(-0.00128804 0.0010392 -0.243451)
(-0.000555289 0.000805461 -0.244581)
(0.000368308 0.00101583 -0.244922)
(0.000584325 0.00141544 -0.244927)
(0.000247172 0.00137542 -0.245262)
(5.99858e-05 0.00113504 -0.244969)
(0.000406906 0.0010276 -0.244708)
(0.000307903 0.000995304 -0.245601)
(0.000125757 0.000980028 -0.246298)
(-9.02252e-05 0.000906608 -0.246441)
(1.08798e-05 0.00109423 -0.244636)
(0.000375916 0.00127879 -0.243025)
(-0.00123936 0.00103536 -0.245751)
(-0.000436317 0.000773931 -0.246779)
(0.000437325 0.00100704 -0.247128)
(0.000619393 0.00144012 -0.24729)
(0.000299539 0.00140546 -0.247665)
(0.000105194 0.0011492 -0.247328)
(0.000443116 0.00103501 -0.246991)
(0.000354797 0.00101505 -0.247797)
(0.000148633 0.00100524 -0.248454)
(-9.47141e-05 0.000920955 -0.248498)
(-1.11418e-05 0.001103 -0.246835)
(0.00038547 0.00128863 -0.245466)
(-0.00118006 0.00102389 -0.247721)
(-0.000315063 0.000734775 -0.248618)
(0.000503299 0.0009924 -0.248971)
(0.00065299 0.00145873 -0.249301)
(0.000352501 0.00143057 -0.249734)
(0.000147733 0.0011589 -0.249355)
(0.000472069 0.00103749 -0.248949)
(0.000396247 0.00103186 -0.249676)
(0.000171242 0.00102882 -0.25029)
(-9.62409e-05 0.000932707 -0.250237)
(-3.23237e-05 0.00110602 -0.248699)
(0.000387466 0.00129131 -0.247547)
(-0.00111122 0.00100476 -0.24938)
(-0.000194427 0.00068854 -0.250127)
(0.000564918 0.000972358 -0.250483)
(0.000684561 0.00147124 -0.250984)
(0.00040448 0.00145072 -0.25149)
(0.000186211 0.00116434 -0.251072)
(0.000493646 0.00103511 -0.250603)
(0.000432091 0.00104565 -0.251263)
(0.000193786 0.00105078 -0.251835)
(-9.46591e-05 0.000942023 -0.251687)
(-5.2997e-05 0.00110341 -0.250251)
(0.000381398 0.00128672 -0.249289)
(-0.0010341 0.000978147 -0.250751)
(-7.72289e-05 0.000635963 -0.251339)
(0.000620903 0.000947523 -0.251699)
(0.00071337 0.00147776 -0.252368)
(0.000453799 0.00146603 -0.252958)
(0.000219375 0.00116579 -0.252506)
(0.000507954 0.00102803 -0.251981)
(0.000462311 0.0010564 -0.252583)
(0.000216361 0.00107116 -0.253116)
(-9.00215e-05 0.000949144 -0.252875)
(-7.34819e-05 0.00109545 -0.25152)
(0.000367157 0.00127497 -0.250719)
(-0.000950161 0.000944495 -0.25186)
(3.37819e-05 0.000578146 -0.252287)
(0.000669975 0.000918648 -0.252656)
(0.000738507 0.00147856 -0.253482)
(0.000498768 0.00147673 -0.254162)
(0.00024619 0.00116363 -0.253684)
(0.000515301 0.00101645 -0.253111)
(0.000487 0.00106413 -0.253664)
(0.000238919 0.00108999 -0.254161)
(-8.2575e-05 0.000954379 -0.253832)
(-9.40556e-05 0.00108261 -0.252534)
(0.00034508 0.00125632 -0.251864)
(-0.00086081 0.000904321 -0.252738)
(0.000136628 0.000516155 -0.25301)
(0.000711153 0.000886566 -0.253391)
(0.000759169 0.00147407 -0.25436)
(0.000537879 0.00148319 -0.255132)
(0.00026592 0.00115829 -0.254632)
(0.000516189 0.00100071 -0.25402)
(0.000506368 0.00106889 -0.254536)
(0.000261303 0.00110737 -0.255)
(-7.27121e-05 0.000958077 -0.254591)
(-0.000114936 0.00106541 -0.253329)
(0.00031585 0.0012312 -0.25276)
(-0.000767489 0.000858248 -0.253416)
(0.000229938 0.000451003 -0.253549)
(0.000743889 0.000852033 -0.253945)
(0.00077458 0.00146474 -0.255037)
(0.000569877 0.00148588 -0.255898)
(0.000278224 0.00115024 -0.255384)
(0.000511299 0.000981138 -0.254739)
(0.000520752 0.00107077 -0.255227)
(0.00028326 0.00112338 -0.255664)
(-6.0941e-05 0.000960581 -0.255181)
(-0.000136202 0.00104443 -0.253936)
(0.00028042 0.00120005 -0.253442)
(-0.000671893 0.000807149 -0.253924)
(0.000312568 0.000383921 -0.253938)
(0.000767848 0.000815805 -0.254353)
(0.00078396 0.00145113 -0.255544)
(0.000593761 0.00148526 -0.256489)
(0.000283127 0.00113992 -0.255969)
(0.000501405 0.000958076 -0.255298)
(0.000530512 0.00106985 -0.255767)
(0.00030444 0.00113808 -0.25618)
(-4.78549e-05 0.000962208 -0.255631)
(-0.000157778 0.00102031 -0.254385)
(0.000240077 0.00116343 -0.253943)
(-0.000575664 0.000751896 -0.254292)
(0.000383937 0.000316033 -0.254208)
(0.000782936 0.000778639 -0.254645)
(0.000786789 0.00143385 -0.255909)
(0.000608929 0.00148185 -0.25693)
(0.000281009 0.00112775 -0.256415)
(0.000487342 0.000931883 -0.255726)
(0.000536006 0.00106624 -0.256181)
(0.000324441 0.00115149 -0.256574)
(-3.40456e-05 0.000963276 -0.255965)
(-0.000179459 0.000993689 -0.254705)
(0.000196291 0.00112196 -0.254296)
(-0.000480322 0.000693406 -0.254545)
(0.000444046 0.00024838 -0.254388)
(0.000789415 0.000741208 -0.254849)
(0.000782834 0.00141353 -0.256161)
(0.000615239 0.00147616 -0.257249)
(0.000272567 0.00111411 -0.256746)
(0.000469976 0.000902932 -0.256045)
(0.000537609 0.00106007 -0.25649)
(0.000342875 0.00116368 -0.256868)
(-2.00519e-05 0.000964082 -0.256207)
(-0.000200921 0.000965173 -0.254922)
(0.00015058 0.00107627 -0.25453)
(-0.000387179 0.000632601 -0.254709)
(0.000493409 0.000181863 -0.2545)
(0.000787852 0.000704105 -0.254985)
(0.000772157 0.00139082 -0.256324)
(0.00061298 0.0014687 -0.257467)
(0.000258739 0.00109933 -0.256984)
(0.000450143 0.000871564 -0.256276)
(0.000535705 0.0010515 -0.256716)
(0.000359402 0.00117469 -0.257081)
(-6.31413e-06 0.000964881 -0.256377)
(-0.000221748 0.000935348 -0.255061)
(0.000104417 0.00102698 -0.254671)
(-0.00029725 0.000570353 -0.254805)
(0.000532888 0.000117275 -0.254562)
(0.000779044 0.000667826 -0.255071)
(0.000755086 0.00136632 -0.256417)
(0.000602803 0.00145993 -0.257606)
(0.000240586 0.00108368 -0.257148)
(0.000428613 0.000838116 -0.256437)
(0.00053067 0.00104068 -0.256875)
(0.000373778 0.00118457 -0.257231)
(6.85697e-06 0.000965875 -0.256491)
(-0.000241485 0.000904719 -0.25514)
(5.9119e-05 0.000974699 -0.254743)
(-0.000211221 0.000507448 -0.254848)
(0.000563549 5.52808e-05 -0.254587)
(0.000763914 0.000632776 -0.255121)
(0.000732143 0.00134056 -0.256459)
(0.000585605 0.00145021 -0.257682)
(0.000219169 0.00106737 -0.257252)
(0.000406051 0.000802906 -0.256543)
(0.000522854 0.00102779 -0.256982)
(0.000385863 0.00119339 -0.257332)
(1.92849e-05 0.000967213 -0.256563)
(-0.000259672 0.000873658 -0.255176)
(1.5767e-05 0.000919997 -0.254764)
(-0.000129464 0.000444571 -0.254853)
(0.000586533 -3.64093e-06 -0.254585)
(0.000743412 0.000599266 -0.255143)
(0.000703964 0.00131401 -0.256461)
(0.000562394 0.00143986 -0.25771)
(0.000195442 0.00105056 -0.257308)
(0.000382971 0.0007662 -0.256604)
(0.000512569 0.00101299 -0.257047)
(0.000395611 0.00120117 -0.257395)
(3.0914e-05 0.000968988 -0.256604)
(-0.000275877 0.000842449 -0.255181)
(-2.48448e-05 0.000863429 -0.254749)
(-5.20937e-05 0.000382332 -0.254829)
(0.000602881 -5.91596e-05 -0.254562)
(0.000718433 0.000567531 -0.255143)
(0.00067121 0.00128703 -0.256433)
(0.000534153 0.00142909 -0.257699)
(0.000170187 0.00103333 -0.257327)
(0.000359732 0.000728215 -0.256629)
(0.000500074 0.000996418 -0.257079)
(0.00040305 0.00120793 -0.257429)
(4.17799e-05 0.000971243 -0.256621)
(-0.000289715 0.000811301 -0.255164)
(-6.22227e-05 0.000805496 -0.254708)
(2.09404e-05 0.000321213 -0.254784)
(0.000613405 -0.000111066 -0.254525)
(0.000689761 0.000537724 -0.255126)
(0.000634511 0.00125991 -0.256381)
(0.000501754 0.00141805 -0.257659)
(0.000144 0.00101574 -0.257315)
(0.000336556 0.000689119 -0.256624)
(0.000485571 0.000978197 -0.257086)
(0.000408253 0.00121367 -0.257439)
(5.19715e-05 0.00097398 -0.256622)
(-0.000300831 0.00078038 -0.255133)
(-9.60939e-05 0.000746532 -0.254648)
(8.9733e-05 0.000261451 -0.254722)
(0.000618642 -0.00015913 -0.254477)
(0.000658038 0.000509918 -0.255096)
(0.000594444 0.00123278 -0.256311)
(0.000465915 0.00140681 -0.257594)
(0.000117322 0.000997789 -0.257276)
(0.000313567 0.000649033 -0.256595)
(0.000469202 0.00095843 -0.257072)
(0.000411309 0.00121839 -0.257433)
(6.1596e-05 0.000977149 -0.256611)
(-0.000308904 0.000749733 -0.255092)
(-0.000126182 0.000686851 -0.254576)
(0.000154302 0.000203415 -0.254648)
(0.000619045 -0.00020317 -0.254421)
(0.000623735 0.000484229 -0.255054)
(0.000551486 0.00120588 -0.256226)
(0.000427241 0.00139533 -0.257511)
(9.05212e-05 0.000979377 -0.257216)
(0.000290837 0.000608047 -0.256545)
(0.000451049 0.000937206 -0.25704)
(0.000412292 0.00122204 -0.257412)
(7.08423e-05 0.000980656 -0.256589)
(-0.000313544 0.000719348 -0.255045)
(-0.000152107 0.000626817 -0.254496)
(0.000214627 0.000147862 -0.254566)
(0.00061518 -0.000243049 -0.25436)
(0.000587363 0.000460744 -0.255005)
(0.000506141 0.00117948 -0.256129)
(0.000386373 0.00138356 -0.257412)
(6.41938e-05 0.000960412 -0.257135)
(0.000268475 0.000566053 -0.256475)
(0.000431155 0.000914631 -0.256992)
(0.000411255 0.00122459 -0.257379)
(7.99784e-05 0.00098435 -0.256561)
(-0.000314302 0.000689165 -0.254995)
(-0.000173343 0.000566834 -0.254413)
(0.00027074 9.44255e-05 -0.254476)
(0.000607699 -0.000278642 -0.254297)
(0.000549537 0.000439546 -0.254948)
(0.000458897 0.00115339 -0.256022)
(0.000344078 0.00137165 -0.257299)
(3.92381e-05 0.00094118 -0.257038)
(0.000246829 0.000523549 -0.256388)
(0.000409582 0.000890751 -0.256931)
(0.000408226 0.00122594 -0.257336)
(8.93594e-05 0.000988004 -0.256528)
(-0.000310717 0.000659334 -0.254944)
(-0.000189309 0.000507527 -0.25433)
(0.000322456 4.31418e-05 -0.254381)
(0.000597201 -0.000309908 -0.254231)
(0.00051094 0.000420701 -0.254887)
(0.000410509 0.00112782 -0.255905)
(0.000299606 0.00135952 -0.257172)
(1.47882e-05 0.000921167 -0.256922)
(0.000226001 0.000480378 -0.256285)
(0.000386362 0.000865508 -0.256856)
(0.000403224 0.00122599 -0.257285)
(9.92112e-05 0.000991434 -0.25649)
(-0.000302557 0.000629747 -0.254894)
(-0.000199807 0.000449014 -0.25425)
(0.00036959 -5.07292e-06 -0.254282)
(0.000584354 -0.000336886 -0.254165)
(0.000472211 0.000404247 -0.254823)
(0.00036208 0.00110334 -0.255784)
(0.000252961 0.00134696 -0.257026)
(-8.63064e-06 0.000900059 -0.256783)
(0.000205909 0.000435858 -0.256165)
(0.000361339 0.000838944 -0.256769)
(0.000396205 0.0012246 -0.257225)
(0.000109707 0.000994425 -0.25645)
(-0.000289518 0.000600129 -0.254846)
(-0.00020468 0.000391781 -0.254176)
(0.000412179 -5.01952e-05 -0.254182)
(0.000569864 -0.000359713 -0.254099)
(0.000433935 0.000390163 -0.254756)
(0.000314912 0.00108005 -0.25566)
(0.00020726 0.00133427 -0.256865)
(-2.73605e-05 0.000878276 -0.256626)
(0.000187255 0.000390509 -0.256032)
(0.000334342 0.000811186 -0.25667)
(0.000387169 0.00122161 -0.257157)
(0.000121236 0.00099669 -0.256406)
(-0.000271222 0.000570632 -0.254803)
(-0.000203927 0.000336818 -0.254112)
(0.000450444 -9.23296e-05 -0.254082)
(0.000554443 -0.000378595 -0.254032)
(0.000396726 0.000378322 -0.254689)
(0.000270328 0.00105787 -0.255537)
(0.000165612 0.00132125 -0.256694)
(-3.83643e-05 0.000855719 -0.256455)
(0.000171174 0.000345094 -0.255889)
(0.000305473 0.000781874 -0.256558)
(0.000376164 0.0012168 -0.257082)
(0.000134248 0.000997948 -0.256361)
(-0.000247432 0.000541421 -0.254765)
(-0.000198014 0.000284269 -0.254056)
(0.000484731 -0.000131586 -0.253982)
(0.000538791 -0.000393795 -0.253964)
(0.000361257 0.000368507 -0.254621)
(0.000229554 0.00103658 -0.255417)
(0.000130472 0.0013075 -0.256516)
(-3.98114e-05 0.000832255 -0.256274)
(0.000158564 0.000299958 -0.255742)
(0.000274906 0.000750934 -0.256434)
(0.000363281 0.00120995 -0.257)
(0.000149196 0.000997901 -0.256315)
(-0.00021805 0.000512553 -0.254734)
(-0.000187523 0.000234338 -0.254009)
(0.000515439 -0.000168123 -0.253885)
(0.000523569 -0.000405624 -0.253896)
(0.000328302 0.000360412 -0.254553)
(0.00019364 0.00101581 -0.255299)
(0.000103623 0.00129258 -0.256334)
(-3.09737e-05 0.000807812 -0.256087)
(0.000149865 0.000255514 -0.255596)
(0.00024285 0.000718878 -0.256299)
(0.000348718 0.0012008 -0.256912)
(0.000166502 0.000996228 -0.256268)
(-0.000183077 0.00048414 -0.254711)
(-0.000172886 0.00018746 -0.253972)
(0.000542934 -0.000202143 -0.253791)
(0.000509343 -0.00041443 -0.253827)
(0.000298619 0.000353695 -0.254486)
(0.000163422 0.000995086 -0.255186)
(8.62326e-05 0.00127599 -0.25615)
(-1.20392e-05 0.000782353 -0.255898)
(0.000145047 0.000212249 -0.255455)
(0.000209717 0.00068586 -0.256158)
(0.000332769 0.00118906 -0.256817)
(0.000186529 0.000992597 -0.25622)
(-0.000142596 0.00045633 -0.254696)
(-0.000154342 0.000143921 -0.253943)
(0.000567421 -0.0002339 -0.253699)
(0.000496514 -0.000420562 -0.253757)
(0.000272868 0.000347973 -0.254419)
(0.000139512 0.000973897 -0.255076)
(7.88924e-05 0.00125726 -0.255968)
(1.60619e-05 0.000755864 -0.255711)
(0.000143706 0.000170626 -0.25532)
(0.000176051 0.000651967 -0.256015)
(0.000315765 0.00117437 -0.256716)
(0.000209556 0.000986657 -0.256172)
(-9.67768e-05 0.000429293 -0.254687)
(-0.000132016 0.000104019 -0.253922)
(0.000588833 -0.000263885 -0.253609)
(0.000485302 -0.000424408 -0.253688)
(0.000251571 0.000342832 -0.254354)
(0.000122318 0.000951698 -0.254971)
(8.16487e-05 0.00123593 -0.255789)
(5.18414e-05 0.000728359 -0.25553)
(0.000145211 0.000131051 -0.255194)
(0.000142427 0.000617271 -0.255871)
(0.000298064 0.00115646 -0.25661)
(0.00023577 0.00097805 -0.256123)
(-4.59019e-05 0.000403196 -0.254685)
(-0.000106008 6.80293e-05 -0.253909)
(0.000607145 -0.000292392 -0.253523)
(0.00047577 -0.000426377 -0.25362)
(0.000235041 0.00033783 -0.254289)
(0.000112077 0.00092795 -0.25487)
(9.40409e-05 0.00121159 -0.255615)
(9.34708e-05 0.000699887 -0.255357)
(0.000148872 9.3986e-05 -0.255076)
(0.000109379 0.000581799 -0.255729)
(0.000280062 0.00113489 -0.256498)
(0.000265244 0.000966403 -0.256073)
(9.62482e-06 0.000378195 -0.254689)
(-7.6416e-05 3.61915e-05 -0.253904)
(0.000622526 -0.000319529 -0.25344)
(0.000467839 -0.000426893 -0.253554)
(0.000223349 0.000332508 -0.254227)
(0.000108893 0.000902151 -0.254774)
(0.000115153 0.00118392 -0.255448)
(0.000139032 0.000670559 -0.255196)
(0.000154062 5.96441e-05 -0.254966)
(7.74113e-05 0.000545582 -0.25559)
(0.000262209 0.00110908 -0.25638)
(0.000297919 0.000951445 -0.256021)
(6.92787e-05 0.000354425 -0.254698)
(-4.33471e-05 8.70081e-06 -0.253906)
(0.000634989 -0.000345598 -0.253363)
(0.000461288 -0.000426397 -0.253491)
(0.000216316 0.000326388 -0.254167)
(0.000112738 0.000873845 -0.254682)
(0.000143678 0.00115267 -0.255288)
(0.000186718 0.000640569 -0.255048)
(0.000160282 2.803e-05 -0.254863)
(4.69814e-05 0.00050861 -0.255457)
(0.000245048 0.00107868 -0.256256)
(0.000333574 0.000932847 -0.255968)
(0.000132424 0.000331991 -0.254709)
(-6.91988e-06 -1.43149e-05 -0.253916)
(0.000644453 -0.000370887 -0.25329)
(0.000455759 -0.000425334 -0.253432)
(0.000213546 0.000318975 -0.254111)
(0.000123418 0.000842644 -0.254595)
(0.000178011 0.00111775 -0.255138)
(0.000234851 0.000610183 -0.254914)
(0.000167127 -5.75939e-07 -0.254766)
(1.8534e-05 0.000470889 -0.25533)
(0.000229173 0.00104325 -0.256127)
(0.000371908 0.000910255 -0.255912)
(0.000198344 0.000310953 -0.254723)
(3.27256e-05 -3.28056e-05 -0.253932)
(0.00065087 -0.000395607 -0.253225)
(0.00045077 -0.000424144 -0.253379)
(0.000214504 0.00030976 -0.254061)
(0.000140521 0.000808272 -0.254514)