/*--------------------------------*- C++ -*----------------------------------*\
| =========                 |                                                 |
| \\      /  F ield         | OpenFOAM: The Open Source CFD Toolbox           |
|  \\    /   O peration     | Version:  v1912                                 |
|   \\  /    A nd           | Website:  www.openfoam.com                      |
|    \\/     M anipulation  |                                                 |
\*---------------------------------------------------------------------------*/
FoamFile
{
    version     2.0;
    format      ascii;
    class       volVectorField;
    location    "7.6";
    object      wallShearStress;
}
// * * * * * * * * * * * * * * * * * * * * * * * * * * * * * * * * * * * * * //

dimensions      [1 -1 -2 0 0 0 0];


internalField   uniform (0 0 0);

boundaryField
{
    leftWall
    {
        type            calculated;
        value           nonuniform List<vector> 
216
(
(0.000212352 -4.94897e-05 0.193994)
(0.000575975 -5.6714e-05 0.200699)
(0.00087402 -6.26508e-05 0.208212)
(0.00101452 -6.86172e-05 0.21476)
(0.000983863 -7.25201e-05 0.222505)
(0.000765143 -7.85309e-05 0.229778)
(0.000391858 -8.59359e-05 0.239661)
(-0.000160067 -9.64287e-05 0.250483)
(-0.000998072 -0.000104218 0.265431)
(-0.00219397 -0.000111901 0.281632)
(-0.00363557 -0.000121817 0.302382)
(-0.0047458 -0.000150387 0.32493)
(-0.00480135 -0.000198658 0.355365)
(-0.00387796 -0.000287363 0.387739)
(-0.0024209 -0.000438514 0.440298)
(-0.00126383 -0.000948901 0.49587)
(0.000209182 -0.00600466 0.721857)
(0.0134539 -0.119013 1.92822)
(0.000145024 -4.11313e-05 0.192518)
(0.000817311 -4.64538e-05 0.198747)
(0.00145662 -5.33631e-05 0.206289)
(0.00192145 -6.3112e-05 0.213852)
(0.00204257 -7.1649e-05 0.223083)
(0.0018003 -8.11475e-05 0.232059)
(0.00121097 -9.05369e-05 0.242859)
(0.000424696 -0.000104469 0.253588)
(-0.000468357 -0.000123017 0.267291)
(-0.00130326 -0.000149727 0.281608)
(-0.00225628 -0.000179709 0.299449)
(-0.00320165 -0.000216554 0.317464)
(-0.00371872 -0.000261656 0.341527)
(-0.00293329 -0.000339525 0.36908)
(-0.000863453 -0.000469378 0.422845)
(-0.00055817 -0.000985525 0.486241)
(-0.00230479 -0.00590323 0.716401)
(0.0102419 -0.116596 1.89024)
(-0.000109036 -3.88963e-05 0.192194)
(0.000294078 -4.02157e-05 0.197982)
(0.000718753 -4.39724e-05 0.205515)
(0.00114379 -5.14234e-05 0.214048)
(0.00142246 -5.90162e-05 0.224657)
(0.00156176 -6.79047e-05 0.235461)
(0.00142069 -7.44486e-05 0.247805)
(0.0010165 -8.33851e-05 0.259621)
(0.000473223 -9.71443e-05 0.273696)
(0.000231573 -0.000122521 0.287997)
(0.000492007 -0.000161175 0.305668)
(0.00122082 -0.000211192 0.323059)
(0.00167757 -0.000260336 0.344985)
(0.000902962 -0.000328477 0.369101)
(-0.00100063 -0.000452933 0.42175)
(-0.00211818 -0.000974514 0.49051)
(0.0010184 -0.00574649 0.721529)
(0.0162547 -0.114243 1.8583)
(0.00020582 -4.94312e-05 0.18949)
(0.0001233 -4.97361e-05 0.195871)
(3.05349e-05 -4.83388e-05 0.203812)
(2.18049e-05 -4.86323e-05 0.212283)
(3.07634e-05 -4.97388e-05 0.222637)
(0.000119251 -5.55222e-05 0.233163)
(6.23536e-05 -6.41385e-05 0.246037)
(-0.000186881 -7.77788e-05 0.259201)
(-0.000614102 -8.98456e-05 0.275491)
(-0.000596718 -0.000102992 0.291693)
(0.000393682 -0.000119862 0.310944)
(0.00242314 -0.000153453 0.330068)
(0.00410866 -0.000209596 0.355767)
(0.0027785 -0.000309525 0.383515)
(-0.00223977 -0.000467327 0.434025)
(-0.0055186 -0.000976152 0.493746)
(-0.00147853 -0.00581648 0.723269)
(-0.00881826 -0.1177 1.88383)
(0.000453354 -5.31677e-05 0.190656)
(0.000146081 -5.51946e-05 0.197612)
(-0.000221577 -5.53452e-05 0.205711)
(-0.000532424 -5.70165e-05 0.2135)
(-0.000801288 -5.99119e-05 0.22298)
(-0.000970845 -6.59152e-05 0.232237)
(-0.00124197 -7.39328e-05 0.244093)
(-0.00163033 -8.59658e-05 0.256066)
(-0.00214635 -9.81867e-05 0.271493)
(-0.00227072 -0.000107745 0.286965)
(-0.00164518 -0.000113443 0.306343)
(-0.000149856 -0.00013257 0.326477)
(0.00167466 -0.000184078 0.354736)
(0.00263031 -0.000309582 0.385309)
(0.000787973 -0.000498942 0.436358)
(-0.00296737 -0.000999898 0.490112)
(0.000688315 -0.00591978 0.713208)
(0.0180203 -0.118261 1.87752)
(0.000495307 -4.75913e-05 0.19457)
(0.000241665 -5.0665e-05 0.200924)
(-5.34163e-05 -5.46173e-05 0.208344)
(-0.000345081 -6.15489e-05 0.215393)
(-0.000590064 -6.8937e-05 0.224609)
(-0.000806035 -7.65084e-05 0.233747)
(-0.00108273 -8.27485e-05 0.24557)
(-0.00147107 -9.15826e-05 0.256656)
(-0.00192685 -0.000105505 0.270287)
(-0.00217895 -0.00012749 0.282983)
(-0.00201183 -0.000155718 0.299707)
(-0.00115706 -0.000188996 0.317782)
(0.000584234 -0.000228078 0.345326)
(0.00296052 -0.000313382 0.3771)
(0.00348119 -0.000480516 0.431792)
(0.000221084 -0.00100634 0.487425)
(0.00297155 -0.00585385 0.715885)
(0.0200193 -0.117313 1.89153)
(0.000602475 -4.45274e-05 0.197456)
(0.000371989 -4.76967e-05 0.203676)
(7.99531e-05 -5.18919e-05 0.210816)
(-0.000324279 -5.94774e-05 0.217605)
(-0.000710568 -6.87067e-05 0.226337)
(-0.00109567 -7.98288e-05 0.234967)
(-0.00134557 -8.98266e-05 0.246057)
(-0.00142772 -9.89228e-05 0.256444)
(-0.00118135 -0.00010884 0.269159)
(-0.000545764 -0.000127545 0.281241)
(0.000378961 -0.000159227 0.2978)
(0.00118437 -0.000199311 0.316569)
(0.00188834 -0.000234694 0.344497)
(0.00353823 -0.000303499 0.376903)
(0.00481511 -0.000451511 0.435086)
(0.00119166 -0.000975439 0.497964)
(-0.00421619 -0.00577631 0.724835)
(-0.00885452 -0.117609 1.88699)
(0.000398244 -4.52493e-05 0.197988)
(0.000349274 -5.13249e-05 0.204703)
(0.000291108 -5.74894e-05 0.212243)
(0.000121579 -6.59612e-05 0.219345)
(-3.30648e-06 -7.44763e-05 0.227741)
(-0.000163005 -8.45482e-05 0.235581)
(-0.000211382 -9.32116e-05 0.245067)
(-0.000248099 -0.000101326 0.254067)
(-0.000150569 -0.000109774 0.265862)
(9.91555e-05 -0.000124764 0.279132)
(0.00064337 -0.000144315 0.298809)
(0.00122328 -0.000166222 0.322268)
(0.00161522 -0.000192178 0.353293)
(0.00189539 -0.000260567 0.386652)
(0.00129338 -0.0004134 0.445129)
(-0.0011115 -0.000956224 0.509245)
(-0.00268638 -0.00564418 0.728731)
(-0.00471626 -0.114505 1.83591)
(0.000132484 -4.4614e-05 0.196167)
(0.000277991 -5.1206e-05 0.20302)
(0.000429854 -5.70583e-05 0.211209)
(0.000506379 -6.41336e-05 0.218897)
(0.000678286 -7.01596e-05 0.228)
(0.000884065 -7.71729e-05 0.236279)
(0.00113829 -8.39587e-05 0.246222)
(0.00108313 -9.32813e-05 0.255823)
(0.000616858 -0.000104452 0.268663)
(-0.000289557 -0.000118038 0.28306)
(-0.00115561 -0.000130947 0.302747)
(-0.00149923 -0.000153593 0.32463)
(-0.0014938 -0.000188647 0.353523)
(-0.00209005 -0.000267217 0.385634)
(-0.00347792 -0.000408989 0.442147)
(-0.00284897 -0.000925662 0.503969)
(0.00139441 -0.00571859 0.725722)
(9.60386e-05 -0.117281 1.86593)
(-0.000179683 -4.05886e-05 0.198277)
(-1.33826e-06 -4.594e-05 0.205371)
(0.000252791 -5.15158e-05 0.214021)
(0.000478124 -5.79141e-05 0.222043)
(0.000734457 -6.16317e-05 0.231508)
(0.000915561 -6.47235e-05 0.239956)
(0.00103087 -6.91666e-05 0.250273)
(0.000843934 -8.16117e-05 0.260338)
(0.000369632 -0.000101079 0.273877)
(-0.00033117 -0.00012525 0.288341)
(-0.000875726 -0.000150668 0.306873)
(-0.00107298 -0.000182932 0.325908)
(-0.00144847 -0.00022952 0.351435)
(-0.00277897 -0.000314132 0.380369)
(-0.00533828 -0.000454308 0.433779)
(-0.00579986 -0.000970066 0.493702)
(3.17747e-05 -0.00591883 0.722687)
(0.00244766 -0.119822 1.89999)
(-0.000898678 -4.37221e-05 0.196348)
(-0.000799699 -4.54191e-05 0.203135)
(-0.00046008 -4.7241e-05 0.211114)
(-4.38669e-05 -5.13386e-05 0.218786)
(0.000452919 -5.64836e-05 0.228199)
(0.000773157 -6.48756e-05 0.23752)
(0.000901745 -7.36942e-05 0.249311)
(0.000617455 -8.57408e-05 0.261065)
(3.17219e-05 -9.90283e-05 0.275462)
(-0.000628776 -0.000116317 0.289548)
(-0.000716566 -0.000138276 0.307282)
(2.19445e-05 -0.000174853 0.326562)
(0.0007218 -0.000226578 0.353627)
(-9.31645e-05 -0.000326965 0.382705)
(-0.00296352 -0.000498908 0.433485)
(-0.00439916 -0.00101428 0.489819)
(-0.00115882 -0.00595281 0.720822)
(0.000526542 -0.117719 1.92456)
(-0.000682168 -4.8946e-05 0.188602)
(-0.000714149 -4.88601e-05 0.194685)
(-0.000593186 -4.70424e-05 0.202046)
(-0.000514619 -4.78211e-05 0.209607)
(-0.000411498 -5.11172e-05 0.219535)
(-0.000387208 -6.12178e-05 0.230356)
(-0.000315877 -7.39646e-05 0.244285)
(-0.000243881 -8.96894e-05 0.258407)
(-0.000193101 -0.000103234 0.27443)
(-0.000323694 -0.000120215 0.288822)
(-0.0005754 -0.000141751 0.305783)
(-0.000587494 -0.000174381 0.324374)
(-0.000133692 -0.000218016 0.352307)
(0.000576081 -0.000304154 0.38338)
(0.000155366 -0.000477298 0.435408)
(-0.00121368 -0.00101983 0.491041)
(-0.00190045 -0.00590696 0.719281)
(-0.00536969 -0.117639 1.8878)
)
;
    }
    rightWall
    {
        type            calculated;
        value           nonuniform List<vector> 
216
(
(-0.000375148 3.00019e-05 0.382237)
(-0.000473786 3.20783e-05 0.384166)
(-0.000528405 3.16039e-05 0.388677)
(-0.000317268 3.0671e-05 0.39068)
(-6.9592e-05 2.87256e-05 0.396565)
(0.00024317 3.0768e-05 0.400401)
(0.000373043 3.5372e-05 0.410099)
(0.000283702 4.54971e-05 0.418411)
(-0.000254163 5.22877e-05 0.432961)
(-0.000826334 6.01721e-05 0.44491)
(-0.00180373 7.13169e-05 0.462437)
(-0.00262833 0.000101703 0.478946)
(-0.00295185 0.00014086 0.506763)
(-0.00197213 0.000221179 0.531103)
(0.000719001 0.000302266 0.587614)
(0.00212929 0.000837385 0.628272)
(0.000199727 0.00709101 0.930938)
(-0.00553053 0.286342 2.35142)
(0.000545526 2.56751e-05 0.383919)
(0.00057348 2.90679e-05 0.385897)
(0.000466353 3.07006e-05 0.389856)
(0.000266009 3.22575e-05 0.391964)
(-0.00019191 3.30904e-05 0.39756)
(-0.000790039 3.63779e-05 0.401565)
(-0.0016076 4.06122e-05 0.410676)
(-0.00215164 4.97207e-05 0.418477)
(-0.00262511 6.15759e-05 0.431665)
(-0.00253165 8.00932e-05 0.442609)
(-0.002834 0.000106032 0.459163)
(-0.00312365 0.000141143 0.474441)
(-0.00357946 0.000164354 0.499746)
(-0.00362509 0.000224433 0.521089)
(-0.00314787 0.000306505 0.578023)
(-0.000891066 0.000854371 0.619096)
(0.00539073 0.00707652 0.925872)
(0.00950043 0.286014 2.35523)
(0.000557967 1.61716e-05 0.384421)
(0.000741018 2.11293e-05 0.388175)
(0.000869022 2.81708e-05 0.393428)
(0.000723618 3.61521e-05 0.397496)
(0.000311671 4.32613e-05 0.403656)
(-0.000280017 5.0892e-05 0.407579)
(-0.00105302 5.74945e-05 0.41393)
(-0.00153209 6.38811e-05 0.41815)
(-0.00186457 6.963e-05 0.426923)
(-0.00159922 7.99804e-05 0.436005)
(-0.00141923 9.87623e-05 0.453191)
(-0.00107128 0.000127629 0.471635)
(-0.00117361 0.0001591 0.499197)
(-0.00184199 0.000242932 0.519964)
(-0.00314703 0.000331713 0.572855)
(-0.00276739 0.000851134 0.606256)
(0.00077817 0.00706827 0.917336)
(-0.0143587 0.285916 2.35807)
(-0.000501244 1.63733e-05 0.379053)
(-0.00036915 2.11181e-05 0.383267)
(8.14894e-05 2.79692e-05 0.389476)
(0.000427223 3.6659e-05 0.395004)
(0.000851492 4.58243e-05 0.402478)
(0.00108058 5.46963e-05 0.407946)
(0.000967645 6.25856e-05 0.414876)
(0.000395255 6.8732e-05 0.419329)
(-0.000925737 7.25897e-05 0.426798)
(-0.00241025 7.83777e-05 0.434289)
(-0.00374382 8.54182e-05 0.449535)
(-0.0041687 9.87121e-05 0.467852)
(-0.00329537 0.00012118 0.497957)
(-0.00115674 0.000213576 0.523608)
(0.000788354 0.000326942 0.579139)
(-0.00116491 0.000848651 0.608757)
(-0.00433475 0.00708452 0.903487)
(-0.0151085 0.28654 2.34036)
(-0.000528018 2.52785e-05 0.372414)
(-0.000555996 2.88634e-05 0.375049)
(-0.000262367 2.93632e-05 0.38046)
(-3.88578e-05 2.87489e-05 0.385598)
(0.000509632 2.806e-05 0.393536)
(0.00115687 3.38556e-05 0.40084)
(0.00189271 4.68505e-05 0.410686)
(0.00224438 6.6958e-05 0.419233)
(0.00161809 8.81308e-05 0.429923)
(-3.00416e-05 0.000107934 0.43812)
(-0.00277128 0.000118778 0.449697)
(-0.00602375 0.00012765 0.461346)
(-0.00820564 0.000134539 0.486351)
(-0.00686822 0.000214006 0.514137)
(-0.00179717 0.000328443 0.579003)
(0.00177126 0.000888818 0.617647)
(-0.000848479 0.00710137 0.90673)
(0.014688 0.287299 2.34162)
(0.000286661 2.1131e-05 0.375678)
(-3.06444e-05 1.96115e-05 0.378109)
(-0.00040804 1.68285e-05 0.382928)
(-0.00101886 1.57841e-05 0.387291)
(-0.00148784 1.31251e-05 0.394435)
(-0.00154504 1.47772e-05 0.401655)
(-0.000953834 1.97139e-05 0.412044)
(0.000188393 3.56946e-05 0.42237)
(0.00151733 6.04385e-05 0.435719)
(0.00242416 9.14195e-05 0.446728)
(0.00193875 0.000122725 0.459523)
(-0.000970691 0.000159203 0.469209)
(-0.00545756 0.000191527 0.488573)
(-0.00762016 0.000268866 0.509211)
(-0.0041307 0.000366878 0.569202)
(0.00442982 0.000923863 0.6101)
(0.0076178 0.00720718 0.913528)
(0.0366961 0.283931 2.36925)
(-0.000136445 1.80441e-05 0.383114)
(-0.000637165 1.8398e-05 0.386064)
(-0.00129644 2.33686e-05 0.390484)
(-0.00200526 3.44401e-05 0.393949)
(-0.00275949 4.37058e-05 0.399765)
(-0.00323536 4.87826e-05 0.405)
(-0.00330212 4.73363e-05 0.412784)
(-0.00267541 4.67411e-05 0.419682)
(-0.00121508 4.98509e-05 0.430122)
(0.00057793 6.14794e-05 0.44055)
(0.00189033 8.26754e-05 0.456585)
(0.00132541 0.000122751 0.472848)
(-0.000726749 0.000169806 0.496628)
(-0.00151782 0.000264974 0.515976)
(0.00140316 0.000366229 0.569999)
(0.00568374 0.000925606 0.610508)
(0.00296958 0.00719684 0.942642)
(-0.00297117 0.284029 2.40845)
(-0.000402537 2.77609e-05 0.383025)
(-0.000635341 3.2305e-05 0.38594)
(-0.000845299 3.87758e-05 0.390166)
(-0.000946349 4.69249e-05 0.39329)
(-0.0011073 5.30374e-05 0.398643)
(-0.00121974 5.65638e-05 0.402768)
(-0.00114747 5.82877e-05 0.409542)
(-0.000787429 6.02933e-05 0.415173)
(-0.000206721 6.03399e-05 0.424967)
(0.000158562 6.57582e-05 0.43582)
(-0.00013477 7.84108e-05 0.453383)
(-0.00113884 0.000111768 0.472629)
(-0.00190069 0.000152038 0.498874)
(-0.000750766 0.000239174 0.520508)
(0.00181943 0.000319711 0.576016)
(0.00118743 0.000831929 0.618985)
(-0.00872449 0.00718638 0.925943)
(-0.0886622 0.288322 2.37372)
(0.000375813 3.22911e-05 0.383253)
(0.000380244 3.77534e-05 0.385601)
(0.000365175 3.94994e-05 0.389686)
(0.000238527 3.94369e-05 0.392168)
(-7.45737e-05 3.8948e-05 0.397012)
(-0.000508948 4.14859e-05 0.400429)
(-0.00086832 4.59352e-05 0.407458)
(-0.00107188 5.40805e-05 0.414145)
(-0.00143063 6.17835e-05 0.425823)
(-0.00190705 7.31468e-05 0.438107)
(-0.00248886 9.02201e-05 0.45533)
(-0.00239917 0.000122527 0.471935)
(-0.00121043 0.000158717 0.494843)
(0.000557864 0.00023709 0.514912)
(0.000266081 0.000323385 0.570724)
(-0.00180207 0.000852737 0.613039)
(0.000699131 0.0070253 0.901116)
(-0.0261068 0.285266 2.31286)
(0.000920248 2.36497e-05 0.384999)
(0.00122682 2.87463e-05 0.387614)
(0.00134836 3.17179e-05 0.39232)
(0.00120922 3.61833e-05 0.394994)
(0.000786115 4.19559e-05 0.399977)
(0.000194013 5.02518e-05 0.403034)
(-0.00043941 5.84135e-05 0.40937)
(-0.000887512 6.64471e-05 0.414504)
(-0.00146037 7.5319e-05 0.423794)
(-0.00183338 8.92014e-05 0.432371)
(-0.00210711 0.00010618 0.446138)
(-0.00167121 0.000132064 0.459966)
(-0.000146262 0.00016163 0.484359)
(0.00166647 0.000252602 0.508436)
(0.00129872 0.000370719 0.568634)
(-9.13086e-05 0.000898704 0.609911)
(0.0026147 0.00696337 0.909239)
(0.0154813 0.286512 2.34863)
(0.000445652 1.70405e-05 0.383018)
(0.000812077 2.05493e-05 0.387227)
(0.00107154 2.37235e-05 0.393365)
(0.00129314 2.93868e-05 0.398041)
(0.00143116 3.69176e-05 0.404433)
(0.00149363 4.71105e-05 0.408725)
(0.0014612 5.70461e-05 0.41518)
(0.00140914 6.67861e-05 0.419817)
(0.00117999 7.72848e-05 0.42807)
(0.000987969 8.89272e-05 0.435381)
(0.000581721 0.000101764 0.448473)
(0.000164307 0.000124616 0.460757)
(0.000146707 0.000152443 0.484287)
(0.00113469 0.00023999 0.50718)
(0.00146262 0.000354559 0.567724)
(1.58623e-05 0.000900364 0.607331)
(-0.00303799 0.00704972 0.906222)
(0.014524 0.285932 2.34715)
(-0.000379404 1.80965e-05 0.383289)
(-0.00018643 2.18805e-05 0.38763)
(8.79345e-05 2.6351e-05 0.393059)
(0.000428345 3.12882e-05 0.397709)
(0.000887025 3.52194e-05 0.403759)
(0.00131009 3.96405e-05 0.408553)
(0.00165746 4.40375e-05 0.415623)
(0.00172973 4.93372e-05 0.42182)
(0.00157547 5.51506e-05 0.432008)
(0.00120619 6.28729e-05 0.441621)
(0.00106564 7.57968e-05 0.457122)
(0.00115997 0.000100487 0.47121)
(0.0015073 0.000130928 0.495064)
(0.00224231 0.00021574 0.515441)
(0.00256892 0.000332784 0.572604)
(0.00291419 0.000886276 0.609119)
(0.0027097 0.00709445 0.906011)
(0.00713815 0.286202 2.34817)
)
;
    }
    leftSides_periodic0
    {
        type            cyclic;
    }
    leftSides_periodic1
    {
        type            cyclic;
    }
    rightSides_periodic0
    {
        type            cyclic;
    }
    rightSides_periodic1
    {
        type            cyclic;
    }
    leftInOut_periodic0
    {
        type            calculated;
        value           nonuniform 0();
    }
    leftInOut_periodic1
    {
        type            calculated;
        value           uniform (0 0 0);
    }
    rightInOut_periodic0
    {
        type            calculated;
        value           nonuniform 0();
    }
    rightInOut_periodic1
    {
        type            calculated;
        value           uniform (0 0 0);
    }
    procBoundary5to2
    {
        type            processor;
        value           uniform (0 0 0);
    }
    procBoundary5to3throughleftSides_periodic0
    {
        type            processorCyclic;
        value           uniform (0 0 0);
    }
    procBoundary5to3throughrightSides_periodic0
    {
        type            processorCyclic;
        value           uniform (0 0 0);
    }
    procBoundary5to4
    {
        type            processor;
        value           uniform (0 0 0);
    }
}


// ************************************************************************* //
