-0.0075 	0 	0 	0
-0.0075 	1.07979e-33 	-3.3191e-36 	1.87493e-31
-0.00745622 	8.86977e-05 	-2.72643e-07 	0.0154014
-0.00745622 	8.86977e-05 	-2.72643e-07 	0.0154014
-0.00741165 	0.000172779 	-1.17366e-06 	0.0299391
-0.00741165 	0.000172779 	-1.17366e-06 	0.0299391
-0.00736628 	0.000252171 	-2.67241e-06 	0.0437103
-0.00736628 	0.000252171 	-2.67241e-06 	0.0437103
-0.0073201 	0.000326054 	-4.47335e-06 	0.0567413
-0.0073201 	0.000326054 	-4.47335e-06 	0.0567413
-0.00727309 	0.000393141 	-6.90565e-06 	0.0690607
-0.00727309 	0.000393141 	-6.90565e-06 	0.0690607
-0.00722524 	0.0004524 	-9.8511e-06 	0.0807031
-0.00722524 	0.0004524 	-9.8511e-06 	0.0807031
-0.00717653 	0.000503238 	-1.34146e-05 	0.091701
-0.00717653 	0.000503238 	-1.34146e-05 	0.091701
-0.00712695 	0.000545373 	-1.76117e-05 	0.102069
-0.00712695 	0.000545373 	-1.76117e-05 	0.102069
-0.00707647 	0.000578793 	-2.24541e-05 	0.111802
-0.00707647 	0.000578793 	-2.24541e-05 	0.111802
-0.0070251 	0.000603782 	-2.79562e-05 	0.120885
-0.0070251 	0.000603782 	-2.79562e-05 	0.120885
-0.0069728 	0.000620917 	-3.41434e-05 	0.129314
-0.0069728 	0.000620917 	-3.41434e-05 	0.129314
-0.00691956 	0.000630996 	-4.10611e-05 	0.137102
-0.00691956 	0.000630996 	-4.10611e-05 	0.137102
-0.00686537 	0.000634935 	-4.87731e-05 	0.144282
-0.00686537 	0.000634935 	-4.87731e-05 	0.144282
-0.00681021 	0.000633669 	-5.73433e-05 	0.150905
-0.00681021 	0.000633669 	-5.73433e-05 	0.150905
-0.00675406 	0.000628077 	-6.68251e-05 	0.157023
-0.00675406 	0.000628077 	-6.68251e-05 	0.157023
-0.0066969 	0.000618942 	-7.72672e-05 	0.162686
-0.0066969 	0.000618942 	-7.72672e-05 	0.162686
-0.00663871 	0.00060696 	-8.87026e-05 	0.167935
-0.00663871 	0.00060696 	-8.87026e-05 	0.167935
-0.00657949 	0.00059275 	-0.000101141 	0.17281
-0.00657949 	0.00059275 	-0.000101141 	0.17281
-0.0065192 	0.000576862 	-0.000114567 	0.177346
-0.0065192 	0.000576862 	-0.000114567 	0.177346
-0.00645783 	0.000559773 	-0.000128934 	0.18158
-0.00645783 	0.000559773 	-0.000128934 	0.18158
-0.00639535 	0.000541886 	-0.000144183 	0.185547
-0.00639535 	0.000541886 	-0.000144183 	0.185547
-0.00633176 	0.000523532 	-0.00016026 	0.189282
-0.00633176 	0.000523532 	-0.00016026 	0.189282
-0.00626703 	0.000504991 	-0.000177121 	0.192813
-0.00626703 	0.000504991 	-0.000177121 	0.192813
-0.00620114 	0.000486515 	-0.000194721 	0.196166
-0.00620114 	0.000486515 	-0.000194721 	0.196166
-0.00613406 	0.000468331 	-0.000213004 	0.199361
-0.00613406 	0.000468331 	-0.000213004 	0.199361
-0.00606579 	0.000450644 	-0.000231905 	0.202418
-0.00606579 	0.000450644 	-0.000231905 	0.202418
-0.00599629 	0.000433648 	-0.000251342 	0.205355
-0.00599629 	0.000433648 	-0.000251342 	0.205355
-0.00592554 	0.000417532 	-0.00027122 	0.208186
-0.00592554 	0.000417532 	-0.00027122 	0.208186
-0.00585352 	0.000402478 	-0.000291436 	0.210924
-0.00585352 	0.000402478 	-0.000291436 	0.210924
-0.00578022 	0.000388665 	-0.000311886 	0.21358
-0.00578022 	0.000388665 	-0.000311886 	0.21358
-0.00570559 	0.000376265 	-0.00033246 	0.216163
-0.00570559 	0.000376265 	-0.00033246 	0.216163
-0.00562963 	0.00036545 	-0.000353047 	0.218682
-0.00562963 	0.00036545 	-0.000353047 	0.218682
-0.00555231 	0.00035638 	-0.000373532 	0.221144
-0.00555231 	0.00035638 	-0.000373532 	0.221144
-0.0054736 	0.000349213 	-0.000393801 	0.223555
-0.0054736 	0.000349213 	-0.000393801 	0.223555
-0.00539348 	0.000344093 	-0.00041374 	0.225919
-0.00539348 	0.000344093 	-0.00041374 	0.225919
-0.00531193 	0.000341155 	-0.000433236 	0.22824
-0.00531193 	0.000341155 	-0.000433236 	0.22824
-0.00522891 	0.000340514 	-0.000452183 	0.230521
-0.00522891 	0.000340514 	-0.000452183 	0.230521
-0.0051444 	0.000342271 	-0.000470479 	0.232763
-0.0051444 	0.000342271 	-0.000470479 	0.232763
-0.00505838 	0.0003465 	-0.000488029 	0.234969
-0.00505838 	0.0003465 	-0.000488029 	0.234969
-0.00497081 	0.000353248 	-0.00050475 	0.237136
-0.00497081 	0.000353248 	-0.00050475 	0.237136
-0.00488168 	0.000362532 	-0.000520571 	0.239266
-0.00488168 	0.000362532 	-0.000520571 	0.239266
-0.00479094 	0.000374337 	-0.000535432 	0.241355
-0.00479094 	0.000374337 	-0.000535432 	0.241355
-0.00469858 	0.000388613 	-0.000549292 	0.243403
-0.00469858 	0.000388613 	-0.000549292 	0.243403
-0.00460456 	0.000405282 	-0.000562118 	0.245408
-0.00460456 	0.000405282 	-0.000562118 	0.245408
-0.00450886 	0.000424227 	-0.000573894 	0.247367
-0.00450886 	0.000424227 	-0.000573894 	0.247367
-0.00441144 	0.000445293 	-0.000584611 	0.249278
-0.00441144 	0.000445293 	-0.000584611 	0.249278
-0.00431227 	0.000468271 	-0.000594274 	0.251137
-0.00431227 	0.000468271 	-0.000594274 	0.251137
-0.00421133 	0.000492893 	-0.000602913 	0.252938
-0.00421133 	0.000492893 	-0.000602913 	0.252938
-0.00410857 	0.000518833 	-0.000610606 	0.254677
-0.00410857 	0.000518833 	-0.000610606 	0.254677
-0.00400397 	0.000545755 	-0.000617503 	0.256346
-0.00400397 	0.000545755 	-0.000617503 	0.256346
-0.0038975 	0.0005734 	-0.000623807 	0.257944
-0.0038975 	0.0005734 	-0.000623807 	0.257944
-0.00378912 	0.000601651 	-0.000629735 	0.259475
-0.00378912 	0.000601651 	-0.000629735 	0.259475
-0.00367879 	0.000630379 	-0.000635468 	0.260943
-0.00367879 	0.000630379 	-0.000635468 	0.260943
-0.00356649 	0.000659265 	-0.000641147 	0.262348
-0.00356649 	0.000659265 	-0.000641147 	0.262348
-0.00345217 	0.000687854 	-0.000646912 	0.263686
-0.00345217 	0.000687854 	-0.000646912 	0.263686
-0.0033358 	0.000715644 	-0.00065291 	0.264952
-0.0033358 	0.000715644 	-0.00065291 	0.264952
-0.00321735 	0.000742111 	-0.000659296 	0.266142
-0.00321735 	0.000742111 	-0.000659296 	0.266142
-0.00309677 	0.000766719 	-0.000666213 	0.267251
-0.00309677 	0.000766719 	-0.000666213 	0.267251
-0.00297403 	0.000788939 	-0.00067379 	0.268276
-0.00297403 	0.000788939 	-0.00067379 	0.268276
-0.00284909 	0.000808267 	-0.00068213 	0.269213
-0.00284909 	0.000808267 	-0.00068213 	0.269213
-0.0027219 	0.000824246 	-0.000691299 	0.270059
-0.0027219 	0.000824246 	-0.000691299 	0.270059
-0.00259244 	0.000836488 	-0.000701324 	0.270813
-0.00259244 	0.000836488 	-0.000701324 	0.270813
-0.00246065 	0.000844687 	-0.000712187 	0.271474
-0.00246065 	0.000844687 	-0.000712187 	0.271474
-0.00232651 	0.000848631 	-0.000723829 	0.272043
-0.00232651 	0.000848631 	-0.000723829 	0.272043
-0.00218995 	0.000848196 	-0.000736148 	0.272521
-0.00218995 	0.000848196 	-0.000736148 	0.272521
-0.00205095 	0.000843352 	-0.000749012 	0.272911
-0.00205095 	0.000843352 	-0.000749012 	0.272911
-0.00190946 	0.000834147 	-0.000762273 	0.273215
-0.00190946 	0.000834147 	-0.000762273 	0.273215
-0.00176543 	0.000820689 	-0.000775763 	0.273436
-0.00176543 	0.000820689 	-0.000775763 	0.273436
-0.00161881 	0.000803132 	-0.000789321 	0.273577
-0.00161881 	0.000803132 	-0.000789321 	0.273577
-0.00146957 	0.000781671 	-0.000802792 	0.27364
-0.00146957 	0.000781671 	-0.000802792 	0.27364
-0.00131765 	0.000756528 	-0.00081603 	0.273625
-0.00131765 	0.000756528 	-0.00081603 	0.273625
-0.001163 	0.00072795 	-0.000828902 	0.273535
-0.001163 	0.00072795 	-0.000828902 	0.273535
-0.00100559 	0.000696208 	-0.000841293 	0.273367
-0.00100559 	0.000696208 	-0.000841293 	0.273367
-0.000845345 	0.000661609 	-0.000852879 	0.273122
-0.000845345 	0.000661609 	-0.000852879 	0.273122
-0.000682232 	0.000624496 	-0.000863707 	0.272798
-0.000682232 	0.000624496 	-0.000863707 	0.272798
-0.000516194 	0.00058526 	-0.000873913 	0.272393
-0.000516194 	0.00058526 	-0.000873913 	0.272393
-0.000347178 	0.000544337 	-0.000883043 	0.271903
-0.000347178 	0.000544337 	-0.000883043 	0.271903
-0.000175132 	0.000502197 	-0.000891599 	0.271326
-0.000175132 	0.000502197 	-0.000891599 	0.271326
0 	0.000459545 	-0.000899059 	0.270661
0 	0.000459545 	-0.000899059 	0.270661
0 	0.000459545 	-0.000899059 	0.270661
0 	0.000459545 	-0.000899059 	0.270661
0.000175132 	0.000417533 	-0.000904566 	0.269915
0.000175132 	0.000529778 	-0.000755286 	0.268245
0.000347178 	0.000377284 	-0.0009087 	0.269101
0.000347178 	0.000486617 	-0.000765842 	0.267414
0.000516194 	0.000339471 	-0.000910917 	0.268225
0.000516194 	0.000446092 	-0.000773962 	0.266525
0.000682232 	0.0003045 	-0.000911386 	0.267292
0.000682232 	0.000408775 	-0.000779787 	0.265583
0.000845345 	0.000272667 	-0.00091072 	0.266304
0.000845345 	0.000375088 	-0.000784522 	0.264589
0.00100559 	0.000244194 	-0.000908732 	0.265265
0.00100559 	0.000345341 	-0.000787659 	0.263546
0.001163 	0.000219235 	-0.000905518 	0.264176
0.001163 	0.000319733 	-0.000789303 	0.262456
0.00131765 	0.000197882 	-0.000901173 	0.263042
0.00131765 	0.000298358 	-0.000789563 	0.261321
0.00146957 	0.000180169 	-0.000895781 	0.261863
0.00146957 	0.000281224 	-0.000788544 	0.260143
0.00161881 	0.00016608 	-0.000889438 	0.260641
0.00161881 	0.000268256 	-0.000786378 	0.258922
0.00176543 	0.000155554 	-0.000882237 	0.259378
0.00176543 	0.000259308 	-0.000783216 	0.257662
0.00190946 	0.000148488 	-0.000874267 	0.258076
0.00190946 	0.000254165 	-0.000779217 	0.256363
0.00205095 	0.000144742 	-0.000865616 	0.256736
0.00205095 	0.000252557 	-0.000774533 	0.255026
0.00218995 	0.000144145 	-0.000856339 	0.255358
0.00218995 	0.000254146 	-0.00076921 	0.253655
0.00232651 	0.000146508 	-0.000846459 	0.253945
0.00232651 	0.000258537 	-0.00076321 	0.252254
0.00246065 	0.000151648 	-0.000835949 	0.252496
0.00246065 	0.000265427 	-0.000756381 	0.25082
0.00259244 	0.000159387 	-0.000824749 	0.251007
0.00259244 	0.000274667 	-0.000748496 	0.249345
0.0027219 	0.000169498 	-0.00081281 	0.249478
0.0027219 	0.000286063 	-0.000739427 	0.24782
0.00284909 	0.000181707 	-0.000800083 	0.247909
0.00284909 	0.000299282 	-0.000729094 	0.246242
0.00297403 	0.000195735 	-0.00078653 	0.246299
0.00297403 	0.00031393 	-0.00071744 	0.244612
0.00309677 	0.000211308 	-0.000772122 	0.244646
0.00309677 	0.000329595 	-0.000704467 	0.242928
0.00321735 	0.000228152 	-0.000756854 	0.242947
0.00321735 	0.000345857 	-0.00069024 	0.241189
0.0033358 	0.00024596 	-0.000740741 	0.241201
0.0033358 	0.00036228 	-0.000674872 	0.239395
0.00345217 	0.000378422 	-0.000658473 	0.237546
0.00345217 	0.000264396 	-0.000723814 	0.23941
0.00356649 	0.000283114 	-0.000706103 	0.237574
0.00356649 	0.00039385 	-0.000641142 	0.235644
0.00367879 	0.000301786 	-0.000687649 	0.235693
0.00367879 	0.000408153 	-0.000622971 	0.23369
0.00378912 	0.000320106 	-0.000668498 	0.233768
0.00378912 	0.000420966 	-0.000604051 	0.231684
0.0038975 	0.000337798 	-0.000648701 	0.231796
0.0038975 	0.000431968 	-0.000584476 	0.229626
0.00400397 	0.000354614 	-0.000628314 	0.229773
0.00400397 	0.00044088 	-0.000564344 	0.227512
0.00410857 	0.000447456 	-0.000543761 	0.22534
0.00410857 	0.000370319 	-0.00060739 	0.227694
0.00421133 	0.000384687 	-0.000585989 	0.225554
0.00421133 	0.000451471 	-0.000522835 	0.223105
0.00431227 	0.000397496 	-0.000564166 	0.223347
0.00431227 	0.00045272 	-0.000501675 	0.220801
0.00441144 	0.000408521 	-0.00054198 	0.221065
0.00441144 	0.000451007 	-0.000480381 	0.218423
0.00450886 	0.000417534 	-0.000519486 	0.218704
0.00450886 	0.000446147 	-0.000459047 	0.215965
0.00460456 	0.000424309 	-0.000496741 	0.216256
0.00460456 	0.000437963 	-0.000437751 	0.213422
0.00469858 	0.00042862 	-0.000473796 	0.213715
0.00469858 	0.000426291 	-0.000416562 	0.210786
0.00479094 	0.00043025 	-0.000450703 	0.211077
0.00479094 	0.000410978 	-0.000395538 	0.208053
0.00488168 	0.00042899 	-0.000427514 	0.208334
0.00488168 	0.000391895 	-0.000374732 	0.205216
0.00497081 	0.000424654 	-0.000404282 	0.205483
0.00497081 	0.000368934 	-0.000354197 	0.20227
0.00505838 	0.00041708 	-0.000381066 	0.202519
0.00505838 	0.000342026 	-0.000333987 	0.199208
0.0051444 	0.00040614 	-0.000357933 	0.19944
0.0051444 	0.000311153 	-0.000314167 	0.196029
0.00522891 	0.000391754 	-0.000334964 	0.196242
0.00522891 	0.000276362 	-0.000294811 	0.19273
0.00531193 	0.00037389 	-0.00031225 	0.192925
0.00531193 	0.000237777 	-0.000276006 	0.189311
0.00539348 	0.000352573 	-0.000289896 	0.189489
0.00539348 	0.000195612 	-0.000257839 	0.185777
0.0054736 	0.000327882 	-0.00026801 	0.185935
0.0054736 	0.000150155 	-0.000240398 	0.182129
0.00555231 	0.000299951 	-0.000246707 	0.182262
0.00555231 	0.000101761 	-0.000223756 	0.178373
0.00562963 	0.000268961 	-0.000226095 	0.178469
0.00562963 	5.08363e-05 	-0.000207971 	0.174511
0.00570559 	0.000235141 	-0.000206275 	0.174556
0.00570559 	-2.1734e-06 	-0.000193084 	0.170544
0.00578022 	0.000198767 	-0.000187337 	0.170518
0.00578022 	-5.67858e-05 	-0.000179115 	0.166472
0.00585352 	0.000160154 	-0.000169357 	0.166354
0.00585352 	-0.000112486 	-0.000166067 	0.162291
0.00592554 	0.000119663 	-0.000152393 	0.162058
0.00592554 	-0.000168731 	-0.000153923 	0.157998
0.00599629 	7.7689e-05 	-0.00013649 	0.157624
0.00599629 	-0.000224947 	-0.000142647 	0.153588
0.00606579 	3.46461e-05 	-0.000121682 	0.153042
0.00606579 	-0.000280556 	-0.000132186 	0.149051
0.00613406 	-9.0306e-06 	-0.000107988 	0.1483
0.00613406 	-0.000334961 	-0.000122481 	0.144374
0.00620114 	-0.000387513 	-0.000113465 	0.139545
0.00620114 	-5.28453e-05 	-9.54225e-05 	0.143386
0.00626703 	-9.62296e-05 	-8.39912e-05 	0.138289
0.00626703 	-0.000437488 	-0.000105072 	0.134553
0.00633176 	-0.000484119 	-9.72213e-05 	0.129386
0.00633176 	-0.000138565 	-7.36731e-05 	0.133001
0.00639535 	-0.000526613 	-8.98243e-05 	0.124032
0.00639535 	-0.000179194 	-6.44269e-05 	0.12751
0.00645783 	-0.000217424 	-5.61974e-05 	0.121806
0.00645783 	-0.00056415 	-8.27898e-05 	0.118478
0.0065192 	-0.000252526 	-4.89202e-05 	0.115876
0.0065192 	-0.000595895 	-7.60326e-05 	0.112711
0.00657949 	-0.000283748 	-4.25233e-05 	0.109712
0.00657949 	-0.000621016 	-6.94875e-05 	0.106718
0.00663871 	-0.000310359 	-3.69e-05 	0.103295
0.00663871 	-0.000638724 	-6.30876e-05 	0.100475
0.0066969 	-0.000331659 	-3.19323e-05 	0.0965943
0.0066969 	-0.000648261 	-5.67748e-05 	0.093946
0.00675406 	-0.000648888 	-5.05317e-05 	0.0871174
0.00675406 	-0.000346938 	-2.75128e-05 	0.0895919
0.00681021 	-0.000639996 	-4.4366e-05 	0.0800104
0.00681021 	-0.000355487 	-2.35557e-05 	0.0823036
0.00686537 	-0.000621301 	-3.83117e-05 	0.0726772
0.00686537 	-0.000356752 	-2.00067e-05 	0.0747823
0.00691956 	-0.000593008 	-3.24308e-05 	0.0652048
0.00691956 	-0.000350493 	-1.68154e-05 	0.0671179
0.0069728 	-0.000555938 	-2.68088e-05 	0.0577139
0.0069728 	-0.000336921 	-1.39386e-05 	0.0594347
0.0070251 	-0.000316751 	-1.13434e-05 	0.0518793
0.0070251 	-0.00051152 	-2.15477e-05 	0.0503464
0.00707647 	-0.000291136 	-9.01095e-06 	0.044599
0.00707647 	-0.00046162 	-1.67535e-05 	0.0432463
0.00712695 	-0.000261467 	-6.93804e-06 	0.0377167
0.00712695 	-0.000408244 	-1.25231e-05 	0.0365355
0.00717653 	-0.000229135 	-5.13341e-06 	0.031313
0.00717653 	-0.000353214 	-8.92791e-06 	0.0302957
0.00722524 	-0.000195333 	-3.60125e-06 	0.0254234
0.00722524 	-0.00029796 	-5.98582e-06 	0.0245647
0.00727309 	-0.000243483 	-3.68889e-06 	0.0193443
0.00727309 	-0.000160985 	-2.34854e-06 	0.0200487
0.0073201 	-0.000190411 	-1.91214e-06 	0.014615
0.0073201 	-0.000126742 	-1.32715e-06 	0.0151693
0.00736628 	-0.000139086 	-8.52263e-07 	0.0103471
0.00736628 	-9.30101e-05 	-6.67715e-07 	0.0107568
0.00741165 	-6.01793e-05 	-1.46385e-07 	0.00678035
0.00741165 	-8.98415e-05 	-4.70416e-08 	0.0065079
0.00745622 	-2.89636e-05 	8.3797e-08 	0.00320904
0.00745622 	-4.3285e-05 	2.34026e-07 	0.00306442
0.0075 	0 	0 	0
0.0075 	0 	0 	0
