0 	0 	0 	0
0 	8.65824e-37 	-2.86969e-36 	1.85159e-31
5.01672e-05 	-1.27163e-08 	-3.12046e-07 	0.0172729
5.01672e-05 	-1.27163e-08 	-3.12046e-07 	0.0172729
0.000100334 	-7.2584e-07 	-1.00638e-06 	0.0332322
0.000150502 	-1.58356e-06 	-2.1245e-06 	0.0480502
0.000150502 	-1.58356e-06 	-2.1245e-06 	0.0480502
0.000200669 	-2.34392e-06 	-3.65112e-06 	0.0618119
0.000200669 	-2.34392e-06 	-3.65112e-06 	0.0618119
0.000250836 	-3.01669e-06 	-5.59499e-06 	0.0745936
0.000301003 	-3.62682e-06 	-7.94218e-06 	0.0864594
0.000301003 	-3.62682e-06 	-7.94218e-06 	0.0864594
0.000351171 	-4.1799e-06 	-1.06908e-05 	0.0974509
0.000401338 	-4.67886e-06 	-1.38489e-05 	0.107588
0.000451505 	-5.12553e-06 	-1.7441e-05 	0.116884
0.000451505 	-5.12553e-06 	-1.7441e-05 	0.116884
0.000501672 	-5.52071e-06 	-2.15045e-05 	0.125365
0.000551839 	-5.86484e-06 	-2.60778e-05 	0.133076
0.000551839 	-5.86484e-06 	-2.60778e-05 	0.133076
0.000602007 	-6.15882e-06 	-3.11907e-05 	0.140078
0.000602007 	-6.15882e-06 	-3.11907e-05 	0.140078
0.000652174 	-6.40456e-06 	-3.68654e-05 	0.146443
0.000652174 	-6.40456e-06 	-3.68654e-05 	0.146443
0.000702341 	-6.60509e-06 	-4.31225e-05 	0.152242
0.000702341 	-6.60509e-06 	-4.31225e-05 	0.152242
0.000752508 	-6.76404e-06 	-4.99794e-05 	0.157547
0.000802676 	-6.88474e-06 	-5.74527e-05 	0.162411
0.000852843 	-6.96568e-06 	-6.56432e-05 	0.166828
0.000852843 	-6.96568e-06 	-6.56432e-05 	0.166828
0.00090301 	-7.01603e-06 	-7.44225e-05 	0.170908
0.00090301 	-7.01603e-06 	-7.44225e-05 	0.170908
0.000953177 	-7.03891e-06 	-8.37399e-05 	0.17469
0.00100334 	-7.03724e-06 	-9.35429e-05 	0.17821
0.00100334 	-7.03724e-06 	-9.35429e-05 	0.17821
0.00105351 	-7.01371e-06 	-0.000103781 	0.181499
0.00105351 	-7.01371e-06 	-0.000103781 	0.181499
0.00110368 	-6.9703e-06 	-0.000114416 	0.184581
0.00115385 	-6.90491e-06 	-0.000125492 	0.187435
0.00120401 	-6.82524e-06 	-0.000136854 	0.190138
0.00120401 	-6.82524e-06 	-0.000136854 	0.190138
0.00130435 	-6.62912e-06 	-0.000160295 	0.19515
0.00130435 	-6.62912e-06 	-0.000160295 	0.19515
0.00135452 	-6.51231e-06 	-0.000172364 	0.197453
0.00135452 	-6.51231e-06 	-0.000172364 	0.197453
0.00140468 	-6.38549e-06 	-0.000184594 	0.199646
0.00145485 	-6.25092e-06 	-0.000196934 	0.201754
0.00145485 	-6.25092e-06 	-0.000196934 	0.201754
0.00150502 	-6.10921e-06 	-0.000209365 	0.203786
0.00150502 	-6.10921e-06 	-0.000209365 	0.203786
0.00155518 	-5.95724e-06 	-0.000221885 	0.20571
0.00155518 	-5.95724e-06 	-0.000221885 	0.20571
0.00160535 	-5.79952e-06 	-0.000234426 	0.207573
0.00160535 	-5.79952e-06 	-0.000234426 	0.207573
0.00165552 	-5.63677e-06 	-0.000246972 	0.209383
0.00165552 	-5.63677e-06 	-0.000246972 	0.209383
0.00170569 	-5.46748e-06 	-0.00025949 	0.211122
0.00170569 	-5.46748e-06 	-0.00025949 	0.211122
0.00175585 	-5.29331e-06 	-0.000271933 	0.212806
0.00175585 	-5.29331e-06 	-0.000271933 	0.212806
0.00180602 	-5.11588e-06 	-0.000284307 	0.214451
0.00180602 	-5.11588e-06 	-0.000284307 	0.214451
0.00185619 	-4.93397e-06 	-0.00029655 	0.216043
0.00185619 	-4.93397e-06 	-0.00029655 	0.216043
0.00190635 	-4.74844e-06 	-0.000308626 	0.21759
0.00190635 	-4.74844e-06 	-0.000308626 	0.21759
0.00195652 	-4.56071e-06 	-0.000320584 	0.219108
0.00195652 	-4.56071e-06 	-0.000320584 	0.219108
0.00200669 	-4.36938e-06 	-0.0003323 	0.220578
0.00200669 	-4.36938e-06 	-0.0003323 	0.220578
0.00205686 	-4.17576e-06 	-0.0003438 	0.222015
0.00210702 	-3.98062e-06 	-0.000355158 	0.223431
0.00210702 	-3.98062e-06 	-0.000355158 	0.223431
0.00215719 	-3.78226e-06 	-0.00036611 	0.224798
0.00220736 	-3.58283e-06 	-0.000376885 	0.226147
0.00225753 	-3.38168e-06 	-0.000387375 	0.227466
0.00225753 	-3.38168e-06 	-0.000387375 	0.227466
0.00230769 	-3.17881e-06 	-0.000397494 	0.228754
0.00230769 	-3.17881e-06 	-0.000397494 	0.228754
0.00235786 	-2.97522e-06 	-0.000407451 	0.230027
0.00235786 	-2.97522e-06 	-0.000407451 	0.230027
0.00240803 	-2.76973e-06 	-0.000416881 	0.231261
0.00240803 	-2.76973e-06 	-0.000416881 	0.231261
0.00245819 	-2.56369e-06 	-0.000426115 	0.23248
0.00245819 	-2.56369e-06 	-0.000426115 	0.23248
0.00250836 	-2.35655e-06 	-0.000434956 	0.233672
0.00250836 	-2.35655e-06 	-0.000434956 	0.233672
0.00255853 	-2.1486e-06 	-0.000443432 	0.234841
0.0026087 	-1.94009e-06 	-0.00045165 	0.235994
0.0026087 	-1.94009e-06 	-0.00045165 	0.235994
0.00265886 	-1.73065e-06 	-0.000459343 	0.237114
0.00270903 	-1.52097e-06 	-0.000466911 	0.238228
0.00270903 	-1.52097e-06 	-0.000466911 	0.238228
0.0027592 	-1.31023e-06 	-0.000473804 	0.239302
0.00280936 	-1.09931e-06 	-0.000480586 	0.24037
0.00280936 	-1.09931e-06 	-0.000480586 	0.24037
0.00285953 	-8.87456e-07 	-0.000486786 	0.241406
0.00285953 	-8.87456e-07 	-0.000486786 	0.241406
0.0029097 	-6.75245e-07 	-0.000492787 	0.24243
0.0029097 	-6.75245e-07 	-0.000492787 	0.24243
0.00295987 	-4.62137e-07 	-0.00049829 	0.243427
0.00295987 	-4.62137e-07 	-0.00049829 	0.243427
0.00301003 	-2.48498e-07 	-0.000503535 	0.24441
0.0030602 	-3.39787e-08 	-0.000508356 	0.245369
0.00311037 	1.81194e-07 	-0.000512894 	0.246311
0.00311037 	1.81194e-07 	-0.000512894 	0.246311
0.00316054 	3.97217e-07 	-0.000517063 	0.247231
0.00316054 	3.97217e-07 	-0.000517063 	0.247231
0.00326087 	8.31547e-07 	-0.000524519 	0.249016
0.00326087 	8.31547e-07 	-0.000524519 	0.249016
0.00331104 	1.04998e-06 	-0.000527835 	0.249882
0.0033612 	1.26946e-06 	-0.000530843 	0.250726
0.0033612 	1.26946e-06 	-0.000530843 	0.250726
0.00341137 	1.49006e-06 	-0.000533653 	0.251554
0.00341137 	1.49006e-06 	-0.000533653 	0.251554
0.00346154 	1.71235e-06 	-0.000536163 	0.25236
0.00346154 	1.71235e-06 	-0.000536163 	0.25236
0.00351171 	1.93586e-06 	-0.000538535 	0.253155
0.00356187 	2.16205e-06 	-0.000540605 	0.253924
0.00356187 	2.16205e-06 	-0.000540605 	0.253924
0.00361204 	2.38906e-06 	-0.0005426 	0.254686
0.00366221 	2.61953e-06 	-0.000544282 	0.25542
0.00366221 	2.61953e-06 	-0.000544282 	0.25542
0.00371237 	2.85011e-06 	-0.000545953 	0.256154
0.00371237 	2.85011e-06 	-0.000545953 	0.256154
0.00376254 	3.08418e-06 	-0.00054729 	0.256855
0.00376254 	3.08418e-06 	-0.00054729 	0.256855
0.00381271 	3.31824e-06 	-0.000548626 	0.257557
0.00381271 	3.31824e-06 	-0.000548626 	0.257557
0.00386288 	3.55432e-06 	-0.000549706 	0.258232
0.00391304 	3.79081e-06 	-0.000550734 	0.258901
0.00391304 	3.79081e-06 	-0.000550734 	0.258901
0.00396321 	4.02813e-06 	-0.0005516 	0.259552
0.00401338 	4.26602e-06 	-0.000552353 	0.260189
0.00401338 	4.26602e-06 	-0.000552353 	0.260189
0.00406355 	4.50411e-06 	-0.000553032 	0.260816
0.00406355 	4.50411e-06 	-0.000553032 	0.260816
0.00411371 	4.74262e-06 	-0.000553546 	0.261422
0.00411371 	4.74262e-06 	-0.000553546 	0.261422
0.00421405 	5.21952e-06 	-0.00055437 	0.2626
0.00421405 	5.21952e-06 	-0.00055437 	0.2626
0.00426421 	5.45789e-06 	-0.00055468 	0.263173
0.00426421 	5.45789e-06 	-0.00055468 	0.263173
0.00431438 	5.69563e-06 	-0.000554883 	0.263726
0.00431438 	5.69563e-06 	-0.000554883 	0.263726
0.00436455 	5.93301e-06 	-0.000555023 	0.264267
0.00436455 	5.93301e-06 	-0.000555023 	0.264267
0.00441472 	6.16994e-06 	-0.000555134 	0.2648
0.00441472 	6.16994e-06 	-0.000555134 	0.2648
0.00446488 	6.40538e-06 	-0.000555141 	0.265309
0.00446488 	6.40538e-06 	-0.000555141 	0.265309
0.00451505 	6.64081e-06 	-0.000555148 	0.265818
0.00451505 	6.64081e-06 	-0.000555148 	0.265818
0.00456522 	6.87391e-06 	-0.000555079 	0.266301
0.00456522 	6.87391e-06 	-0.000555079 	0.266301
0.00461538 	7.10635e-06 	-0.000554988 	0.266777
0.00461538 	7.10635e-06 	-0.000554988 	0.266777
0.00466555 	7.33759e-06 	-0.000554878 	0.267244
0.00471572 	7.56592e-06 	-0.000554722 	0.267688
0.00476589 	7.79424e-06 	-0.000554566 	0.268132
0.00476589 	7.79424e-06 	-0.000554566 	0.268132
0.00486622 	8.24167e-06 	-0.000554194 	0.268963
0.00486622 	8.24167e-06 	-0.000554194 	0.268963
0.00491639 	8.46363e-06 	-0.000554003 	0.269368
0.00496656 	8.68036e-06 	-0.000553806 	0.269748
0.00496656 	8.68036e-06 	-0.000553806 	0.269748
0.00501672 	8.89709e-06 	-0.000553609 	0.270127
0.00506689 	9.10974e-06 	-0.000553422 	0.270488
0.00511706 	9.31902e-06 	-0.000553242 	0.270836
0.00511706 	9.31902e-06 	-0.000553242 	0.270836
0.00521739 	9.73014e-06 	-0.000552913 	0.271502
0.00521739 	9.73014e-06 	-0.000552913 	0.271502
0.00526756 	9.9309e-06 	-0.000552769 	0.271817
0.00526756 	9.9309e-06 	-0.000552769 	0.271817
0.00531773 	1.01302e-05 	-0.000552632 	0.272127
0.00536789 	1.03215e-05 	-0.000552536 	0.272411
0.00536789 	1.03215e-05 	-0.000552536 	0.272411
0.00541806 	1.05127e-05 	-0.000552439 	0.272695
0.00546823 	1.07e-05 	-0.000552365 	0.272967
0.00551839 	1.08808e-05 	-0.000552325 	0.273219
0.00551839 	1.08808e-05 	-0.000552325 	0.273219
0.00556856 	1.10617e-05 	-0.000552284 	0.273472
0.00556856 	1.10617e-05 	-0.000552284 	0.273472
0.0056689 	1.14059e-05 	-0.000552294 	0.273929
0.0056689 	1.14059e-05 	-0.000552294 	0.273929
0.00571906 	1.15755e-05 	-0.000552311 	0.274151
0.00576923 	1.17366e-05 	-0.000552365 	0.274353
0.00576923 	1.17366e-05 	-0.000552365 	0.274353
0.0058194 	1.18938e-05 	-0.000552435 	0.274545
0.0058194 	1.18938e-05 	-0.000552435 	0.274545
0.00591973 	1.21978e-05 	-0.000552608 	0.274908
0.00591973 	1.21978e-05 	-0.000552608 	0.274908
0.0059699 	1.23414e-05 	-0.000552721 	0.275072
0.0059699 	1.23414e-05 	-0.000552721 	0.275072
0.00602007 	1.24849e-05 	-0.000552834 	0.275236
0.00607023 	1.26164e-05 	-0.000552968 	0.275377
0.0061204 	1.27446e-05 	-0.000553108 	0.275513
0.0061204 	1.27446e-05 	-0.000553108 	0.275513
0.00617057 	1.28729e-05 	-0.000553249 	0.275649
0.00622074 	1.29882e-05 	-0.000553397 	0.275765
0.00622074 	1.29882e-05 	-0.000553397 	0.275765
0.0062709 	1.30995e-05 	-0.000553547 	0.275874
0.00632107 	1.32108e-05 	-0.000553697 	0.275983
0.00632107 	1.32108e-05 	-0.000553697 	0.275983
0.00637124 	1.33092e-05 	-0.000553843 	0.276075
0.00637124 	1.33092e-05 	-0.000553843 	0.276075
0.0064214 	1.34017e-05 	-0.000553986 	0.276158
0.0064214 	1.34017e-05 	-0.000553986 	0.276158
0.00647157 	1.34942e-05 	-0.000554129 	0.276241
0.00647157 	1.34942e-05 	-0.000554129 	0.276241
0.00652174 	1.35753e-05 	-0.000554249 	0.276311
0.00657191 	1.36468e-05 	-0.000554351 	0.276369
0.00657191 	1.36468e-05 	-0.000554351 	0.276369
0.00662207 	1.37184e-05 	-0.000554453 	0.276427
0.00667224 	1.37817e-05 	-0.000554539 	0.276476
0.00672241 	1.38298e-05 	-0.000554597 	0.276509
0.00672241 	1.38298e-05 	-0.000554597 	0.276509
0.00677258 	1.38779e-05 	-0.000554655 	0.276542
0.00682274 	1.39234e-05 	-0.000554709 	0.276573
0.00682274 	1.39234e-05 	-0.000554709 	0.276573
0.00687291 	1.39452e-05 	-0.000554728 	0.276582
0.00687291 	1.39452e-05 	-0.000554728 	0.276582
0.00692308 	1.3967e-05 	-0.000554747 	0.276591
0.00697324 	1.39887e-05 	-0.000554767 	0.2766
0.00702341 	1.39872e-05 	-0.000554726 	0.27659
0.00707358 	1.39795e-05 	-0.00055467 	0.276574
0.00707358 	1.39795e-05 	-0.00055467 	0.276574
0.00717391 	1.39496e-05 	-0.000554541 	0.276534
0.00717391 	1.39496e-05 	-0.000554541 	0.276534
0.00722408 	1.39077e-05 	-0.000554445 	0.276495
0.00722408 	1.39077e-05 	-0.000554445 	0.276495
0.00727425 	1.38657e-05 	-0.000554349 	0.276455
0.00727425 	1.38657e-05 	-0.000554349 	0.276455
0.00732441 	1.38238e-05 	-0.000554253 	0.276416
0.00732441 	1.38238e-05 	-0.000554253 	0.276416
0.00737458 	1.37435e-05 	-0.000554081 	0.276354
0.00737458 	1.37435e-05 	-0.000554081 	0.276354
0.00742475 	1.36629e-05 	-0.000553908 	0.276291
0.00747492 	1.35823e-05 	-0.000553736 	0.276228
0.00752508 	1.3482e-05 	-0.000553495 	0.276153
0.00752508 	1.3482e-05 	-0.000553495 	0.276153
0.00757525 	1.33619e-05 	-0.000553187 	0.276066
0.00762542 	1.32419e-05 	-0.000552878 	0.27598
0.00767559 	1.31215e-05 	-0.000552569 	0.275893
0.00767559 	1.31215e-05 	-0.000552569 	0.275893
0.00772575 	1.29637e-05 	-0.000552164 	0.275782
0.00777592 	1.28058e-05 	-0.000551759 	0.275671
0.00777592 	1.28058e-05 	-0.000551759 	0.275671
0.00782609 	1.2648e-05 	-0.000551354 	0.275561
0.00787625 	1.24718e-05 	-0.00055087 	0.275437
0.00787625 	1.24718e-05 	-0.00055087 	0.275437
0.00792642 	1.22822e-05 	-0.000550327 	0.275303
0.00797659 	1.20926e-05 	-0.000549784 	0.275169
0.00802676 	1.18977e-05 	-0.000549214 	0.275031
0.00802676 	1.18977e-05 	-0.000549214 	0.275031
0.00807692 	1.16826e-05 	-0.000548543 	0.274874
0.00807692 	1.16826e-05 	-0.000548543 	0.274874
0.00812709 	1.14675e-05 	-0.000547872 	0.274717
0.00817726 	1.12524e-05 	-0.000547201 	0.274561
0.00817726 	1.12524e-05 	-0.000547201 	0.274561
0.00822742 	1.10178e-05 	-0.000546454 	0.274384
0.00827759 	1.0781e-05 	-0.000545699 	0.274204
0.00827759 	1.0781e-05 	-0.000545699 	0.274204
0.00832776 	1.05442e-05 	-0.000544943 	0.274025
0.00832776 	1.05442e-05 	-0.000544943 	0.274025
0.00837793 	1.02957e-05 	-0.00054412 	0.273831
0.00842809 	1.00409e-05 	-0.000543261 	0.273629
0.00842809 	1.00409e-05 	-0.000543261 	0.273629
0.00847826 	9.78601e-06 	-0.000542402 	0.273428
0.00847826 	9.78601e-06 	-0.000542402 	0.273428
0.0085786 	9.2548e-06 	-0.000540535 	0.272991
0.0085786 	9.2548e-06 	-0.000540535 	0.272991
0.00862876 	8.98517e-06 	-0.000539575 	0.272767
0.00867893 	8.7118e-06 	-0.000538583 	0.272536
0.0087291 	8.43037e-06 	-0.000537523 	0.272289
0.00877926 	8.14895e-06 	-0.000536464 	0.272043
0.00882943 	7.86537e-06 	-0.000535381 	0.271791
0.0088796 	7.5748e-06 	-0.000534225 	0.271522
0.0088796 	7.5748e-06 	-0.000534225 	0.271522
0.00892977 	7.28423e-06 	-0.000533068 	0.271253
0.00892977 	7.28423e-06 	-0.000533068 	0.271253
0.00897993 	6.99226e-06 	-0.000531891 	0.270979
0.00897993 	6.99226e-06 	-0.000531891 	0.270979
0.0090301 	6.6949e-06 	-0.000530638 	0.270687
0.00908027 	6.39755e-06 	-0.000529385 	0.270396
0.00908027 	6.39755e-06 	-0.000529385 	0.270396
0.00913043 	6.0991e-06 	-0.000528109 	0.270099
0.0091806 	5.79704e-06 	-0.00052676 	0.269785
0.0091806 	5.79704e-06 	-0.00052676 	0.269785
0.00923077 	5.49499e-06 	-0.000525411 	0.26947
0.00928094 	5.19204e-06 	-0.000524033 	0.269149
0.00928094 	5.19204e-06 	-0.000524033 	0.269149
0.0093311 	4.8871e-06 	-0.000522587 	0.268812
0.00938127 	4.58217e-06 	-0.000521142 	0.268474
0.00938127 	4.58217e-06 	-0.000521142 	0.268474
0.00943144 	4.27667e-06 	-0.000519654 	0.268127
0.00943144 	4.27667e-06 	-0.000519654 	0.268127
0.00948161 	3.97046e-06 	-0.000518111 	0.267767
0.00948161 	3.97046e-06 	-0.000518111 	0.267767
0.00953177 	3.66425e-06 	-0.000516568 	0.267406
0.00953177 	3.66425e-06 	-0.000516568 	0.267406
0.00958194 	3.35813e-06 	-0.000514964 	0.267031
0.00958194 	3.35813e-06 	-0.000514964 	0.267031
0.00963211 	3.05206e-06 	-0.000513322 	0.266648
0.00968227 	2.74599e-06 	-0.000511679 	0.266264
0.00968227 	2.74599e-06 	-0.000511679 	0.266264
0.00973244 	2.44111e-06 	-0.00050995 	0.26586
0.00978261 	2.13643e-06 	-0.000508205 	0.265452
0.00978261 	2.13643e-06 	-0.000508205 	0.265452
0.00983278 	1.83207e-06 	-0.000506447 	0.265041
0.00983278 	1.83207e-06 	-0.000506447 	0.265041
0.00988294 	1.5299e-06 	-0.000504596 	0.264609
0.00993311 	1.22772e-06 	-0.000502745 	0.264177
0.00993311 	1.22772e-06 	-0.000502745 	0.264177
0.00998328 	9.27104e-07 	-0.000500844 	0.263733
0.0100334 	6.28391e-07 	-0.000498882 	0.263276
0.0100836 	3.29678e-07 	-0.00049692 	0.262819
0.0100836 	3.29678e-07 	-0.00049692 	0.262819
0.0101338 	3.45363e-08 	-0.000494863 	0.262341
0.0101839 	-2.59843e-07 	-0.000492784 	0.261859
0.0101839 	-2.59843e-07 	-0.000492784 	0.261859
0.0102341 	-5.52976e-07 	-0.000490676 	0.26137
0.0102341 	-5.52976e-07 	-0.000490676 	0.26137
0.0102843 	-8.42237e-07 	-0.000488475 	0.260861
0.0103344 	-1.1315e-06 	-0.000486274 	0.260353
0.0103344 	-1.1315e-06 	-0.000486274 	0.260353
0.0103846 	-1.41663e-06 	-0.00048398 	0.259825
0.0103846 	-1.41663e-06 	-0.00048398 	0.259825
0.0104348 	-1.70006e-06 	-0.000481649 	0.25929
0.0104348 	-1.70006e-06 	-0.000481649 	0.25929
0.0104849 	-1.98208e-06 	-0.000479287 	0.258748
0.0104849 	-1.98208e-06 	-0.000479287 	0.258748
0.0105351 	-2.25903e-06 	-0.000476817 	0.258185
0.0105853 	-2.53599e-06 	-0.000474347 	0.257622
0.0105853 	-2.53599e-06 	-0.000474347 	0.257622
0.0106856 	-3.07737e-06 	-0.000469146 	0.256445
0.0106856 	-3.07737e-06 	-0.000469146 	0.256445
0.0107358 	-3.34446e-06 	-0.000466472 	0.255843
0.010786 	-3.60674e-06 	-0.000463698 	0.255221
0.010786 	-3.60674e-06 	-0.000463698 	0.255221
0.0108361 	-3.86896e-06 	-0.000460923 	0.2546
0.0108863 	-4.12312e-06 	-0.000457984 	0.253948
0.0108863 	-4.12312e-06 	-0.000457984 	0.253948
0.0109365 	-4.37729e-06 	-0.000455044 	0.253295
0.0109365 	-4.37729e-06 	-0.000455044 	0.253295
0.0109866 	-4.62554e-06 	-0.000451985 	0.252621
0.0110368 	-4.87109e-06 	-0.000448871 	0.251937
0.0110368 	-4.87109e-06 	-0.000448871 	0.251937
0.011087 	-5.11293e-06 	-0.000445681 	0.251239
0.011087 	-5.11293e-06 	-0.000445681 	0.251239
0.0111371 	-5.34937e-06 	-0.000442382 	0.250522
0.0111873 	-5.58418e-06 	-0.000439049 	0.249798
0.0111873 	-5.58418e-06 	-0.000439049 	0.249798
0.0112375 	-5.81097e-06 	-0.000435552 	0.249046
0.0112876 	-6.03776e-06 	-0.000432054 	0.248293
0.0112876 	-6.03776e-06 	-0.000432054 	0.248293
0.0113378 	-6.25462e-06 	-0.000428348 	0.247505
0.0113378 	-6.25462e-06 	-0.000428348 	0.247505
0.011388 	-6.47116e-06 	-0.000424635 	0.246716
0.0114381 	-6.67898e-06 	-0.000420728 	0.245896
0.0114381 	-6.67898e-06 	-0.000420728 	0.245896
0.0114883 	-6.88475e-06 	-0.000416775 	0.245068
0.0115385 	-7.08267e-06 	-0.00041263 	0.24421
0.0115385 	-7.08267e-06 	-0.00041263 	0.24421
0.0115886 	-7.27702e-06 	-0.000408398 	0.243339
0.0116388 	-7.46403e-06 	-0.00040397 	0.242439
0.0116388 	-7.46403e-06 	-0.00040397 	0.242439
0.011689 	-7.6462e-06 	-0.000399412 	0.24152
0.0117391 	-7.82139e-06 	-0.000394645 	0.240573
0.0117893 	-7.99096e-06 	-0.000389709 	0.239602
0.0118395 	-8.15376e-06 	-0.000384543 	0.2386
0.0118395 	-8.15376e-06 	-0.000384543 	0.2386
0.0118896 	-8.31084e-06 	-0.000379182 	0.237571
0.0119398 	-8.46103e-06 	-0.000373562 	0.236508
0.0119398 	-8.46103e-06 	-0.000373562 	0.236508
0.01199 	-8.60592e-06 	-0.000367744 	0.235417
0.0120401 	-8.74328e-06 	-0.000361631 	0.234284
0.0120401 	-8.74328e-06 	-0.000361631 	0.234284
0.0120903 	-8.87609e-06 	-0.00035534 	0.233126
0.0120903 	-8.87609e-06 	-0.00035534 	0.233126
0.0121906 	-9.12072e-06 	-0.000341934 	0.230687
0.0121906 	-9.12072e-06 	-0.000341934 	0.230687
0.0122408 	-9.23069e-06 	-0.000334756 	0.229392
0.012291 	-9.33866e-06 	-0.000327502 	0.228086
0.012291 	-9.33866e-06 	-0.000327502 	0.228086
0.0123411 	-9.43365e-06 	-0.000319766 	0.226699
0.0123913 	-9.52606e-06 	-0.000311939 	0.225294
0.0123913 	-9.52606e-06 	-0.000311939 	0.225294
0.0124415 	-9.60765e-06 	-0.000303727 	0.223821
0.0124415 	-9.60765e-06 	-0.000303727 	0.223821
0.0124916 	-9.68351e-06 	-0.000295324 	0.222309
0.0124916 	-9.68351e-06 	-0.000295324 	0.222309
0.0125418 	-9.75131e-06 	-0.000286651 	0.220744
0.012592 	-9.80958e-06 	-0.000277685 	0.219114
0.0126421 	-9.86315e-06 	-0.000268574 	0.217452
0.0126421 	-9.86315e-06 	-0.000268574 	0.217452
0.0126923 	-9.90274e-06 	-0.000259079 	0.215694
0.0127425 	-9.93757e-06 	-0.00024947 	0.213902
0.0127425 	-9.93757e-06 	-0.00024947 	0.213902
0.0127926 	-9.96138e-06 	-0.000239601 	0.212033
0.0128428 	-9.97558e-06 	-0.00022955 	0.210095
0.0128428 	-9.97558e-06 	-0.00022955 	0.210095
0.0129431 	-9.97602e-06 	-0.000208994 	0.206017
0.0129431 	-9.97602e-06 	-0.000208994 	0.206017
0.0129933 	-9.96155e-06 	-0.000198544 	0.20387
0.0130435 	-9.93696e-06 	-0.000188003 	0.201649
0.0130435 	-9.93696e-06 	-0.000188003 	0.201649
0.0131438 	-9.8513e-06 	-0.000166812 	0.196933
0.0131438 	-9.8513e-06 	-0.000166812 	0.196933
0.013194 	-9.79167e-06 	-0.000156231 	0.194447
0.0132441 	-9.71789e-06 	-0.000145737 	0.191851
0.0132441 	-9.71789e-06 	-0.000145737 	0.191851
0.0132943 	-9.63452e-06 	-0.000135324 	0.18918
0.0133445 	-9.53749e-06 	-0.000125054 	0.186399
0.0133445 	-9.53749e-06 	-0.000125054 	0.186399
0.0133946 	-9.42441e-06 	-0.000115014 	0.183486
0.0133946 	-9.42441e-06 	-0.000115014 	0.183486
0.0134448 	-9.30004e-06 	-0.000105161 	0.180479
0.0134448 	-9.30004e-06 	-0.000105161 	0.180479
0.013495 	-9.16324e-06 	-9.55277e-05 	0.177367
0.0135452 	-9.00609e-06 	-8.63083e-05 	0.174077
0.0135452 	-9.00609e-06 	-8.63083e-05 	0.174077
0.0135953 	-8.83561e-06 	-7.73879e-05 	0.170666
0.0135953 	-8.83561e-06 	-7.73879e-05 	0.170666
0.0136455 	-8.65107e-06 	-6.87928e-05 	0.167126
0.0136455 	-8.65107e-06 	-6.87928e-05 	0.167126
0.0136957 	-8.44916e-06 	-6.06192e-05 	0.16342
0.0136957 	-8.44916e-06 	-6.06192e-05 	0.16342
0.0137458 	-8.22676e-06 	-5.29761e-05 	0.159505
0.013796 	-7.98856e-06 	-4.57688e-05 	0.155418
0.013796 	-7.98856e-06 	-4.57688e-05 	0.155418
0.0138462 	-7.73409e-06 	-3.90275e-05 	0.151145
0.0138462 	-7.73409e-06 	-3.90275e-05 	0.151145
0.0138963 	-7.46294e-06 	-3.27828e-05 	0.14667
0.0139465 	-7.1697e-06 	-2.72222e-05 	0.141906
0.0139465 	-7.1697e-06 	-2.72222e-05 	0.141906
0.0139967 	-6.85944e-06 	-2.22073e-05 	0.136895
0.0139967 	-6.85944e-06 	-2.22073e-05 	0.136895
0.0140468 	-6.53264e-06 	-1.7738e-05 	0.131623
0.0140468 	-6.53264e-06 	-1.7738e-05 	0.131623
0.014097 	-6.1894e-06 	-1.38232e-05 	0.126068
0.0141472 	-5.82994e-06 	-1.04641e-05 	0.120209
0.0141472 	-5.82994e-06 	-1.04641e-05 	0.120209
0.0141973 	-5.45446e-06 	-7.6474e-06 	0.114018
0.0142475 	-5.06132e-06 	-5.41686e-06 	0.107396
0.0142977 	-4.65564e-06 	-3.6439e-06 	0.100359
0.0142977 	-4.65564e-06 	-3.6439e-06 	0.100359
0.0143478 	-4.24308e-06 	-2.28525e-06 	0.0928948
0.014398 	-3.83153e-06 	-1.30245e-06 	0.085023
0.014398 	-3.83153e-06 	-1.30245e-06 	0.085023
0.0144482 	-3.4299e-06 	-6.46337e-07 	0.0768013
0.0144983 	-3.04684e-06 	-2.55797e-07 	0.0683341
0.0144983 	-3.04684e-06 	-2.55797e-07 	0.0683341
0.0145485 	-2.68922e-06 	-6.22157e-08 	0.0597723
0.0145485 	-2.68922e-06 	-6.22157e-08 	0.0597723
0.0145987 	-2.36025e-06 	3.8308e-09 	0.0512973
0.0146488 	-2.05812e-06 	3.98424e-09 	0.0430917
0.014699 	-1.77589e-06 	-1.57281e-08 	0.0353047
0.014699 	-1.77589e-06 	-1.57281e-08 	0.0353047
0.0147492 	-1.50171e-06 	-2.78984e-08 	0.0280324
0.0147993 	-1.2164e-06 	-2.32688e-08 	0.0213193
0.0147993 	-1.2164e-06 	-2.32688e-08 	0.0213193
0.0148495 	-8.83088e-07 	-2.83639e-09 	0.015175
0.0148495 	-8.83088e-07 	-2.83639e-09 	0.015175
0.0148997 	-4.81039e-07 	1.35026e-08 	0.00959013
0.0148997 	-4.81039e-07 	1.35026e-08 	0.00959013
0.0149498 	-1.20036e-07 	1.63648e-08 	0.00454622
0.0149498 	-1.20036e-07 	1.63648e-08 	0.00454622
0.015 	0 	0 	0
0.015 	0 	0 	0
