-0.0075 	0 	0 	0
-0.0075 	1.83492e-35 	-2.4644e-36 	1.86257e-31
-0.00745622 	1.50727e-06 	-2.02435e-07 	0.0152999
-0.00745622 	1.50727e-06 	-2.02435e-07 	0.0152999
-0.00741165 	2.72058e-06 	-7.01861e-07 	0.0297617
-0.00741165 	2.72058e-06 	-7.01861e-07 	0.0297617
-0.00736628 	3.85699e-06 	-1.5727e-06 	0.043487
-0.00736628 	3.85699e-06 	-1.5727e-06 	0.043487
-0.0073201 	5.01811e-06 	-2.83081e-06 	0.056506
-0.0073201 	5.01811e-06 	-2.83081e-06 	0.056506
-0.00727309 	6.18529e-06 	-4.50256e-06 	0.068847
-0.00727309 	6.18529e-06 	-4.50256e-06 	0.068847
-0.00722524 	7.33016e-06 	-6.59517e-06 	0.0805371
-0.00722524 	7.33016e-06 	-6.59517e-06 	0.0805371
-0.00717653 	8.43976e-06 	-9.12188e-06 	0.0915939
-0.00717653 	8.43976e-06 	-9.12188e-06 	0.0915939
-0.00712695 	9.50337e-06 	-1.2101e-05 	0.102014
-0.00712695 	9.50337e-06 	-1.2101e-05 	0.102014
-0.00707647 	1.05108e-05 	-1.55661e-05 	0.111776
-0.00707647 	1.05108e-05 	-1.55661e-05 	0.111776
-0.0070251 	1.14542e-05 	-1.95727e-05 	0.120857
-0.0070251 	1.14542e-05 	-1.95727e-05 	0.120857
-0.0069728 	1.23304e-05 	-2.41923e-05 	0.12925
-0.0069728 	1.23304e-05 	-2.41923e-05 	0.12925
-0.00691956 	1.31402e-05 	-2.94989e-05 	0.136974
-0.00691956 	1.31402e-05 	-2.94989e-05 	0.136974
-0.00686537 	1.38878e-05 	-3.55581e-05 	0.144064
-0.00686537 	1.38878e-05 	-3.55581e-05 	0.144064
-0.00681021 	1.45793e-05 	-4.24291e-05 	0.150574
-0.00681021 	1.45793e-05 	-4.24291e-05 	0.150574
-0.00675406 	1.52213e-05 	-5.01766e-05 	0.156561
-0.00675406 	1.52213e-05 	-5.01766e-05 	0.156561
-0.0066969 	1.58196e-05 	-5.88621e-05 	0.162079
-0.0066969 	1.58196e-05 	-5.88621e-05 	0.162079
-0.00663871 	1.63793e-05 	-6.85299e-05 	0.167177
-0.00663871 	1.63793e-05 	-6.85299e-05 	0.167177
-0.00657949 	1.69046e-05 	-7.91886e-05 	0.171894
-0.00657949 	1.69046e-05 	-7.91886e-05 	0.171894
-0.0065192 	1.73999e-05 	-9.08084e-05 	0.176275
-0.0065192 	1.73999e-05 	-9.08084e-05 	0.176275
-0.00645783 	1.78695e-05 	-0.000103342 	0.180361
-0.00645783 	1.78695e-05 	-0.000103342 	0.180361
-0.00639535 	1.83171e-05 	-0.000116737 	0.184189
-0.00639535 	1.83171e-05 	-0.000116737 	0.184189
-0.00633176 	1.87456e-05 	-0.000130945 	0.18779
-0.00633176 	1.87456e-05 	-0.000130945 	0.18779
-0.00626703 	1.91572e-05 	-0.000145911 	0.191192
-0.00626703 	1.91572e-05 	-0.000145911 	0.191192
-0.00620114 	1.95541e-05 	-0.000161578 	0.194418
-0.00620114 	1.95541e-05 	-0.000161578 	0.194418
-0.00613406 	1.99383e-05 	-0.000177887 	0.197488
-0.00613406 	1.99383e-05 	-0.000177887 	0.197488
-0.00606579 	2.03116e-05 	-0.000194777 	0.20042
-0.00606579 	2.03116e-05 	-0.000194777 	0.20042
-0.00599629 	2.06759e-05 	-0.000212183 	0.203231
-0.00599629 	2.06759e-05 	-0.000212183 	0.203231
-0.00592554 	2.10333e-05 	-0.000230037 	0.205935
-0.00592554 	2.10333e-05 	-0.000230037 	0.205935
-0.00585352 	2.13855e-05 	-0.000248267 	0.208549
-0.00585352 	2.13855e-05 	-0.000248267 	0.208549
-0.00578022 	2.17342e-05 	-0.000266785 	0.211084
-0.00578022 	2.17342e-05 	-0.000266785 	0.211084
-0.00570559 	2.20805e-05 	-0.000285492 	0.213551
-0.00570559 	2.20805e-05 	-0.000285492 	0.213551
-0.00562963 	2.24257e-05 	-0.000304286 	0.215957
-0.00562963 	2.24257e-05 	-0.000304286 	0.215957
-0.00555231 	2.27711e-05 	-0.000323066 	0.218311
-0.00555231 	2.27711e-05 	-0.000323066 	0.218311
-0.0054736 	2.31177e-05 	-0.000341729 	0.220617
-0.0054736 	2.31177e-05 	-0.000341729 	0.220617
-0.00539348 	2.34668e-05 	-0.000360169 	0.22288
-0.00539348 	2.34668e-05 	-0.000360169 	0.22288
-0.00531193 	2.38193e-05 	-0.000378281 	0.225105
-0.00531193 	2.38193e-05 	-0.000378281 	0.225105
-0.00522891 	2.41763e-05 	-0.000395961 	0.227293
-0.00522891 	2.41763e-05 	-0.000395961 	0.227293
-0.0051444 	2.45388e-05 	-0.000413104 	0.229448
-0.0051444 	2.45388e-05 	-0.000413104 	0.229448
-0.00505838 	2.49074e-05 	-0.000429612 	0.23157
-0.00505838 	2.49074e-05 	-0.000429612 	0.23157
-0.00497081 	2.52831e-05 	-0.00044539 	0.233661
-0.00497081 	2.52831e-05 	-0.00044539 	0.233661
-0.00488168 	2.56665e-05 	-0.000460347 	0.235719
-0.00488168 	2.56665e-05 	-0.000460347 	0.235719
-0.00479094 	2.60583e-05 	-0.000474398 	0.237746
-0.00479094 	2.60583e-05 	-0.000474398 	0.237746
-0.00469858 	2.64592e-05 	-0.000487462 	0.239738
-0.00469858 	2.64592e-05 	-0.000487462 	0.239738
-0.00460456 	2.68699e-05 	-0.000499464 	0.241695
-0.00460456 	2.68699e-05 	-0.000499464 	0.241695
-0.00450886 	2.72913e-05 	-0.000510343 	0.243616
-0.00450886 	2.72913e-05 	-0.000510343 	0.243616
-0.00441144 	2.77241e-05 	-0.000520069 	0.245498
-0.00441144 	2.77241e-05 	-0.000520069 	0.245498
-0.00431227 	2.8169e-05 	-0.000528643 	0.24734
-0.00431227 	2.8169e-05 	-0.000528643 	0.24734
-0.00421133 	2.86264e-05 	-0.000536101 	0.249139
-0.00421133 	2.86264e-05 	-0.000536101 	0.249139
-0.00410857 	2.90968e-05 	-0.0005425 	0.250894
-0.00410857 	2.90968e-05 	-0.0005425 	0.250894
-0.00400397 	2.9581e-05 	-0.000547919 	0.252602
-0.00400397 	2.9581e-05 	-0.000547919 	0.252602
-0.0038975 	3.00807e-05 	-0.000552453 	0.25426
-0.0038975 	3.00807e-05 	-0.000552453 	0.25426
-0.00378912 	3.05975e-05 	-0.000556195 	0.255872
-0.00378912 	3.05975e-05 	-0.000556195 	0.255872
-0.00367879 	3.11318e-05 	-0.000559223 	0.25744
-0.00367879 	3.11318e-05 	-0.000559223 	0.25744
-0.00356649 	3.16826e-05 	-0.000561602 	0.258964
-0.00356649 	3.16826e-05 	-0.000561602 	0.258964
-0.00345217 	3.22484e-05 	-0.000563391 	0.260442
-0.00345217 	3.22484e-05 	-0.000563391 	0.260442
-0.0033358 	3.2828e-05 	-0.000564651 	0.261872
-0.0033358 	3.2828e-05 	-0.000564651 	0.261872
-0.00321735 	3.34198e-05 	-0.000565453 	0.263251
-0.00321735 	3.34198e-05 	-0.000565453 	0.263251
-0.00309677 	3.4022e-05 	-0.00056587 	0.264577
-0.00309677 	3.4022e-05 	-0.00056587 	0.264577
-0.00297403 	3.46326e-05 	-0.000565984 	0.265846
-0.00297403 	3.46326e-05 	-0.000565984 	0.265846
-0.00284909 	3.5249e-05 	-0.000565876 	0.267056
-0.00284909 	3.5249e-05 	-0.000565876 	0.267056
-0.0027219 	3.58682e-05 	-0.000565632 	0.268205
-0.0027219 	3.58682e-05 	-0.000565632 	0.268205
-0.00259244 	3.6487e-05 	-0.000565333 	0.269289
-0.00259244 	3.6487e-05 	-0.000565333 	0.269289
-0.00246065 	3.71021e-05 	-0.000565057 	0.270306
-0.00246065 	3.71021e-05 	-0.000565057 	0.270306
-0.00232651 	3.771e-05 	-0.000564874 	0.271253
-0.00232651 	3.771e-05 	-0.000564874 	0.271253
-0.00218995 	3.83066e-05 	-0.000564841 	0.272129
-0.00218995 	3.83066e-05 	-0.000564841 	0.272129
-0.00205095 	3.88878e-05 	-0.000565001 	0.272931
-0.00205095 	3.88878e-05 	-0.000565001 	0.272931
-0.00190946 	3.94493e-05 	-0.000565382 	0.273658
-0.00190946 	3.94493e-05 	-0.000565382 	0.273658
-0.00176543 	3.99867e-05 	-0.000565997 	0.274308
-0.00176543 	3.99867e-05 	-0.000565997 	0.274308
-0.00161881 	4.04947e-05 	-0.000566837 	0.274882
-0.00161881 	4.04947e-05 	-0.000566837 	0.274882
-0.00146957 	4.09673e-05 	-0.000567876 	0.275379
-0.00146957 	4.09673e-05 	-0.000567876 	0.275379
-0.00131765 	4.13983e-05 	-0.000569066 	0.275799
-0.00131765 	4.13983e-05 	-0.000569066 	0.275799
-0.001163 	4.1781e-05 	-0.000570352 	0.276142
-0.001163 	4.1781e-05 	-0.000570352 	0.276142
-0.00100559 	4.21089e-05 	-0.000571669 	0.276409
-0.00100559 	4.21089e-05 	-0.000571669 	0.276409
-0.000845345 	4.2374e-05 	-0.000572924 	0.276599
-0.000845345 	4.2374e-05 	-0.000572924 	0.276599
-0.000682232 	4.25677e-05 	-0.000574073 	0.27671
-0.000682232 	4.25677e-05 	-0.000574073 	0.27671
-0.000516194 	4.26802e-05 	-0.000575085 	0.276742
-0.000516194 	4.26802e-05 	-0.000575085 	0.276742
-0.000347178 	4.27012e-05 	-0.000575851 	0.276692
-0.000347178 	4.27012e-05 	-0.000575851 	0.276692
-0.000175132 	4.26185e-05 	-0.000576391 	0.276558
-0.000175132 	4.26185e-05 	-0.000576391 	0.276558
0 	4.24207e-05 	-0.000576599 	0.276338
0 	4.24207e-05 	-0.000576599 	0.276338
0 	4.24207e-05 	-0.000576599 	0.276338
0 	4.24207e-05 	-0.000576599 	0.276338
0.000175132 	4.21084e-05 	-0.000576341 	0.276033
0.000175132 	4.73384e-05 	-0.000485321 	0.272033
0.000347178 	4.1693e-05 	-0.000575691 	0.27565
0.000347178 	4.87171e-05 	-0.000486915 	0.271728
0.000516194 	4.11914e-05 	-0.000574576 	0.275195
0.000516194 	4.9916e-05 	-0.000487983 	0.271342
0.000682232 	4.06199e-05 	-0.000573015 	0.274671
0.000682232 	5.09518e-05 	-0.000488528 	0.270881
0.000845345 	3.99911e-05 	-0.000571094 	0.274082
0.000845345 	5.18392e-05 	-0.000488772 	0.270348
0.00100559 	3.93167e-05 	-0.000568794 	0.27343
0.00100559 	5.25936e-05 	-0.000488608 	0.269748
0.001163 	3.86075e-05 	-0.000566134 	0.272719
0.001163 	5.32293e-05 	-0.000488036 	0.269084
0.00131765 	3.78731e-05 	-0.000563131 	0.27195
0.00131765 	5.37594e-05 	-0.000487064 	0.268359
0.00146957 	3.71219e-05 	-0.000559804 	0.271126
0.00146957 	5.41956e-05 	-0.000485702 	0.267575
0.00161881 	3.63613e-05 	-0.000556169 	0.270248
0.00161881 	5.45481e-05 	-0.000483958 	0.266735
0.00176543 	3.55977e-05 	-0.000552238 	0.269319
0.00176543 	5.4826e-05 	-0.000481844 	0.265841
0.00190946 	3.48366e-05 	-0.000548023 	0.268341
0.00190946 	5.50373e-05 	-0.000479369 	0.264895
0.00205095 	3.40825e-05 	-0.000543532 	0.267313
0.00205095 	5.51887e-05 	-0.00047654 	0.263898
0.00218995 	3.33394e-05 	-0.000538773 	0.266238
0.00218995 	5.52865e-05 	-0.000473366 	0.262851
0.00232651 	3.26104e-05 	-0.000533752 	0.265116
0.00232651 	5.53358e-05 	-0.00046985 	0.261756
0.00246065 	3.18981e-05 	-0.000528471 	0.263948
0.00246065 	5.53412e-05 	-0.000465996 	0.260614
0.00259244 	3.12048e-05 	-0.000522932 	0.262735
0.00259244 	5.53062e-05 	-0.000461806 	0.259425
0.0027219 	3.05321e-05 	-0.000517134 	0.261477
0.0027219 	5.52339e-05 	-0.000457278 	0.258191
0.00284909 	2.98815e-05 	-0.000511077 	0.260174
0.00284909 	5.51266e-05 	-0.000452408 	0.256911
0.00297403 	2.92541e-05 	-0.000504755 	0.258828
0.00297403 	5.49863e-05 	-0.00044719 	0.255586
0.00309677 	2.86506e-05 	-0.000498163 	0.257436
0.00309677 	5.48145e-05 	-0.000441617 	0.254216
0.00321735 	2.80716e-05 	-0.000491297 	0.256
0.00321735 	5.46123e-05 	-0.000435679 	0.252801
0.0033358 	2.75173e-05 	-0.000484151 	0.254519
0.0033358 	5.43807e-05 	-0.00042937 	0.25134
0.00345217 	5.41203e-05 	-0.00042269 	0.249833
0.00345217 	2.69879e-05 	-0.00047672 	0.252992
0.00356649 	2.64833e-05 	-0.000468998 	0.251418
0.00356649 	5.38324e-05 	-0.000415634 	0.248278
0.00367879 	2.60035e-05 	-0.000460967 	0.249797
0.00367879 	5.35192e-05 	-0.000408188 	0.246678
0.00378912 	2.55485e-05 	-0.000452608 	0.248128
0.00378912 	5.31835e-05 	-0.000400333 	0.245031
0.0038975 	2.5118e-05 	-0.000443887 	0.246407
0.0038975 	5.28261e-05 	-0.000392027 	0.243336
0.00400397 	2.47117e-05 	-0.000434751 	0.244631
0.00400397 	5.24475e-05 	-0.000383194 	0.241582
0.00410857 	5.20473e-05 	-0.000373727 	0.239757
0.00410857 	2.43289e-05 	-0.000425128 	0.242795
0.00421133 	2.39688e-05 	-0.00041494 	0.240891
0.00421133 	5.1624e-05 	-0.000363538 	0.237853
0.00431227 	2.36297e-05 	-0.000404108 	0.238913
0.00431227 	5.11748e-05 	-0.000352569 	0.235863
0.00441144 	2.33094e-05 	-0.000392579 	0.236854
0.00441144 	5.06961e-05 	-0.000340798 	0.233785
0.00450886 	2.30062e-05 	-0.000380336 	0.234709
0.00450886 	5.01847e-05 	-0.000328251 	0.231614
0.00460456 	2.27184e-05 	-0.000367385 	0.232473
0.00460456 	4.96372e-05 	-0.000314968 	0.229347
0.00469858 	2.24447e-05 	-0.000353742 	0.230141
0.00469858 	4.90506e-05 	-0.000300998 	0.22698
0.00479094 	2.21834e-05 	-0.000339432 	0.227708
0.00479094 	4.84219e-05 	-0.000286392 	0.224508
0.00488168 	2.1933e-05 	-0.000324487 	0.225171
0.00488168 	4.7748e-05 	-0.00027121 	0.221928
0.00497081 	2.16917e-05 	-0.000308949 	0.222524
0.00497081 	4.70256e-05 	-0.000255521 	0.219235
0.00505838 	2.14575e-05 	-0.000292875 	0.219764
0.00505838 	4.62518e-05 	-0.000239404 	0.216427
0.0051444 	2.12285e-05 	-0.000276337 	0.216887
0.0051444 	4.54235e-05 	-0.000222955 	0.213499
0.00522891 	2.10026e-05 	-0.000259426 	0.21389
0.00522891 	4.45381e-05 	-0.000206288 	0.210449
0.00531193 	2.07776e-05 	-0.000242245 	0.210769
0.00531193 	4.35932e-05 	-0.000189529 	0.207275
0.00539348 	2.05515e-05 	-0.000224914 	0.207521
0.00539348 	4.2587e-05 	-0.00017282 	0.203974
0.0054736 	2.0322e-05 	-0.000207563 	0.204143
0.0054736 	4.15178e-05 	-0.000156309 	0.200546
0.00555231 	2.00868e-05 	-0.000190326 	0.200632
0.00555231 	4.03844e-05 	-0.000140145 	0.196988
0.00562963 	1.98438e-05 	-0.00017334 	0.196983
0.00562963 	3.91857e-05 	-0.00012447 	0.193298
0.00570559 	1.95905e-05 	-0.000156736 	0.193193
0.00570559 	3.7921e-05 	-0.00010942 	0.189473
0.00578022 	1.93246e-05 	-0.00014064 	0.189257
0.00578022 	3.65899e-05 	-9.51127e-05 	0.18551
0.00585352 	1.90438e-05 	-0.000125165 	0.185169
0.00585352 	3.51921e-05 	-8.16494e-05 	0.181403
0.00592554 	1.87455e-05 	-0.000110413 	0.180923
0.00592554 	3.37276e-05 	-6.91112e-05 	0.177148
0.00599629 	1.84273e-05 	-9.64692e-05 	0.176511
0.00599629 	3.21971e-05 	-5.75577e-05 	0.172737
0.00606579 	1.80868e-05 	-8.34043e-05 	0.171925
0.00606579 	3.06012e-05 	-4.70294e-05 	0.168163
0.00613406 	1.77212e-05 	-7.1278e-05 	0.167151
0.00613406 	2.89406e-05 	-3.75472e-05 	0.163412
0.00620114 	2.7216e-05 	-2.91151e-05 	0.158467
0.00620114 	1.73275e-05 	-6.01354e-05 	0.162174
0.00626703 	1.69023e-05 	-5.0013e-05 	0.156978
0.00626703 	2.54294e-05 	-2.17293e-05 	0.153314
0.00633176 	2.35846e-05 	-1.53739e-05 	0.147938
0.00633176 	1.64425e-05 	-4.09375e-05 	0.151547
0.00639535 	2.16874e-05 	-1.0014e-05 	0.142325
0.00639535 	1.5945e-05 	-3.2915e-05 	0.145867
0.00645783 	1.54067e-05 	-2.59315e-05 	0.139922
0.00645783 	1.9745e-05 	-5.59858e-06 	0.136459
0.0065192 	1.48246e-05 	-1.9958e-05 	0.133696
0.0065192 	1.77671e-05 	-2.06463e-06 	0.130323
0.00657949 	1.41958e-05 	-1.49526e-05 	0.127174
0.00657949 	1.57658e-05 	6.59611e-07 	0.123902
0.00663871 	1.35182e-05 	-1.08602e-05 	0.120338
0.00663871 	1.37562e-05 	2.65261e-06 	0.11718
0.0066969 	1.27892e-05 	-7.59888e-06 	0.113171
0.0066969 	1.17546e-05 	4.00327e-06 	0.110133
0.00675406 	9.77653e-06 	4.80527e-06 	0.102726
0.00675406 	1.20049e-05 	-5.07202e-06 	0.10564
0.00681021 	7.84319e-06 	5.1508e-06 	0.0949409
0.00681021 	1.11615e-05 	-3.17803e-06 	0.0977162
0.00686537 	5.98773e-06 	5.13049e-06 	0.0868011
0.00686537 	1.02592e-05 	-1.82029e-06 	0.0894168
0.00691956 	4.25307e-06 	4.83366e-06 	0.0783783
0.00691956 	9.30477e-06 	-9.13176e-07 	0.0808099
0.0069728 	2.68668e-06 	4.34765e-06 	0.0697914
0.0069728 	8.31195e-06 	-3.63804e-07 	0.0720139
0.0070251 	7.30167e-06 	-7.72795e-08 	0.0631942
0.0070251 	1.3339e-06 	3.75319e-06 	0.0612015
0.00707647 	6.29933e-06 	3.64371e-08 	0.0545431
0.00707647 	2.29516e-07 	3.12036e-06 	0.0527928
0.00712695 	5.33052e-06 	5.38806e-08 	0.0462465
0.00712695 	-6.09108e-07 	2.50381e-06 	0.0447403
0.00717653 	4.41615e-06 	3.14273e-08 	0.038449
0.00717653 	-1.18407e-06 	1.94015e-06 	0.0371788
0.00722524 	3.56975e-06 	3.94616e-09 	0.0312348
0.00722524 	-1.51306e-06 	1.44955e-06 	0.0301863
0.00727309 	-1.6219e-06 	1.03875e-06 	0.0237889
0.00727309 	2.79861e-06 	-1.23544e-08 	0.0246322
0.0073201 	-1.53684e-06 	7.04904e-07 	0.0179781
0.0073201 	2.10885e-06 	-1.44912e-08 	0.0186324
0.00736628 	-1.27763e-06 	4.41896e-07 	0.0127276
0.00736628 	1.51462e-06 	-4.39969e-09 	0.0132076
0.00741165 	1.01352e-06 	3.94512e-09 	0.00832238
0.00741165 	-8.84036e-07 	2.37983e-07 	0.00800334
0.00745622 	5.38638e-07 	7.68612e-09 	0.00393806
0.00745622 	-4.38447e-07 	9.36201e-08 	0.00376768
0.0075 	0 	0 	0
0.0075 	0 	0 	0
