-0.0075 	0 	0 	0
-0.0075 	6.03967e-34 	-4.60884e-36 	-8.00604e-33
-0.00745622 	0.000793794 	-6.0574e-06 	-0.0105223
-0.00745622 	0.000793794 	-6.0574e-06 	-0.0105223
-0.00741165 	0.000896463 	-9.12789e-06 	-0.0209088
-0.00741165 	0.000896463 	-9.12789e-06 	-0.0209088
-0.00736628 	0.000642364 	-1.04779e-05 	-0.0312708
-0.00736628 	0.000642364 	-1.04779e-05 	-0.0312708
-0.0073201 	0.00043784 	-8.92813e-06 	-0.0416147
-0.0073201 	0.00043784 	-8.92813e-06 	-0.0416147
-0.00727309 	0.000349465 	-5.57683e-06 	-0.0519428
-0.00727309 	0.000349465 	-5.57683e-06 	-0.0519428
-0.00722524 	0.000317909 	-1.11468e-06 	-0.0621744
-0.00722524 	0.000317909 	-1.11468e-06 	-0.0621744
-0.00717653 	0.00031461 	4.31438e-06 	-0.0722039
-0.00717653 	0.00031461 	4.31438e-06 	-0.0722039
-0.00712695 	0.000323769 	1.06585e-05 	-0.0819386
-0.00712695 	0.000323769 	1.06585e-05 	-0.0819386
-0.00707647 	0.000336521 	1.80807e-05 	-0.091301
-0.00707647 	0.000336521 	1.80807e-05 	-0.091301
-0.0070251 	0.000349346 	2.66503e-05 	-0.100235
-0.0070251 	0.000349346 	2.66503e-05 	-0.100235
-0.0069728 	0.000361729 	3.59665e-05 	-0.10871
-0.0069728 	0.000361729 	3.59665e-05 	-0.10871
-0.00691956 	0.000373107 	4.56271e-05 	-0.11673
-0.00691956 	0.000373107 	4.56271e-05 	-0.11673
-0.00686537 	0.000381929 	5.56697e-05 	-0.124319
-0.00686537 	0.000381929 	5.56697e-05 	-0.124319
-0.00681021 	0.000385759 	6.6662e-05 	-0.131512
-0.00681021 	0.000385759 	6.6662e-05 	-0.131512
-0.00675406 	0.000382483 	7.91502e-05 	-0.138335
-0.00675406 	0.000382483 	7.91502e-05 	-0.138335
-0.0066969 	0.000371687 	9.30217e-05 	-0.144814
-0.0066969 	0.000371687 	9.30217e-05 	-0.144814
-0.00663871 	0.000353797 	0.000107912 	-0.15097
-0.00663871 	0.000353797 	0.000107912 	-0.15097
-0.00657949 	0.000329258 	0.000123712 	-0.156821
-0.00657949 	0.000329258 	0.000123712 	-0.156821
-0.0065192 	0.000298759 	0.000140508 	-0.162385
-0.0065192 	0.000298759 	0.000140508 	-0.162385
-0.00645783 	0.000263165 	0.000158317 	-0.167679
-0.00645783 	0.000263165 	0.000158317 	-0.167679
-0.00639535 	0.0002234 	0.000177111 	-0.172719
-0.00639535 	0.0002234 	0.000177111 	-0.172719
-0.00633176 	0.000180443 	0.000196838 	-0.177517
-0.00633176 	0.000180443 	0.000196838 	-0.177517
-0.00626703 	0.000135271 	0.000217382 	-0.182088
-0.00626703 	0.000135271 	0.000217382 	-0.182088
-0.00620114 	8.87366e-05 	0.000238679 	-0.186443
-0.00620114 	8.87366e-05 	0.000238679 	-0.186443
-0.00613406 	4.13997e-05 	0.000260782 	-0.190589
-0.00613406 	4.13997e-05 	0.000260782 	-0.190589
-0.00606579 	-6.54602e-06 	0.000283794 	-0.194536
-0.00606579 	-6.54602e-06 	0.000283794 	-0.194536
-0.00599629 	-5.50853e-05 	0.000307697 	-0.19829
-0.00599629 	-5.50853e-05 	0.000307697 	-0.19829
-0.00592554 	-0.000103909 	0.000332455 	-0.201865
-0.00592554 	-0.000103909 	0.000332455 	-0.201865
-0.00585352 	-0.00015186 	0.000358066 	-0.205274
-0.00585352 	-0.00015186 	0.000358066 	-0.205274
-0.00578022 	-0.00019694 	0.000383897 	-0.208529
-0.00578022 	-0.00019694 	0.000383897 	-0.208529
-0.00570559 	-0.000236829 	0.000408334 	-0.211639
-0.00570559 	-0.000236829 	0.000408334 	-0.211639
-0.00562963 	-0.000269119 	0.000430038 	-0.21464
-0.00562963 	-0.000269119 	0.000430038 	-0.21464
-0.00555231 	-0.000291914 	0.000449735 	-0.217609
-0.00555231 	-0.000291914 	0.000449735 	-0.217609
-0.0054736 	-0.000306486 	0.00047093 	-0.220618
-0.0054736 	-0.000306486 	0.00047093 	-0.220618
-0.00539348 	-0.00032119 	0.000498892 	-0.223647
-0.00539348 	-0.00032119 	0.000498892 	-0.223647
-0.00531193 	-0.000348778 	0.000536854 	-0.226559
-0.00531193 	-0.000348778 	0.000536854 	-0.226559
-0.00522891 	-0.000393547 	0.000579065 	-0.229243
-0.00522891 	-0.000393547 	0.000579065 	-0.229243
-0.0051444 	-0.000445711 	0.000617247 	-0.231704
-0.0051444 	-0.000445711 	0.000617247 	-0.231704
-0.00505838 	-0.000487119 	0.00064627 	-0.234003
-0.00505838 	-0.000487119 	0.00064627 	-0.234003
-0.00497081 	-0.000499962 	0.000658169 	-0.236202
-0.00497081 	-0.000499962 	0.000658169 	-0.236202
-0.00488168 	-0.000480099 	0.00065533 	-0.23835
-0.00488168 	-0.000480099 	0.00065533 	-0.23835
-0.00479094 	-0.000442544 	0.000656545 	-0.240484
-0.00479094 	-0.000442544 	0.000656545 	-0.240484
-0.00469858 	-0.000415103 	0.000691222 	-0.242594
-0.00469858 	-0.000415103 	0.000691222 	-0.242594
-0.00460456 	-0.000417779 	0.000764534 	-0.244632
-0.00460456 	-0.000417779 	0.000764534 	-0.244632
-0.00450886 	-0.000444724 	0.000828885 	-0.246554
-0.00450886 	-0.000444724 	0.000828885 	-0.246554
-0.00441144 	-0.000476907 	0.000845649 	-0.24836
-0.00441144 	-0.000476907 	0.000845649 	-0.24836
-0.00431227 	-0.000500564 	0.00083163 	-0.250073
-0.00431227 	-0.000500564 	0.00083163 	-0.250073
-0.00421133 	-0.000514913 	0.000830266 	-0.251718
-0.00421133 	-0.000514913 	0.000830266 	-0.251718
-0.00410857 	-0.000527822 	0.000858713 	-0.253316
-0.00410857 	-0.000527822 	0.000858713 	-0.253316
-0.00400397 	-0.000544601 	0.00089266 	-0.254878
-0.00400397 	-0.000544601 	0.00089266 	-0.254878
-0.0038975 	-0.000568647 	0.000923877 	-0.256402
-0.0038975 	-0.000568647 	0.000923877 	-0.256402
-0.00378912 	-0.000591223 	0.000971561 	-0.257896
-0.00378912 	-0.000591223 	0.000971561 	-0.257896
-0.00367879 	-0.000577783 	0.00101933 	-0.259405
-0.00367879 	-0.000577783 	0.00101933 	-0.259405
-0.00356649 	-0.000498252 	0.00100948 	-0.26102
-0.00356649 	-0.000498252 	0.00100948 	-0.26102
-0.00345217 	-0.000364723 	0.000933165 	-0.26284
-0.00345217 	-0.000364723 	0.000933165 	-0.26284
-0.0033358 	-0.000237384 	0.000926942 	-0.264799
-0.0033358 	-0.000237384 	0.000926942 	-0.264799
-0.00321735 	-0.000181372 	0.00108196 	-0.266651
-0.00321735 	-0.000181372 	0.00108196 	-0.266651
-0.00309677 	-0.000200866 	0.0012241 	-0.268246
-0.00309677 	-0.000200866 	0.0012241 	-0.268246
-0.00297403 	-0.000250754 	0.00120478 	-0.269602
-0.00297403 	-0.000250754 	0.00120478 	-0.269602
-0.00284909 	-0.000292121 	0.00111122 	-0.270776
-0.00284909 	-0.000292121 	0.00111122 	-0.270776
-0.0027219 	-0.000317072 	0.00106745 	-0.271869
-0.0027219 	-0.000317072 	0.00106745 	-0.271869
-0.00259244 	-0.000328978 	0.00109384 	-0.273042
-0.00259244 	-0.000328978 	0.00109384 	-0.273042
-0.00246065 	-0.000323838 	0.00113093 	-0.274376
-0.00246065 	-0.000323838 	0.00113093 	-0.274376
-0.00232651 	-0.000307805 	0.00112513 	-0.275747
-0.00232651 	-0.000307805 	0.00112513 	-0.275747
-0.00218995 	-0.000293427 	0.00109797 	-0.277027
-0.00218995 	-0.000293427 	0.00109797 	-0.277027
-0.00205095 	-0.000289335 	0.0011363 	-0.278274
-0.00205095 	-0.000289335 	0.0011363 	-0.278274
-0.00190946 	-0.000291851 	0.00124988 	-0.279591
-0.00190946 	-0.000291851 	0.00124988 	-0.279591
-0.00176543 	-0.000283397 	0.00130647 	-0.280857
-0.00176543 	-0.000283397 	0.00130647 	-0.280857
-0.00161881 	-0.000256527 	0.00122197 	-0.281809
-0.00161881 	-0.000256527 	0.00122197 	-0.281809
-0.00146957 	-0.000222338 	0.0010951 	-0.282397
-0.00146957 	-0.000222338 	0.0010951 	-0.282397
-0.00131765 	-0.000193888 	0.00105616 	-0.282791
-0.00131765 	-0.000193888 	0.00105616 	-0.282791
-0.001163 	-0.000168459 	0.00108976 	-0.28311
-0.001163 	-0.000168459 	0.00108976 	-0.28311
-0.00100559 	-0.000138307 	0.00110939 	-0.283354
-0.00100559 	-0.000138307 	0.00110939 	-0.283354
-0.000845345 	-0.000105593 	0.00110363 	-0.283489
-0.000845345 	-0.000105593 	0.00110363 	-0.283489
-0.000682232 	-7.37679e-05 	0.00109241 	-0.283497
-0.000682232 	-7.37679e-05 	0.00109241 	-0.283497
-0.000516194 	-4.37423e-05 	0.00107579 	-0.283368
-0.000516194 	-4.37423e-05 	0.00107579 	-0.283368
-0.000347178 	-1.75863e-05 	0.00105918 	-0.28309
-0.000347178 	-1.75863e-05 	0.00105918 	-0.28309
-0.000175132 	-9.60864e-07 	0.00103252 	-0.282648
-0.000175132 	-9.60864e-07 	0.00103252 	-0.282648
0 	5.27463e-06 	0.00100471 	-0.282032
0 	5.27463e-06 	0.00100471 	-0.282032
0 	5.27463e-06 	0.00100471 	-0.282032
0 	5.27463e-06 	0.00100471 	-0.282032
0.000175132 	4.20375e-06 	0.00098455 	-0.281244
0.000175132 	0.00411208 	0.00319628 	-0.264874
0.000347178 	-8.76264e-06 	0.000958243 	-0.280301
0.000347178 	0.004038 	0.00326854 	-0.263562
0.000516194 	-3.62761e-05 	0.000940762 	-0.279223
0.000516194 	0.00390496 	0.00334658 	-0.261919
0.000682232 	-7.76113e-05 	0.000932009 	-0.278011
0.000682232 	0.00370793 	0.00344896 	-0.25986
0.000845345 	-0.000136273 	0.000920322 	-0.276634
0.000845345 	0.00342083 	0.00356007 	-0.257113
0.00100559 	-0.000217583 	0.000904017 	-0.275032
0.00100559 	0.0029977 	0.00363809 	-0.253255
0.001163 	-0.000322051 	0.000882355 	-0.27317
0.001163 	0.00242032 	0.00369112 	-0.24804
0.00131765 	-0.000433965 	0.000860434 	-0.271146
0.00131765 	0.00178297 	0.00376247 	-0.24213
0.00146957 	-0.000525782 	0.000839158 	-0.269177
0.00146957 	0.00126841 	0.00385613 	-0.237018
0.00161881 	-0.000581831 	0.000823067 	-0.267405
0.00161881 	0.000982871 	0.0039922 	-0.233632
0.00176543 	-0.000608871 	0.000812284 	-0.26579
0.00176543 	0.000877136 	0.00416147 	-0.231644
0.00190946 	-0.000622008 	0.000796773 	-0.264213
0.00190946 	0.000840134 	0.00429846 	-0.230197
0.00205095 	-0.000629233 	0.000778985 	-0.262592
0.00205095 	0.000803457 	0.00439023 	-0.228717
0.00218995 	-0.000629563 	0.000765126 	-0.26091
0.00218995 	0.000754689 	0.00447334 	-0.227111
0.00232651 	-0.000621404 	0.000710278 	-0.25919
0.00232651 	0.000702039 	0.00457164 	-0.225508
0.00246065 	-0.000615927 	0.000585215 	-0.25746
0.00246065 	0.000645972 	0.00468591 	-0.22399
0.00259244 	-0.000637118 	0.000489503 	-0.255743
0.00259244 	0.000576626 	0.0047971 	-0.222537
0.0027219 	-0.000690531 	0.000549274 	-0.254011
0.0027219 	0.000482794 	0.00488427 	-0.221107
0.00284909 	-0.000718474 	0.000770285 	-0.252117
0.00284909 	0.000356543 	0.00495151 	-0.219687
0.00297403 	-0.000589912 	0.000969702 	-0.249832
0.00297403 	0.000194847 	0.00501789 	-0.218265
0.00309677 	-0.000224452 	0.000930456 	-0.247114
0.00309677 	5.96973e-06 	0.00509037 	-0.216828
0.00321735 	0.000261006 	0.000679739 	-0.2443
0.00321735 	-0.000189345 	0.00517142 	-0.215378
0.0033358 	0.000664877 	0.000459357 	-0.241794
0.0033358 	-0.000370521 	0.00525535 	-0.213918
0.00345217 	0.000910953 	0.000406398 	-0.239647
0.00345217 	-0.000529442 	0.00532145 	-0.212419
0.00356649 	0.00104294 	0.000483524 	-0.237659
0.00356649 	-0.000667964 	0.00536977 	-0.210836
0.00367879 	0.00113039 	0.000566637 	-0.235689
0.00367879 	-0.000785921 	0.00541635 	-0.209172
0.00378912 	-0.000874301 	0.00545652 	-0.207493
0.00378912 	0.00122039 	0.000556734 	-0.233704
0.0038975 	0.00132099 	0.000521704 	-0.231703
0.0038975 	-0.000919697 	0.00547414 	-0.205866
0.00400397 	0.00142594 	0.000508922 	-0.229683
0.00400397 	-0.000918923 	0.00546772 	-0.204267
0.00410857 	0.00153136 	0.000492699 	-0.227639
0.00410857 	-0.000892447 	0.00545422 	-0.202567
0.00421133 	0.00163469 	0.000472993 	-0.22557
0.00421133 	-0.000870098 	0.00544499 	-0.200638
0.00431227 	0.001734 	0.00045205 	-0.223474
0.00431227 	-0.000863519 	0.00543084 	-0.198491
0.00441144 	0.00182802 	0.000431064 	-0.22135
0.00441144 	-0.000866045 	0.00540058 	-0.196217
0.00450886 	0.00191607 	0.000409943 	-0.219199
0.00450886 	-0.000868501 	0.00535352 	-0.193887
0.00460456 	0.00199772 	0.000388266 	-0.21702
0.00460456 	-0.00086627 	0.00529474 	-0.191517
0.00469858 	0.00207255 	0.000365763 	-0.214813
0.00469858 	-0.000858647 	0.0052278 	-0.189106
0.00479094 	0.00214015 	0.000344411 	-0.212576
0.00479094 	-0.000846472 	0.00515425 	-0.186662
0.00488168 	0.00220026 	0.000321168 	-0.210313
0.00488168 	-0.000830484 	0.00507888 	-0.184214
0.00497081 	0.00225324 	0.000291931 	-0.208016
0.00497081 	-0.000811364 	0.00500185 	-0.18181
0.00505838 	0.00230113 	0.000266392 	-0.205651
0.00505838 	-0.000791298 	0.00491435 	-0.179494
0.0051444 	0.00234935 	0.000250423 	-0.203171
0.0051444 	-0.000773402 	0.00481096 	-0.177265
0.00522891 	0.00239942 	0.000238754 	-0.200576
0.00522891 	-0.000759163 	0.00469373 	-0.17509
0.00531193 	-0.000747921 	0.00457101 	-0.172937
0.00531193 	0.00243995 	0.000219348 	-0.197968
0.00539348 	0.00246048 	0.00018695 	-0.195429
0.00539348 	-0.000737639 	0.00444736 	-0.170778
0.0054736 	0.00246419 	0.000156684 	-0.19291
0.0054736 	-0.000726332 	0.00431843 	-0.1686
0.00555231 	0.00245817 	0.000137341 	-0.190321
0.00555231 	-0.000713751 	0.00418294 	-0.166396
0.00562963 	0.00244513 	0.000122374 	-0.187628
0.00562963 	-0.000701179 	0.00404242 	-0.164164
0.00570559 	0.00242462 	0.00010577 	-0.184837
0.00570559 	-0.000689928 	0.00389745 	-0.1619
0.00578022 	0.00239589 	8.68392e-05 	-0.181949
0.00578022 	-0.000680601 	0.00374906 	-0.159601
0.00585352 	0.00235624 	6.73405e-05 	-0.178958
0.00585352 	-0.000673393 	0.0035973 	-0.157271
0.00592554 	0.00230048 	4.85602e-05 	-0.175852
0.00592554 	-0.00066849 	0.00344171 	-0.15491
0.00599629 	0.00222496 	3.05325e-05 	-0.172613
0.00599629 	-0.000666064 	0.00328185 	-0.152504
0.00606579 	-0.000666253 	0.00311822 	-0.150033
0.00606579 	0.00213016 	1.44769e-05 	-0.169218
0.00613406 	0.00202097 	5.35647e-07 	-0.165642
0.00613406 	-0.000669279 	0.00295261 	-0.147463
0.00620114 	0.00190403 	-1.34289e-05 	-0.161856
0.00620114 	-0.000675382 	0.00278584 	-0.144757
0.00626703 	0.0017838 	-2.67201e-05 	-0.157832
0.00626703 	-0.000684714 	0.00261805 	-0.141873
0.00633176 	0.00166318 	-3.81155e-05 	-0.153537
0.00633176 	-0.000697269 	0.00244969 	-0.138768
0.00639535 	0.00154506 	-4.78643e-05 	-0.148939
0.00639535 	-0.000712814 	0.00228128 	-0.1354
0.00645783 	0.00143192 	-5.61011e-05 	-0.144008
0.00645783 	-0.000730834 	0.00211334 	-0.131726
0.0065192 	0.00132378 	-6.27779e-05 	-0.138715
0.0065192 	-0.000750429 	0.00194676 	-0.12771
0.00657949 	0.00121727 	-6.80115e-05 	-0.133041
0.00657949 	-0.000770118 	0.00178283 	-0.123328
0.00663871 	0.00110866 	-7.26726e-05 	-0.126973
0.00663871 	-0.00078791 	0.00162203 	-0.118582
0.0066969 	0.00099512 	-7.69236e-05 	-0.120502
0.0066969 	-0.000801796 	0.00146375 	-0.113482
0.00675406 	0.000875736 	-7.91041e-05 	-0.113619
0.00675406 	-0.000809673 	0.00130748 	-0.108002
0.00681021 	0.00075421 	-7.7692e-05 	-0.106322
0.00681021 	-0.000809033 	0.00115464 	-0.102089
0.00686537 	0.000638595 	-7.32069e-05 	-0.0986282
0.00686537 	-0.000797695 	0.00100815 	-0.0956959
0.00691956 	0.000540634 	-6.78385e-05 	-0.0905842
0.00691956 	-0.000774381 	0.000869671 	-0.0887992
0.0069728 	0.000472952 	-6.27003e-05 	-0.0822774
0.0069728 	-0.000738564 	0.0007399 	-0.0814236
0.0070251 	0.000443367 	-5.72515e-05 	-0.0738267
0.0070251 	-0.000690555 	0.000620044 	-0.0736485
0.00707647 	0.000451477 	-5.14496e-05 	-0.0653679
0.00707647 	-0.000631518 	0.000511346 	-0.0656018
0.00712695 	0.000486684 	-4.55408e-05 	-0.0570307
0.00712695 	-0.000563122 	0.000414542 	-0.0574478
0.00717653 	0.000527007 	-3.94289e-05 	-0.0489184
0.00717653 	-0.00048706 	0.000329668 	-0.0493673
0.00722524 	0.000538401 	-3.29887e-05 	-0.0410979
0.00722524 	-0.000404554 	0.000255704 	-0.0415424
0.00727309 	0.000470824 	-2.63881e-05 	-0.033605
0.00727309 	-0.000315968 	0.000192573 	-0.0341632
0.0073201 	0.000246548 	-2.03581e-05 	-0.0264591
0.0073201 	-0.00022048 	0.000142813 	-0.0274674
0.00736628 	-0.000263246 	-1.19704e-05 	-0.0196501
0.00736628 	-0.000115597 	8.66862e-05 	-0.021783
0.00741165 	-0.000891587 	-6.75732e-06 	-0.0130725
0.00741165 	-2.03327e-05 	5.3219e-05 	-0.0165018
0.00745622 	-0.000946376 	-3.19036e-06 	-0.00656207
0.00745622 	2.12467e-05 	2.52924e-05 	-0.00959438
0.0075 	0 	0 	0
0.0075 	0 	0 	0
