/*--------------------------------*- C++ -*----------------------------------*\
| =========                 |                                                 |
| \\      /  F ield         | OpenFOAM: The Open Source CFD Toolbox           |
|  \\    /   O peration     | Version:  v1912                                 |
|   \\  /    A nd           | Website:  www.openfoam.com                      |
|    \\/     M anipulation  |                                                 |
\*---------------------------------------------------------------------------*/
FoamFile
{
    version     2.0;
    format      ascii;
    class       volScalarField;
    location    "8.4";
    object      alphat;
}
// * * * * * * * * * * * * * * * * * * * * * * * * * * * * * * * * * * * * * //

dimensions      [1 -1 -1 0 0 0 0];


internalField   nonuniform List<scalar> 
34128
(
5.02966e-09
5.01453e-09
4.90775e-09
4.88584e-09
5.00258e-09
5.14838e-09
5.18653e-09
5.0929e-09
4.99373e-09
5.02031e-09
5.13603e-09
5.08494e-09
4.95328e-09
4.92804e-09
4.81655e-09
4.80059e-09
4.92682e-09
5.0828e-09
5.12206e-09
5.01917e-09
4.91644e-09
4.94586e-09
5.06183e-09
5.01421e-09
8.86594e-09
8.63113e-09
8.33027e-09
8.40813e-09
8.8358e-09
9.33822e-09
9.43401e-09
9.05215e-09
8.78213e-09
8.89887e-09
9.13778e-09
9.1063e-09
3.71602e-08
3.55225e-08
3.39685e-08
3.46558e-08
3.7106e-08
3.99595e-08
4.0438e-08
3.81746e-08
3.67813e-08
3.74914e-08
3.85519e-08
3.86132e-08
1.4488e-07
1.37867e-07
1.31738e-07
1.34721e-07
1.44708e-07
1.56426e-07
1.58343e-07
1.49024e-07
1.43492e-07
1.46407e-07
1.50365e-07
1.50844e-07
4.34347e-07
4.12715e-07
3.94744e-07
4.03832e-07
4.33557e-07
4.68798e-07
4.74598e-07
4.46755e-07
4.30491e-07
4.39003e-07
4.50011e-07
4.51913e-07
1.04644e-06
9.93637e-07
9.51393e-07
9.7306e-07
1.04301e-06
1.12696e-06
1.14119e-06
1.07569e-06
1.03767e-06
1.05681e-06
1.08097e-06
1.08664e-06
2.12607e-06
2.01822e-06
1.934e-06
1.9767e-06
2.11414e-06
2.28155e-06
2.31144e-06
2.18327e-06
2.10871e-06
2.14351e-06
2.1876e-06
2.20125e-06
3.77728e-06
3.58574e-06
3.43751e-06
3.50949e-06
3.74373e-06
4.03454e-06
4.09046e-06
3.87357e-06
3.74609e-06
3.79874e-06
3.86824e-06
3.89555e-06
6.03093e-06
5.72661e-06
5.49011e-06
5.5965e-06
5.95306e-06
6.40653e-06
6.50176e-06
6.17473e-06
5.97923e-06
6.04658e-06
6.14376e-06
6.19043e-06
8.83957e-06
8.39721e-06
8.04872e-06
8.18936e-06
8.68543e-06
9.33509e-06
9.4848e-06
9.03482e-06
8.76009e-06
8.83279e-06
8.95537e-06
9.02495e-06
1.20937e-05
1.14948e-05
1.10143e-05
1.1183e-05
1.17851e-05
1.26084e-05
1.28342e-05
1.23151e-05
1.19803e-05
1.20295e-05
1.21448e-05
1.21854e-05
1.49981e-05
1.43065e-05
1.37076e-05
1.38553e-05
1.45724e-05
1.55798e-05
1.58683e-05
1.52576e-05
1.48582e-05
1.48912e-05
1.50027e-05
1.50425e-05
1.80397e-05
1.72086e-05
1.64929e-05
1.66508e-05
1.74914e-05
1.86887e-05
1.9045e-05
1.8346e-05
1.78802e-05
1.78883e-05
1.79876e-05
1.80271e-05
2.11855e-05
2.02076e-05
1.93727e-05
1.95397e-05
2.05041e-05
2.18957e-05
2.23253e-05
2.15419e-05
2.10095e-05
2.09805e-05
2.10594e-05
2.11013e-05
2.44015e-05
2.32707e-05
2.23161e-05
2.24906e-05
2.3577e-05
2.51668e-05
2.56752e-05
2.48119e-05
2.42131e-05
2.41328e-05
2.4183e-05
2.42319e-05
2.76619e-05
2.63725e-05
2.53002e-05
2.54802e-05
2.66857e-05
2.84779e-05
2.90701e-05
2.81312e-05
2.74665e-05
2.73193e-05
2.73319e-05
2.73938e-05
3.09511e-05
2.94974e-05
2.83117e-05
2.84949e-05
2.98172e-05
3.18164e-05
3.24962e-05
3.14854e-05
3.07549e-05
3.05244e-05
3.04903e-05
3.05732e-05
3.42656e-05
3.26416e-05
3.13487e-05
3.15329e-05
3.29713e-05
3.51833e-05
3.5953e-05
3.48719e-05
3.40744e-05
3.3744e-05
3.36554e-05
3.37693e-05
3.7615e-05
3.58152e-05
3.44214e-05
3.46045e-05
3.61608e-05
3.85938e-05
3.94544e-05
3.83016e-05
3.74336e-05
3.69859e-05
3.68376e-05
3.6996e-05
4.10235e-05
3.90426e-05
3.75531e-05
3.77324e-05
3.9411e-05
4.20761e-05
4.3028e-05
4.17991e-05
4.08544e-05
4.02713e-05
4.00609e-05
4.02817e-05
4.45272e-05
4.23606e-05
4.07783e-05
4.09498e-05
4.27569e-05
4.56685e-05
4.67127e-05
4.53996e-05
4.43701e-05
4.36322e-05
4.33593e-05
4.36658e-05
4.8168e-05
4.58123e-05
4.41379e-05
4.42954e-05
4.62377e-05
4.94149e-05
5.05522e-05
4.91429e-05
4.80198e-05
4.71067e-05
4.67714e-05
4.71927e-05
5.19877e-05
4.94402e-05
4.76728e-05
4.78077e-05
4.98929e-05
5.33607e-05
5.45901e-05
5.30682e-05
5.18424e-05
5.07325e-05
5.03359e-05
5.0907e-05
5.60258e-05
5.32828e-05
5.14192e-05
5.15214e-05
5.37613e-05
5.75526e-05
5.88695e-05
5.72109e-05
5.58734e-05
5.45456e-05
5.40911e-05
5.48536e-05
6.0324e-05
5.73775e-05
5.54104e-05
5.54694e-05
5.78838e-05
6.20446e-05
6.34394e-05
6.16067e-05
6.01474e-05
5.85826e-05
5.80789e-05
5.90837e-05
6.4938e-05
6.1771e-05
5.96862e-05
5.96896e-05
6.23121e-05
6.69102e-05
6.83662e-05
6.63012e-05
6.47079e-05
6.289e-05
6.23547e-05
6.36662e-05
6.99543e-05
6.65351e-05
6.43061e-05
6.42378e-05
6.71217e-05
7.22574e-05
7.37476e-05
7.13639e-05
6.96214e-05
6.75377e-05
6.69996e-05
6.87014e-05
7.55079e-05
7.17842e-05
6.93669e-05
6.92017e-05
7.24279e-05
7.82441e-05
7.97268e-05
7.69022e-05
7.49936e-05
7.2635e-05
7.21356e-05
7.43345e-05
8.1806e-05
7.76966e-05
7.50209e-05
7.47176e-05
7.84029e-05
8.50963e-05
8.65111e-05
8.30816e-05
8.09893e-05
7.83515e-05
7.7946e-05
8.07732e-05
8.91238e-05
8.4538e-05
8.15024e-05
8.09929e-05
8.52971e-05
9.31001e-05
9.43533e-05
9.01378e-05
8.78533e-05
8.49402e-05
8.46854e-05
8.82799e-05
9.77533e-05
9.26048e-05
8.91028e-05
8.83033e-05
9.3416e-05
0.000102576
0.000103537
9.83206e-05
9.58542e-05
9.26904e-05
9.26433e-05
9.71511e-05
0.000108088
0.000102235
9.8113e-05
9.69191e-05
0.000103114
0.000113984
0.000114472
0.000107953
0.000105324
0.000101958
0.000102188
0.000107793
0.00012075
0.000113963
0.000109009
0.000107302
0.000114968
0.00012804
0.000127792
0.000119553
0.000116798
0.000113315
0.000113908
0.000120846
0.000136672
0.000128589
0.00012251
0.000120146
0.000129851
0.000145824
0.000144447
0.000133893
0.000131079
0.000127622
0.000128695
0.000137278
0.000157253
0.000147314
0.000139688
0.000136494
0.000149092
0.000168966
0.000165859
0.000152131
0.000149379
0.000146194
0.000147911
0.00015856
0.000184622
0.000171959
0.000162185
0.000157951
0.000174739
0.000199957
0.000194199
0.000176042
0.00017357
0.000171092
0.000173682
0.00018697
0.000222165
0.000205389
0.000192607
0.000187089
0.000210035
0.000242731
0.000232916
0.00020845
0.000206651
0.000205668
0.000209381
0.000225965
0.000275084
0.000252026
0.000235027
0.000227946
0.000260064
0.000303332
0.000287217
0.000253813
0.000253459
0.000255068
0.000257302
0.000272913
0.000336468
0.000307326
0.000285451
0.000277002
0.000323197
0.000375554
0.000346712
0.000307517
0.000313486
0.000307285
0.000305579
0.000323926
0.000407757
0.000371442
0.000343603
0.000332891
0.000393045
0.000456719
0.000418405
0.000367929
0.000378041
0.000373043
0.000370024
0.000391066
0.000496079
0.000452636
0.000418593
0.000405608
0.000481046
0.000556145
0.000506618
0.00044488
0.000460067
0.000456717
0.000451396
0.000474494
0.000603281
0.000552071
0.000511177
0.000495884
0.000588712
0.000676221
0.00061332
0.000538743
0.000560458
0.000560074
0.000551448
0.000576533
0.000731593
0.000672187
0.000623522
0.000605636
0.000718314
0.000818686
0.000740739
0.000652075
0.000681712
0.000686086
0.00067296
0.000700056
0.000882418
0.000814752
0.000757449
0.000736602
0.000870899
0.000983923
0.00089034
0.000787133
0.000825484
0.000836862
0.000817975
0.000847228
0.00105607
0.0009803
0.000913438
0.000888966
0.00104566
0.00117056
0.00106247
0.000945287
0.000991989
0.00101299
0.000987212
0.00101879
0.00125143
0.00116784
0.00109026
0.00106084
0.00123964
0.00137534
0.00125561
0.00112644
0.00117974
0.00121307
0.00117959
0.00121342
0.00146492
0.0013743
0.00128445
0.00124816
0.00144783
0.00159329
0.00146566
0.00132834
0.00138572
0.00143369
0.00139195
0.0014274
0.00169047
0.00159392
0.00148997
0.00144503
0.00166381
0.00181815
0.00168655
0.00154617
0.00160598
0.0016696
0.00161919
0.00165497
0.00192049
0.00181919
0.0016993
0.00164458
0.00188077
0.00204254
0.00191114
0.001773
0.00183177
0.00191345
0.0018548
0.00188901
0.00214714
0.00204219
0.00190482
0.00179654
0.00209178
0.00225914
0.00213238
0.00200089
0.0020547
0.00215348
0.00209208
0.00212198
0.00236355
0.00225584
0.00209892
0.00160725
0.00228957
0.00246189
0.00234429
0.0022221
0.00226851
0.002382
0.00232522
0.00234683
0.00256422
0.00245434
0.00198106
0.00146339
0.00223843
0.00264641
0.00254196
0.00243032
0.00246772
0.00259341
0.00254514
0.00255764
0.00274496
0.00263272
0.00174288
0.00137791
0.00219349
0.00280971
0.00272129
0.00262121
0.00252448
0.00278231
0.00274561
0.00274992
0.00290303
0.00278713
0.00158991
0.00133366
0.00218923
0.00294975
0.00280322
0.00279282
0.00239599
0.00294416
0.00292213
0.00292055
0.00303736
0.00273726
0.00150424
0.00132254
0.00222264
0.00289609
0.00277526
0.00294371
0.00231901
0.00307465
0.00307138
0.00306779
0.00314834
0.00258769
0.00146459
0.00134155
0.00229307
0.00285127
0.00276893
0.00284915
0.00230135
0.00317196
0.00319229
0.00319159
0.00323754
0.00248028
0.00146073
0.00139097
0.0024034
0.00284532
0.00279746
0.00271711
0.00232947
0.00324355
0.00328712
0.00329371
0.00330739
0.00241394
0.00148839
0.00147423
0.00255979
0.00288003
0.00286437
0.00263066
0.00239672
0.00329853
0.00335962
0.00337735
0.00336083
0.00237664
0.0015471
0.00159788
0.00277231
0.00295321
0.00297445
0.00259457
0.00250205
0.00334046
0.00341242
0.00344246
0.00340091
0.00236218
0.0016393
0.00177133
0.00304895
0.00306359
0.00313282
0.00259978
0.00264768
0.00337208
0.00344996
0.00349155
0.00342999
0.0023691
0.00176967
0.00200547
0.00328949
0.00321131
0.0033309
0.0026364
0.00283974
0.00339554
0.00347537
0.00352617
0.00345058
0.00239875
0.00194409
0.00231168
0.00332589
0.00339101
0.00346047
0.0026967
0.00309111
0.00341238
0.00349121
0.00354995
0.00346502
0.00245399
0.00216757
0.00270808
0.00335776
0.00346285
0.00346683
0.00277532
0.00337642
0.00342416
0.00350217
0.0035657
0.00347534
0.00253823
0.00244156
0.00317537
0.00338555
0.00347484
0.00346959
0.00286501
0.00338755
0.00343182
0.0035092
0.00357675
0.00348321
0.00265428
0.00275863
0.00328731
0.00340941
0.00348292
0.00346974
0.0029573
0.00339501
0.003436
0.00351301
0.00358422
0.00348986
0.00280306
0.00310824
0.00332493
0.00342939
0.00348758
0.00346818
0.00304654
0.00339956
0.00343714
0.00351388
0.00358867
0.00349621
0.00298182
0.00335434
0.00335781
0.00344555
0.00348916
0.0034656
0.00312832
0.00340186
0.00343563
0.00351174
0.00359056
0.00350289
0.00318371
0.00338444
0.0033858
0.00345783
0.00348799
0.00346251
0.00319872
0.00340246
0.00343184
0.00350672
0.00359009
0.00351028
0.00340257
0.00341185
0.00340888
0.00346624
0.00348452
0.00345894
0.00325437
0.00340181
0.00342622
0.00349908
0.00358746
0.00351858
0.00345008
0.00343664
0.00342715
0.0034709
0.00347935
0.00345484
0.00329291
0.00340038
0.00341912
0.0034891
0.00358288
0.00352782
0.00347037
0.00345886
0.00344085
0.00347214
0.00347307
0.00345043
0.00331485
0.0033986
0.00341095
0.00347709
0.00357666
0.00353791
0.00349089
0.00347854
0.00345037
0.00347046
0.00346613
0.00344603
0.00332184
0.00339688
0.00340219
0.00346347
0.0035691
0.00354868
0.00351131
0.00349574
0.00345629
0.00346666
0.00345872
0.00344218
0.00331463
0.00339565
0.00339333
0.00344866
0.00356059
0.0035599
0.00353127
0.00351051
0.00317585
0.00346185
0.00345115
0.00338457
0.00329693
0.00339534
0.00338491
0.0034327
0.00355171
0.00357135
0.00355042
0.0033365
0.00283327
0.00345724
0.00344439
0.00326704
0.00327593
0.00339638
0.00337748
0.00341596
0.00354313
0.00358273
0.00356842
0.00305574
0.00258366
0.00345383
0.00343926
0.00317444
0.00325936
0.00339915
0.00337158
0.00340075
0.00353547
0.00359376
0.00358493
0.0028258
0.00243281
0.00345156
0.00338882
0.00311171
0.00325447
0.00340397
0.00336769
0.0033879
0.00352886
0.0036042
0.00359971
0.00265072
0.00235606
0.00345056
0.00320118
0.00307579
0.00326706
0.00341089
0.00336613
0.00337776
0.00352265
5.34813e-09
5.31172e-09
5.2055e-09
5.20803e-09
5.34999e-09
5.52209e-09
5.56099e-09
5.43651e-09
5.32279e-09
5.35333e-09
5.48539e-09
5.46876e-09
5.1245e-09
5.09413e-09
4.99806e-09
5.00449e-09
5.13684e-09
5.29977e-09
5.33709e-09
5.21526e-09
5.1073e-09
5.1358e-09
5.26536e-09
5.26037e-09
6.6831e-09
6.72198e-09
6.70951e-09
6.79302e-09
6.89605e-09
7.07619e-09
7.12478e-09
6.9132e-09
6.79279e-09
6.81755e-09
7.03931e-09
7.23969e-09
1.79442e-08
1.84504e-08
1.90446e-08
1.96935e-08
1.95441e-08
1.98405e-08
1.9969e-08
1.91269e-08
1.89254e-08
1.89225e-08
1.97823e-08
2.15896e-08
6.07349e-08
6.3008e-08
6.59526e-08
6.86452e-08
6.73968e-08
6.80787e-08
6.85234e-08
6.53989e-08
6.49507e-08
6.47987e-08
6.79603e-08
7.58696e-08
1.746e-07
1.81716e-07
1.91165e-07
1.98988e-07
1.94209e-07
1.95616e-07
1.96968e-07
1.88168e-07
1.87303e-07
1.8653e-07
1.95487e-07
2.1979e-07
4.13096e-07
4.3087e-07
4.54431e-07
4.72092e-07
4.58323e-07
4.60372e-07
4.63832e-07
4.4431e-07
4.4318e-07
4.40443e-07
4.60762e-07
5.19538e-07
8.30274e-07
8.67978e-07
9.16926e-07
9.49659e-07
9.16883e-07
9.18178e-07
9.25815e-07
8.90108e-07
8.89744e-07
8.82141e-07
9.20869e-07
1.03962e-06
1.46319e-06
1.53369e-06
1.62202e-06
1.67371e-06
1.60642e-06
1.60329e-06
1.61819e-06
1.56239e-06
1.56525e-06
1.54784e-06
1.61227e-06
1.82058e-06
2.32072e-06
2.43988e-06
2.58261e-06
2.65355e-06
2.53121e-06
2.51741e-06
2.54344e-06
2.46705e-06
2.47726e-06
2.44324e-06
2.5394e-06
2.86563e-06
3.38256e-06
3.56803e-06
3.77952e-06
3.8651e-06
3.66384e-06
3.63078e-06
3.67206e-06
3.57883e-06
3.60205e-06
3.54365e-06
3.67512e-06
4.14118e-06
4.57558e-06
4.85849e-06
5.15832e-06
5.24526e-06
4.9263e-06
4.84125e-06
4.89825e-06
4.81344e-06
4.86609e-06
4.77925e-06
4.93576e-06
5.52117e-06
5.66296e-06
6.03074e-06
6.40885e-06
6.48887e-06
6.06419e-06
5.9401e-06
6.01299e-06
5.93256e-06
6.0074e-06
5.89279e-06
6.07601e-06
6.78031e-06
6.80592e-06
7.26937e-06
7.73097e-06
7.79356e-06
7.24837e-06
7.07681e-06
7.16657e-06
7.09851e-06
7.19904e-06
7.05363e-06
7.2632e-06
8.08494e-06
7.99097e-06
8.56072e-06
9.10968e-06
9.143e-06
8.46349e-06
8.23602e-06
8.3429e-06
8.29565e-06
8.42514e-06
8.24657e-06
8.48221e-06
9.41672e-06
9.20692e-06
9.89323e-06
1.05323e-05
1.05236e-05
9.69775e-06
9.4061e-06
9.52925e-06
9.51119e-06
9.67252e-06
9.45957e-06
9.72126e-06
1.07606e-05
1.0446e-05
1.12587e-05
1.19896e-05
1.19258e-05
1.09444e-05
1.05804e-05
1.07175e-05
1.07363e-05
1.09318e-05
1.06849e-05
1.09734e-05
1.21067e-05
1.17047e-05
1.26533e-05
1.34766e-05
1.33452e-05
1.22025e-05
1.17581e-05
1.1905e-05
1.19671e-05
1.21979e-05
1.19195e-05
1.2237e-05
1.34512e-05
1.29845e-05
1.40782e-05
1.49932e-05
1.47824e-05
1.34768e-05
1.29445e-05
1.30953e-05
1.32048e-05
1.34712e-05
1.3166e-05
1.3517e-05
1.47977e-05
1.42933e-05
1.55406e-05
1.65449e-05
1.62447e-05
1.47785e-05
1.41514e-05
1.42992e-05
1.44571e-05
1.47577e-05
1.44327e-05
1.48243e-05
1.61576e-05
1.56464e-05
1.70551e-05
1.81447e-05
1.77462e-05
1.61251e-05
1.53977e-05
1.55347e-05
1.57389e-05
1.6071e-05
1.57349e-05
1.61771e-05
1.755e-05
1.70663e-05
1.86437e-05
1.98128e-05
1.93081e-05
1.75411e-05
1.67097e-05
1.68271e-05
1.70719e-05
1.74318e-05
1.70953e-05
1.76004e-05
1.9001e-05
1.85821e-05
2.03342e-05
2.15756e-05
2.09577e-05
1.90573e-05
1.81203e-05
1.82082e-05
1.84844e-05
1.88676e-05
1.85429e-05
1.91256e-05
2.05422e-05
2.02293e-05
2.21599e-05
2.34638e-05
2.27273e-05
2.07104e-05
1.967e-05
1.97173e-05
2.00104e-05
2.04115e-05
2.01133e-05
2.07902e-05
2.2212e-05
2.20526e-05
2.41606e-05
2.55141e-05
2.46551e-05
2.25453e-05
2.14103e-05
2.14039e-05
2.16921e-05
2.21044e-05
2.18495e-05
2.26398e-05
2.4058e-05
2.4111e-05
2.63888e-05
2.77735e-05
2.67891e-05
2.46195e-05
2.34095e-05
2.33338e-05
2.35845e-05
2.39991e-05
2.38064e-05
2.4733e-05
2.61435e-05
2.64876e-05
2.8918e-05
3.03071e-05
2.91944e-05
2.70115e-05
2.57631e-05
2.55978e-05
2.57635e-05
2.61689e-05
2.60591e-05
2.71501e-05
2.85563e-05
2.93006e-05
3.18553e-05
3.32102e-05
3.19638e-05
2.98334e-05
2.86057e-05
2.83223e-05
2.83367e-05
2.87184e-05
2.87142e-05
3.00046e-05
3.14203e-05
3.27188e-05
3.53559e-05
3.66216e-05
3.52314e-05
3.32468e-05
3.21284e-05
3.16844e-05
3.14563e-05
3.17971e-05
3.19243e-05
3.34588e-05
3.49101e-05
3.69809e-05
3.96416e-05
4.0741e-05
3.91897e-05
3.74836e-05
3.6599e-05
3.59298e-05
3.5337e-05
3.56175e-05
3.59067e-05
3.77432e-05
3.92699e-05
4.24207e-05
4.50232e-05
4.58497e-05
4.41117e-05
4.28726e-05
4.23914e-05
4.13978e-05
4.0278e-05
4.04769e-05
4.09686e-05
4.31823e-05
4.48389e-05
4.95047e-05
5.1933e-05
5.23391e-05
5.03797e-05
4.98771e-05
5.00276e-05
4.85582e-05
4.66954e-05
4.67897e-05
4.75405e-05
5.02317e-05
5.20881e-05
5.87054e-05
6.07819e-05
6.05464e-05
5.83175e-05
5.89649e-05
6.00828e-05
5.78973e-05
5.49821e-05
5.49411e-05
5.60353e-05
5.9352e-05
6.15113e-05
7.07996e-05
7.2247e-05
7.10435e-05
6.84826e-05
7.09084e-05
7.34858e-05
7.02077e-05
6.5792e-05
6.55737e-05
6.71423e-05
7.1308e-05
7.392e-05
8.7014e-05
8.739e-05
8.47233e-05
8.17501e-05
8.69222e-05
9.16971e-05
8.6735e-05
8.0156e-05
7.96944e-05
8.19478e-05
8.73112e-05
9.05998e-05
0.000109281
0.000107882
0.000102977
9.94859e-05
0.000108927
0.000117029
0.000109428
9.97031e-05
9.88872e-05
0.000102169
0.00010929
0.000113578
0.000139151
0.000136267
0.000127928
0.000123802
0.000139917
0.000152967
0.00013968
0.000126932
0.00012562
0.000130464
0.000139982
0.000144515
0.000172804
0.000167831
0.000156805
0.000153607
0.000178267
0.000192597
0.000173578
0.000157094
0.000158511
0.000163732
0.000173608
0.000179318
0.000217464
0.000208735
0.000192723
0.000189362
0.000225424
0.000245517
0.000218235
0.00019619
0.000198592
0.000205746
0.000218348
0.000225552
0.000276939
0.000263054
0.000240247
0.000236814
0.000288455
0.000316101
0.000277252
0.000248155
0.000252135
0.000261915
0.00027813
0.000287094
0.000355343
0.000335272
0.000303363
0.000300019
0.00037198
0.000407738
0.000354505
0.000317361
0.000323746
0.000337073
0.000357337
0.000367698
0.000455209
0.000427584
0.000385052
0.000382402
0.000478546
0.000523887
0.000452341
0.000406447
0.00041631
0.000433839
0.000458673
0.000470115
0.000580418
0.000543505
0.000487647
0.00048611
0.000611861
0.000668239
0.000574324
0.000518996
0.000533401
0.00055617
0.000586352
0.000598157
0.000733922
0.000686311
0.000614311
0.00061414
0.000774342
0.000842852
0.000723162
0.00065865
0.000678445
0.000707547
0.000743712
0.000754514
0.00091653
0.000857569
0.000766846
0.000767861
0.000965763
0.00104713
0.000899679
0.000827494
0.000852778
0.00088939
0.000932005
0.000939791
0.00112594
0.00105612
0.000944669
0.000945884
0.00118236
0.00127717
0.00110201
0.00102501
0.00105432
0.00109986
0.00114939
0.00115182
0.00135646
0.00127747
0.00114405
0.00114334
0.00141665
0.00152591
0.00132535
0.00124743
0.00127684
0.00133308
0.00139053
0.00138559
0.00159986
0.00151405
0.00135804
0.00135199
0.00165833
0.00178348
0.00156246
0.00148803
0.00151041
0.00157914
0.00164706
0.00163376
0.00184704
0.00175634
0.00157735
0.00156141
0.001896
0.00203869
0.00180467
0.00173814
0.00174327
0.0018257
0.00190885
0.00188775
0.00208955
0.00199447
0.0017919
0.00149085
0.00193123
0.002281
0.00204297
0.00198846
0.00196959
0.00206162
0.00216543
0.00213894
0.00232005
0.00221964
0.00178041
0.0013681
0.00188584
0.00250205
0.00224439
0.00222942
0.00210742
0.00228262
0.00240647
0.00237939
0.00248528
0.00232387
0.00160783
0.00128633
0.00186894
0.0026015
0.0021992
0.00244983
0.00197871
0.00222316
0.00262209
0.00260258
0.00252314
0.00224349
0.00148715
0.00123973
0.00188759
0.0025181
0.00215086
0.00237036
0.00186414
0.00216752
0.00281042
0.00280378
0.00259082
0.0021861
0.00141513
0.00122138
0.00194315
0.00246232
0.00211965
0.00226594
0.00179606
0.00216301
0.0029382
0.00295172
0.00269521
0.00215985
0.00137824
0.00122823
0.00203663
0.00245249
0.00211195
0.00217427
0.00177272
0.00221331
0.00299524
0.00299323
0.00283134
0.00215766
0.00136861
0.00125939
0.00216944
0.00248992
0.00213398
0.0021112
0.00178899
0.00232165
0.00309761
0.00306207
0.00299487
0.00217347
0.00138245
0.00131622
0.00234298
0.00257398
0.00218836
0.00208685
0.00184031
0.00249473
0.00324685
0.00316777
0.00318205
0.00220143
0.00141938
0.00140252
0.00255705
0.00270001
0.00227395
0.00210261
0.00192473
0.00273958
0.00335574
0.00330151
0.0033774
0.00223788
0.00148194
0.00152439
0.00281161
0.0028616
0.00238771
0.00215118
0.00204267
0.00305053
0.00340409
0.00344532
0.00343022
0.0022806
0.00157539
0.00168995
0.00310989
0.00305524
0.00252566
0.00222266
0.00219647
0.00333922
0.00344217
0.00352294
0.00346
0.00232963
0.00170762
0.00190825
0.00332676
0.00328397
0.00268329
0.00230936
0.00239018
0.00336849
0.00347163
0.00354986
0.00348166
0.00238868
0.00188889
0.00218699
0.00336207
0.00350489
0.00285572
0.00240686
0.00262953
0.00338991
0.00349367
0.00357122
0.00349729
0.00246444
0.00213038
0.00253016
0.00339378
0.0035189
0.00303434
0.00251285
0.00292383
0.00340501
0.00350934
0.00358776
0.00350845
0.00256603
0.00244017
0.00294285
0.00342189
0.00352853
0.0032022
0.00262562
0.00326845
0.00341499
0.00351961
0.00359961
0.00351641
0.00270393
0.00282743
0.00331367
0.00344621
0.00353451
0.00333557
0.00274207
0.00339144
0.00342077
0.00352536
0.00360697
0.0035222
0.00288801
0.0032895
0.00335547
0.00346658
0.00353735
0.00341555
0.00285692
0.00339781
0.00342307
0.00352721
0.00361062
0.00352673
0.00312957
0.00339151
0.00339178
0.00348309
0.00353746
0.00344192
0.00296504
0.00340113
0.00342245
0.00352566
0.00361113
0.00353073
0.00342634
0.00342233
0.00342249
0.00349704
0.00353525
0.00342679
0.00306272
0.00340198
0.00341939
0.00352115
0.00360897
0.00353484
0.00345569
0.00345039
0.00344747
0.00350661
0.00353117
0.00337747
0.00314677
0.00340088
0.00341429
0.00351404
0.00360452
0.00353944
0.00347027
0.00347568
0.00346674
0.00351122
0.00352553
0.00329771
0.00321474
0.00339831
0.00340757
0.00350463
0.00359812
0.00354481
0.00348576
0.00349816
0.00348047
0.00351165
0.00351871
0.00319703
0.00326478
0.00339477
0.00339954
0.00349287
0.00359012
0.00355125
0.00350209
0.00351777
0.00348894
0.00350875
0.00351107
0.00308899
0.00329576
0.00339073
0.00339064
0.00347901
0.00358073
0.00355855
0.00351909
0.00353453
0.00349274
0.0035034
0.00350303
0.00298565
0.00330865
0.00338664
0.00338135
0.00346459
0.00356926
0.00356663
0.0035366
0.0035485
0.00316722
0.00349637
0.00349491
0.00289581
0.00330684
0.00338297
0.00337218
0.00345044
0.00355703
0.00357549
0.00355427
0.00355979
0.00281605
0.00348844
0.00348721
0.00282602
0.00329503
0.00338022
0.00336366
0.00343782
0.00354593
0.00358511
0.0035716
0.00356854
0.0025656
0.00348029
0.00347983
0.0027811
0.0032794
0.00337887
0.00335636
0.00342766
0.00353671
0.00359539
0.00358814
0.00347756
0.0024097
0.00347245
0.00343499
0.00276323
0.00326826
0.00337939
0.00335083
0.00341856
0.00350848
0.00360608
0.00360358
0.00311818
0.00232396
0.00346594
0.00326871
0.00277265
0.0032712
0.00338215
0.00334753
0.00341056
0.00340086
0.00361683
0.00361837
0.00286167
0.00229012
0.0034612
0.00314954
0.00280936
0.00329724
0.00338737
0.00334674
0.00340409
0.0033188
5.77333e-09
5.71708e-09
5.60927e-09
5.61567e-09
5.76348e-09
5.97168e-09
6.02032e-09
5.86291e-09
5.73554e-09
5.76917e-09
5.92214e-09
5.94669e-09
5.6528e-09
5.58957e-09
5.47713e-09
5.47884e-09
5.62447e-09
5.84116e-09
5.89629e-09
5.73785e-09
5.60973e-09
5.63879e-09
5.78672e-09
5.81354e-09
9.51548e-09
9.2586e-09
8.95671e-09
8.87869e-09
9.13724e-09
9.73354e-09
9.95713e-09
9.61126e-09
9.33905e-09
9.31928e-09
9.5273e-09
9.63102e-09
3.774e-08
3.61771e-08
3.46178e-08
3.40225e-08
3.50924e-08
3.82627e-08
3.95893e-08
3.79519e-08
3.66957e-08
3.63786e-08
3.70139e-08
3.76307e-08
1.44708e-07
1.38212e-07
1.32038e-07
1.29495e-07
1.33613e-07
1.46354e-07
1.51722e-07
1.4534e-07
1.40481e-07
1.39041e-07
1.4111e-07
1.43613e-07
4.30052e-07
4.10451e-07
3.9224e-07
3.84456e-07
3.96565e-07
4.34231e-07
4.50049e-07
4.31594e-07
4.17517e-07
4.12947e-07
4.1825e-07
4.25563e-07
1.02802e-06
9.81277e-07
9.38202e-07
9.19232e-07
9.47605e-07
1.03578e-06
1.07279e-06
1.03071e-06
9.98296e-07
9.8665e-07
9.97411e-07
1.01403e-06
2.07241e-06
1.97922e-06
1.89295e-06
1.85395e-06
1.90964e-06
2.0824e-06
2.15519e-06
2.07534e-06
2.0128e-06
1.98762e-06
2.00563e-06
2.03648e-06
3.65456e-06
3.49286e-06
3.34098e-06
3.27038e-06
3.36588e-06
3.66112e-06
3.78628e-06
3.65484e-06
3.54961e-06
3.50204e-06
3.52758e-06
3.57575e-06
5.79574e-06
5.54391e-06
5.30271e-06
5.18779e-06
5.33541e-06
5.78886e-06
5.98243e-06
5.78844e-06
5.62929e-06
5.54914e-06
5.58048e-06
5.64472e-06
8.44587e-06
8.08525e-06
7.73293e-06
7.56171e-06
7.77293e-06
8.41342e-06
8.68834e-06
8.42503e-06
8.20344e-06
8.08101e-06
8.11422e-06
8.18752e-06
1.14404e-05
1.09813e-05
1.05251e-05
1.02965e-05
1.0549e-05
1.13349e-05
1.16943e-05
1.13912e-05
1.11192e-05
1.09659e-05
1.09777e-05
1.09919e-05
1.41672e-05
1.35965e-05
1.30307e-05
1.2755e-05
1.30786e-05
1.4034e-05
1.44692e-05
1.41061e-05
1.37727e-05
1.35815e-05
1.35866e-05
1.35827e-05
1.70344e-05
1.63425e-05
1.56594e-05
1.53378e-05
1.5742e-05
1.68746e-05
1.73874e-05
1.69616e-05
1.65633e-05
1.63289e-05
1.63252e-05
1.63007e-05
2.001e-05
1.91875e-05
1.83809e-05
1.8015e-05
1.85095e-05
1.98262e-05
2.04169e-05
1.99261e-05
1.94603e-05
1.91766e-05
1.91608e-05
1.9114e-05
2.30679e-05
2.21058e-05
2.1171e-05
2.07627e-05
2.13585e-05
2.2866e-05
2.35328e-05
2.2974e-05
2.24383e-05
2.20996e-05
2.2068e-05
2.19977e-05
2.61913e-05
2.50809e-05
2.40137e-05
2.35652e-05
2.42764e-05
2.5982e-05
2.67207e-05
2.6089e-05
2.54805e-05
2.50822e-05
2.50318e-05
2.49383e-05
2.93745e-05
2.81069e-05
2.69021e-05
2.64167e-05
2.7261e-05
2.91739e-05
2.99782e-05
2.92654e-05
2.85801e-05
2.81186e-05
2.80484e-05
2.79346e-05
3.26232e-05
3.11896e-05
2.98394e-05
2.93211e-05
3.03205e-05
3.24536e-05
3.33156e-05
3.25096e-05
3.1742e-05
3.12147e-05
3.1126e-05
3.09984e-05
3.59558e-05
3.43466e-05
3.28403e-05
3.22929e-05
3.34747e-05
3.58449e-05
3.67552e-05
3.58404e-05
3.49838e-05
3.4389e-05
3.42851e-05
3.4153e-05
3.94035e-05
3.76081e-05
3.5931e-05
3.53582e-05
3.67545e-05
3.93837e-05
4.03301e-05
3.92887e-05
3.83364e-05
3.76725e-05
3.75575e-05
3.7432e-05
4.30078e-05
4.10144e-05
3.91484e-05
3.85522e-05
4.02013e-05
4.31163e-05
4.40836e-05
4.28952e-05
4.18415e-05
4.11068e-05
4.09846e-05
4.08784e-05
4.6818e-05
4.46131e-05
4.25367e-05
4.19176e-05
4.38647e-05
4.70979e-05
4.80665e-05
4.67076e-05
4.55474e-05
4.47405e-05
4.46149e-05
4.45437e-05
5.08894e-05
4.84573e-05
4.61448e-05
4.55018e-05
4.78008e-05
5.13934e-05
5.23378e-05
5.07785e-05
4.9507e-05
4.86271e-05
4.85043e-05
4.84883e-05
5.52872e-05
5.26087e-05
5.00273e-05
4.93578e-05
5.20753e-05
5.60825e-05
5.69688e-05
5.51688e-05
5.37789e-05
5.28267e-05
5.27199e-05
5.27872e-05
6.00952e-05
5.71456e-05
5.42515e-05
5.35494e-05
5.67723e-05
6.12713e-05
6.20526e-05
5.99556e-05
5.84363e-05
5.74151e-05
5.73495e-05
5.75388e-05
6.54289e-05
6.21752e-05
5.89076e-05
5.81621e-05
6.20085e-05
6.71069e-05
6.77178e-05
6.52453e-05
6.35788e-05
6.24964e-05
6.25155e-05
6.28785e-05
7.14489e-05
6.78479e-05
6.41223e-05
6.33164e-05
6.79518e-05
7.37937e-05
7.41417e-05
7.1188e-05
6.93477e-05
6.82198e-05
6.83912e-05
6.8993e-05
7.83744e-05
7.43694e-05
7.00715e-05
6.9184e-05
7.48384e-05
8.16079e-05
8.15642e-05
7.79917e-05
7.59404e-05
7.47947e-05
7.52162e-05
7.61341e-05
8.64939e-05
8.20118e-05
7.6993e-05
7.60017e-05
8.29897e-05
9.09086e-05
9.02993e-05
8.59363e-05
8.36233e-05
8.25057e-05
8.33111e-05
8.46317e-05
9.61634e-05
9.11105e-05
8.51936e-05
8.40854e-05
9.28229e-05
0.00010214
0.000100735
9.53741e-05
9.27376e-05
9.17187e-05
9.30808e-05
9.49017e-05
0.000107828
0.000102069
9.50419e-05
9.38314e-05
0.000104857
0.000115871
0.000113363
0.000106732
0.000103692
0.000102876
0.00010503
0.000107477
0.000122166
0.000115473
0.000107022
0.00010574
0.000119848
0.000132999
0.000128948
0.000120644
0.000117073
0.000116611
0.000119914
0.000123172
0.000140237
0.000132243
0.000121911
0.000120627
0.000138999
0.000154922
0.000148685
0.000138116
0.000133818
0.000133934
0.000138922
0.000143263
0.000163668
0.000153775
0.000140903
0.00013976
0.000164186
0.000183784
0.000174418
0.000160706
0.000155386
0.000156418
0.000163896
0.000169721
0.000195013
0.000182213
0.000165843
0.000165132
0.000198398
0.000222966
0.000209066
0.000190903
0.000184086
0.000186558
0.000197749
0.000205664
0.000238278
0.000220971
0.000199654
0.00019997
0.000246468
0.000277809
0.000257037
0.000232584
0.000223686
0.00022838
0.000244985
0.000255734
0.000293456
0.000274825
0.000244985
0.000246978
0.000309728
0.000346679
0.000309729
0.000280636
0.000277074
0.000284422
0.000301818
0.000310088
0.000352404
0.000328905
0.000291184
0.000294395
0.00037695
0.000421388
0.000372124
0.000334857
0.000331145
0.000341979
0.00036588
0.000376132
0.000428809
0.000399781
0.000351862
0.000356828
0.000463369
0.000515684
0.00045228
0.00040629
0.000402582
0.000417649
0.000448471
0.000459867
0.000522771
0.000487608
0.000428804
0.000436051
0.00057005
0.000630868
0.000550639
0.000494995
0.000491324
0.000511624
0.000550634
0.000562849
0.000636684
0.000594537
0.000523207
0.000533298
0.000699493
0.000768711
0.000669589
0.000603355
0.000599542
0.000626491
0.000675126
0.00068769
0.000772432
0.000722852
0.000637538
0.000650883
0.000852938
0.000929695
0.000810836
0.00073368
0.000729403
0.000764413
0.000823787
0.000836145
0.000930781
0.000873865
0.000773643
0.000790168
0.00102968
0.00111259
0.000974927
0.00088724
0.0008819
0.000926163
0.000996903
0.00100863
0.00111106
0.00104748
0.000932124
0.000950911
0.00122676
0.00131457
0.00116093
0.0010638
0.0010564
0.0011106
0.00119278
0.00120383
0.00131101
0.00124191
0.00111189
0.00113087
0.00143916
0.00153212
0.00136612
0.00126131
0.00125043
0.00131447
0.00140764
0.00141858
0.00152681
0.00145361
0.00130993
0.00132574
0.00166042
0.00176329
0.00158606
0.00147596
0.00145972
0.00153261
0.00163586
0.00164789
0.00175322
0.00167745
0.00152136
0.00152962
0.00188359
0.00199748
0.00181497
0.00170263
0.00167844
0.00175863
0.00187057
0.0018854
0.00198392
0.00190706
0.00173974
0.00173585
0.00210184
0.00222445
0.00204634
0.00193661
0.00189975
0.0019858
0.00210462
0.0021244
0.00221203
0.00213536
0.00195766
0.00193703
0.00230866
0.00243684
0.00227372
0.00217206
0.00211558
0.00220715
0.00233206
0.00236113
0.00243081
0.00235513
0.00216721
0.0018717
0.00249945
0.00263007
0.00249063
0.00239711
0.00222594
0.00241501
0.00254742
0.00258557
0.00263383
0.00255959
0.00236119
0.00177359
0.00252187
0.00280231
0.00269067
0.00260233
0.00204981
0.00243423
0.0027416
0.00278914
0.00281545
0.00274309
0.00252332
0.00172448
0.00257955