/*--------------------------------*- C++ -*----------------------------------*\
| =========                 |                                                 |
| \\      /  F ield         | OpenFOAM: The Open Source CFD Toolbox           |
|  \\    /   O peration     | Version:  v1912                                 |
|   \\  /    A nd           | Website:  www.openfoam.com                      |
|    \\/     M anipulation  |                                                 |
\*---------------------------------------------------------------------------*/
FoamFile
{
    version     2.0;
    format      ascii;
    class       volScalarField;
    location    "8.4";
    object      omega;
}
// * * * * * * * * * * * * * * * * * * * * * * * * * * * * * * * * * * * * * //

dimensions      [0 0 -1 0 0 0 0];


internalField   nonuniform List<scalar> 
34128
(
156509
156509
156509
156509
156509
156509
156509
156509
156509
156509
156509
156509
25872.2
25872.6
25865.7
25865.4
25867.2
25868.4
25870.9
25871.4
25867.6
25863.9
25868.6
25870.3
8915.97
8916.25
8910.71
8910.54
8912.14
8913.42
8915.43
8915.6
8912.35
8909.62
8913.6
8914.92
4287.03
4287.16
4282.79
4282.73
4284.37
4285.87
4287.48
4287.14
4284.38
4282.57
4285.96
4286.88
2500.36
2500.26
2496.69
2496.81
2498.69
2500.55
2501.87
2500.95
2498.42
2497.36
2500.47
2501.15
1657.37
1656.98
1654.02
1654.38
1656.61
1658.87
1659.96
1658.43
1655.99
1655.55
1658.53
1659.14
1205.86
1205.12
1202.66
1203.31
1205.88
1208.54
1209.44
1207.34
1204.91
1204.95
1207.85
1208.59
941.991
940.899
938.823
939.792
942.634
945.609
946.399
943.81
941.354
941.7
944.556
945.59
777.128
775.724
773.977
775.234
778.23
781.444
782.17
779.196
776.71
777.21
780.043
781.523
668.292
666.638
665.143
666.607
669.603
673.003
673.74
670.498
667.988
668.482
671.298
673.319
592.797
590.963
589.647
591.198
594.038
597.588
598.412
595.022
592.506
592.847
595.634
598.23
537.922
535.983
534.788
536.291
538.832
542.503
543.477
540.057
537.563
537.635
540.36
543.505
496.185
494.217
493.11
494.429
496.559
500.312
501.474
498.135
495.702
495.429
498.041
501.658
463.004
461.081
460.053
461.072
462.71
466.49
467.846
464.694
462.367
461.716
464.153
468.124
435.479
433.675
432.731
433.36
434.462
438.187
439.715
436.851
434.677
433.653
435.85
440.032
411.71
410.096
409.253
409.435
409.984
413.547
415.202
412.721
410.746
409.384
411.286
415.525
390.419
389.063
388.344
388.049
388.045
391.323
393.048
391.038
389.305
387.662
389.223
393.362
370.725
369.695
369.124
368.341
367.78
370.655
372.383
370.927
369.477
367.622
368.803
372.624
351.857
351.336
350.89
349.638
348.575
350.915
352.547
351.781
350.65
348.659
349.408
352.709
333.408
333.405
333.132
331.499
329.985
331.596
333.093
333.087
332.348
330.35
330.597
333.203
315.089
315.615
315.556
313.602
311.695
312.382
313.805
314.564
314.227
312.284
312.003
313.883
296.678
297.768
297.97
295.799
293.447
293.198
294.502
295.986
296.078
294.257
293.432
294.565
278.089
279.753
280.249
277.965
275.093
273.953
275.093
277.333
277.801
276.127
274.727
275.159
259.265
261.499
262.318
260.037
256.715
254.593
255.556
258.559
259.379
257.819
255.972
255.644
240.204
242.991
244.156
242.004
238.298
235.12
235.924
239.672
240.803
239.423
237.192
236.051
220.944
224.262
225.794
223.891
219.841
215.574
216.263
220.717
222.103
220.951
218.402
216.444
201.552
205.372
207.292
205.748
201.371
196.025
196.662
201.763
203.337
202.438
199.637
196.906
182.099
186.396
188.728
187.641
182.933
176.55
177.215
182.887
184.574
183.93
180.941
177.52
162.671
167.405
170.18
169.638
164.579
157.239
158.036
164.161
165.89
165.477
162.357
158.377
143.618
148.519
151.736
151.812
146.383
138.443
139.61
145.769
147.429
147.202
144.069
139.844
125.908
130.499
133.875
134.467
128.812
120.991
122.562
128.536
129.99
129.864
126.836
122.665
109.709
113.866
117.344
118.31
112.513
104.922
106.827
112.594
113.856
113.757
110.9
106.874
94.8814
98.7054
102.295
103.427
97.6029
90.1995
92.369
97.9056
98.9383
98.8316
96.3168
92.4563
81.3806
85.0014
88.5238
89.7344
84.0624
76.9457
79.2071
84.4718
85.2621
85.1578
83.0721
79.4827
69.1888
72.7107
75.9975
77.3188
71.8599
65.1403
67.4174
72.3626
72.8486
72.8398
71.1427
67.8971
58.3367
61.7823
64.7803
66.1736
60.9676
54.7477
57.0057
61.5752
61.7364
61.8482
60.5026
57.6443
48.9382
52.1663
54.914
56.2717
51.3584
45.7181
47.9181
52.071
51.9919
52.1507
51.1212
48.6679
40.8806
43.8091
46.3153
47.5779
42.998
37.9835
40.0907
43.8009
43.5498
43.7094
42.9593
40.9057
34.0415
36.6347
38.8924
40.0308
35.8145
31.4383
33.4366
36.7036
36.3343
36.465
35.9406
34.2489
28.1765
30.4299
32.4367
33.442
29.612
25.8547
27.7231
30.6227
30.1492
30.1972
29.8551
28.4835
23.1692
25.0852
26.8403
27.7108
24.3009
21.1351
22.8349
25.3803
24.836
24.7944
24.609
23.5274
19.0328
20.6295
22.1397
22.8805
19.8995
17.2776
18.7909
20.9439
20.3896
20.2964
20.2308
19.3935
15.6574
16.9651
18.2491
18.8732
16.3068
14.1644
15.4865
17.2784
16.7422
16.6053
16.6252
15.983
12.9317
13.988
15.0733
15.5978
13.4143
11.6795
12.8133
14.2819
13.7883
13.6157
13.6913
13.1974
10.7484
11.5951
12.5136
12.9575
11.1135
9.71382
10.6676
11.8546
11.423
11.2226
11.3292
10.9441
9.00893
9.68813
10.4727
10.8559
9.30155
8.16942
8.95519
9.90337
9.54659
9.3258
9.44461
9.13897
7.62759
8.17736
8.85901
9.20069
7.88514
6.96136
7.59645
8.34551
8.06764
7.83345
7.95205
7.70615
6.5367
6.98687
7.59279
7.90766
6.78317
6.01861
6.52623
7.11043
6.90507
6.66455
6.77648
6.57784
5.6807
6.05559
6.60765
6.90307
5.92751
5.28343
5.68803
6.13873
5.98949
5.75058
5.85392
5.69428
5.01229
5.33134
5.84628
6.12478
5.26232
4.71114
5.0336
5.37935
5.27729
5.0378
5.13104
5.00451
4.49166
4.7701
5.25994
5.52364
4.7444
4.26627
4.52278
4.78864
4.72579
4.49004
4.56355
4.46643
4.08607
4.33554
4.81044
5.04878
4.34224
3.92039
4.12301
4.33028
4.29693
4.06791
4.1154
4.04629
3.76979
3.99904
4.46069
4.66806
4.02671
3.6511
3.80916
3.97448
3.96245
3.74071
3.76516
3.71765
3.52332
3.73942
4.18309
4.36766
3.77646
3.44154
3.56268
3.69748
3.70117
3.48751
3.49238
3.46018
3.3318
3.54097
3.96489
4.13132
3.5788
3.27935
3.36918
3.48011
3.49395
3.29343
3.28091
3.25852
3.18368
3.38894
3.79573
3.94241
3.42265
3.15363
3.21611
3.30896
3.33296
3.14867
3.11887
3.10098
3.06987
3.27187
3.66431
3.78648
3.29817
3.05538
3.09427
3.1752
3.2088
3.04503
2.99651
2.97822
2.98315
3.18298
3.55897
3.65232
3.19715
2.97835
2.998
3.07057
3.1127
2.96929
2.90464
2.88243
2.91771
3.11678
3.47005
3.5321
3.11325
2.91783
2.92284
2.98967
3.03781
2.91034
2.83574
2.80689
2.86879
3.06788
3.39055
3.42128
3.042
2.87003
2.8651
2.92841
2.97884
2.8639
2.78516
2.74921
2.83254
3.03159
3.31597
3.31801
2.9806
2.83204
2.82181
2.88243
2.93207
2.82706
2.74795
2.70574
2.80631
3.0036
3.24462
3.22243
2.92747
2.80172
2.79123
2.84831
2.8946
2.79777
2.72099
2.67439
2.78765
2.98063
3.17609
3.1353
2.8811
2.77747
2.77454
2.82344
2.86426
2.77468
2.70201
2.65186
2.77445
2.96013
3.11092
3.05793
2.8402
2.75809
2.76409
2.80574
2.83962
2.75653
2.68736
2.63591
2.76493
2.94028
3.05015
2.9916
2.80436
2.74262
2.75684
2.79356
2.81937
2.74257
2.67634
2.62406
2.75766
2.91998
2.99469
2.93533
2.77352
2.73046
2.75213
2.78558
2.80249
2.73235
2.66847
2.61549
2.75153
2.89864
2.9451
2.88739
2.74772
2.72139
2.74936
2.78077
2.7885
2.72551
2.66359
2.60988
2.7457
2.87612
2.90156
2.84739
2.72697
2.71532
2.74806
2.7783
2.77704
2.72176
2.66176
2.6069
2.73956
2.85268
2.86362
2.81531
2.71134
2.71215
2.74789
2.77749
2.76788
2.72077
2.66291
2.60642
2.73274
2.8287
2.8308
2.79097
2.70083
2.71174
2.74886
2.77774
2.76082
2.72216
2.66685
2.60828
2.72504
2.80464
2.80301
2.77401
2.69528
2.71374
2.75101
2.77853
2.75569
2.72563
2.67338
2.6123
2.71646
2.78094
2.78009
2.76383
2.69436
2.71782
2.75414
2.77954
2.75229
2.7308
2.68234
2.61819
2.70715
2.758
2.76184
2.75965
2.69751
2.72369
2.75792
2.78056
2.75037
2.73733
2.69348
2.62566
2.69737
2.73629
2.74788
2.76044
2.70391
2.73122
2.76183
2.78146
2.74966
2.74486
2.70659
2.63435
2.68745
2.71623
2.73777
2.76504
2.71241
2.7401
2.76526
2.78174
2.7498
2.75304
2.72179
2.64372
2.67773
2.69816
2.73086
2.77208
2.72175
2.74944
2.76762
2.77956
2.75038
2.76155
2.73897
2.65319
2.66861
2.68238
2.72648
2.77975
2.73082
2.75839
2.76854
2.77528
2.751
2.77012
2.75644
2.66222
2.6604
2.66907
2.72393
2.78652
2.73934
2.76633
2.76877
2.76935
2.75131
2.7785
2.77358
2.67065
2.6534
2.65833
2.72237
2.79152
2.74696
2.77334
2.76715
2.76211
2.7512
2.78655
2.79009
2.67897
156509
156509
156509
156509
156509
156509
156509
156509
156509
156509
156509
156509
25853
25854.2
25848.6
25849.1
25849.2
25850.4
25853.2
25853.1
25849.9
25846.2
25851.6
25856.8
8660.77
8666.5
8672.83
8685.17
8675.01
8672.05
8674.01
8668.79
8667.93
8664.34
8673.74
8715.95
4203.82
4205.75
4205.48
4209.69
4207.32
4207.65
4209.38
4206.94
4205.05
4203.02
4208.41
4223.4
2468.33
2468.88
2467.06
2468.99
2469.16
2470.83
2472.35
2470.31
2468.12
2466.93
2471.02
2478
1645.16
1644.95
1642.8
1643.97
1645.28
1647.78
1649.16
1646.92
1644.58
1643.92
1647.48
1651.59
1202.62
1201.88
1199.76
1200.68
1202.59
1205.68
1206.98
1204.43
1201.97
1201.64
1204.95
1208.03
943.108
941.966
939.967
940.839
943.019
946.542
947.824
944.98
942.451
942.258
945.43
948.306
780.688
779.252
777.373
778.123
780.382
784.258
785.565
782.554
779.996
779.78
782.812
785.847
673.238
671.618
669.824
670.403
672.551
676.676
678.062
675.003
672.466
672.093
674.981
678.312
598.48
596.781
595.039
595.363
597.258
601.546
603.044
600.054
597.589
596.967
599.683
603.319
543.901
542.226
540.52
540.502
542.049
546.418
548.033
545.218
542.879
541.962
544.462
548.326
502.141
500.584
498.913
498.487
499.637
504
505.706
503.162
500.996
499.783
502.018
505.985
468.69
467.338
465.715
464.845
465.593
469.846
471.596
469.404
467.457
465.981
467.905
471.82
440.684
439.617
438.063
436.749
437.121
441.147
442.879
441.11
439.419
437.741
439.313
443.015
416.244
415.53
414.07
412.347
412.389
416.059
417.705
416.422
415.018
413.214
414.404
417.731
394.088
393.786
392.447
390.386
390.156
393.332
394.825
394.083
392.995
391.145
391.929
394.728
373.322
373.475
372.288
369.993
369.55
372.091
373.375
373.223
372.475
370.657
371.018
373.238
353.505
353.982
353.033
350.615
349.953
351.716
352.837
353.226
352.833
351.123
351.056
352.666
334.176
335.057
334.363
331.851
330.921
331.844
332.824
333.794
333.693
332.093
331.605
332.634
314.973
316.303
315.893
313.416
312.146
312.184
312.965
314.622
314.818
313.368
312.462
312.765
295.684
297.492
297.395
295.113
293.51
292.508
293.108
295.465
295.983
294.742
293.483
292.9
276.234
278.483
278.751
276.743
274.818
272.727
273.196
276.235
277.052
276.069
274.434
272.983
256.622
259.266
259.944
258.29
256.01
252.834
253.24
256.926
258.001
257.273
255.281
253.028
236.912
239.892
241.014
239.781
237.096
232.881
233.308
237.582
238.87
238.372
236.054
233.099
217.218
220.466
222.052
221.282
218.138
212.973
213.509
218.295
219.742
219.433
216.831
213.306
197.69
201.132
203.189
202.895
199.241
193.253
193.978
199.189
200.74
200.567
197.73
193.783
178.502
182.068
184.582
184.743
180.544
173.891
174.871
180.408
182.01
181.917
178.899
174.686
159.837
163.468
166.407
166.967
162.215
155.077
156.346
162.111
163.712
163.647
160.509
156.181
141.861
145.531
148.844
149.716
144.436
137.004
138.56
144.46
146.013
145.935
142.742
138.427
124.698
128.418
132.06
133.137
127.391
119.846
121.663
127.604
129.065
128.956
125.779
121.582
108.648
112.237
116.179
117.37
111.247
103.745
105.932
111.675
113.027
112.887
109.783
105.8
93.8779
97.2485
101.319
102.552
96.1522
88.8693
91.4527
96.9541
98.0737
97.8832
94.8931
91.2061
80.4214
83.5546
87.5918
88.8009
82.2347
75.3654
78.2473
83.4776
84.3746
84.0547
81.2154
77.8808
68.2463
71.1496
75.0609
76.1925
69.5908
63.2968
66.3677
71.2191
71.9464
71.4708
68.8228
65.875
57.3704
60.0082
63.7511
64.7714
58.2791
52.6877
55.818
60.2166
60.7712
60.1737
57.7528
55.2056
47.7797
50.1441
53.6635
54.5562
48.3173
43.5143
46.5682
50.4708
50.8465
50.175
48.0065
45.8528
39.4319
41.5258
44.7743
45.5336
39.6751
35.6101
38.5478
41.9414
42.1461
41.4442
39.5362
37.7523
32.2611
34.0918
37.0374
37.6655
32.2897
28.8905
31.6669
34.5561
34.6122
33.9179
32.2706
30.829
26.2104
27.788
30.4136
30.9191
26.0983
23.2985
25.8558
28.2534
28.1937
27.5422
26.1504
25.0193
21.2048
22.5445
24.8485
25.2465
21.0134
18.7382
21.0364
22.9759
22.8372
22.2494
21.0949
20.2339
17.1311
18.253
20.2487
20.5588
16.9093
15.0792
17.099
18.6335
18.4485
17.9302
16.9869
16.353
13.8674
14.7948
16.5066
16.7502
13.6506
12.1875
13.9279
15.1147
14.9137
14.4634
13.7009
13.2522
11.2908
12.0491
13.5084
13.7061
11.1019
9.93283
11.4085
12.3058
12.1134
11.7242
11.1109
10.8089
9.28394
9.89859
11.1405
11.3104
9.13463
8.19484
9.4313
10.095
9.9302
9.59111
9.0964
8.90634
7.73871
8.23421
9.29486
9.45176
7.63281
6.86655
7.89562
8.37654
8.25319
7.95111
7.54652
7.43812
6.55913
6.95849
7.87283
8.02777
6.49593
5.85692
6.71178
7.05396
6.98194
6.70426
6.36362
6.31123
5.66264
5.98742
6.78768
6.94844
5.64039
5.09294
5.80299
6.04232
6.02864
5.76575
5.46507
5.44808
4.98088
5.25106
5.96582
6.13767
4.99904
4.51689
5.10631
5.2701
5.31919
5.06526
4.78368
4.7864
4.45991
4.69345
5.34702
5.5152
4.50988
4.08352
4.57211
4.68019
4.78037
4.54295
4.26699
4.27761
4.05965
4.2711
4.87205
5.0241
4.12854
3.75787
4.16092
4.22991
4.3655
4.14461
3.8764
3.88518
3.74961
3.947
4.49716
4.64027
3.83167
3.51086
3.83768
3.88746
4.03826
3.83414
3.58452
3.58173
3.50683
3.69367
4.20233
4.34465
3.60356
3.31991
3.57925
3.6234
3.77686
3.58876
3.36365
3.34672
3.31713
3.49622
3.97413
4.11644
3.43026
3.17167
3.37363
3.41676
3.57147
3.39677
3.19614
3.16435
3.17105
3.34492
3.7983
3.93586
3.29866
3.05776
3.2118
3.25792
3.4132
3.24826
3.06897
3.02243
3.0601
3.23085
3.66125
3.78641
3.19721
2.97115
3.08653
3.13975
3.28625
3.13236
2.9726
2.91318
2.97686
3.146
3.55117
3.65597
3.1166
2.90586
2.99143
3.05168
3.18392
3.04082
2.89981
2.8314
2.91508
3.08333
3.45867
3.53684
3.04999
2.85663
2.92048
2.98502
3.10147
2.96966
2.84481
2.77237
2.8697
3.03708
3.37676
3.42503
2.99271
2.81888
2.8683
2.93341
3.03476
2.9151
2.80274
2.73191
2.83638
3.0026
3.3006
3.31925
2.94199
2.78856
2.83046
2.89242
2.98052
2.87304
2.76883
2.70271
2.81176
2.97605
3.22758
3.22004
2.89647
2.76406
2.80365
2.85997
2.93612
2.83987
2.74161
2.68087
2.79348
2.95436
3.15691
3.12872
2.85524
2.74481
2.78635
2.83429
2.89935
2.81329
2.7201
2.66294
2.77984
2.93536
3.08897
3.04653
2.81805
2.72973
2.77379
2.81403
2.86882
2.79213
2.70353
2.64848
2.76957
2.91736
3.02493
2.97484
2.785
2.71801
2.76535
2.79818
2.84362
2.77555
2.69122
2.63756
2.76167
2.89919
2.96614
2.91428
2.75634
2.70925
2.76039
2.78607
2.82288
2.76293
2.6826
2.63015
2.75528
2.88012
2.9137
2.86339
2.73222
2.70327
2.75831
2.77718
2.80572
2.75379
2.67728
2.62584
2.74963
2.85991
2.86761
2.82085
2.71262
2.6999
2.75872
2.77113
2.79156
2.74774
2.67499
2.62432
2.74406
2.83875
2.82702
2.78661
2.69654
2.699
2.76132
2.76767
2.78013
2.7444
2.67548
2.62535
2.73805
2.81697
2.79158
2.76054
2.6854
2.70034
2.76594
2.76655
2.77116
2.74343
2.67856
2.62875
2.73129
2.79471
2.76143
2.74237
2.67959
2.70378
2.77263
2.76752
2.76441
2.74446
2.68409
2.63429
2.72365
2.77222
2.73662
2.73158
2.67844
2.70906
2.78122
2.77024
2.75959
2.74722
2.69221
2.64173
2.71503
2.74998
2.71709
2.72755
2.6812
2.71589
2.79011
2.77404
2.75645
2.75135
2.70283
2.65088
2.70579
2.72848
2.70261
2.72931
2.68709
2.72387
2.79845
2.77795
2.75471
2.7565
2.71492
2.66217
2.69625
2.70818
2.69279
2.73593
2.69533
2.73262
2.80528
2.78108
2.75406
2.7624
2.72794
2.67453
2.68667
2.68954
2.68716
2.74634
2.70516
2.74154
2.80956
2.78271
2.75415
2.76879
2.74104
2.68639
2.67732
2.67304
2.68509
2.75886
2.71584
2.75045
2.81034
2.78236
2.75461
2.77546
2.75356
2.69703
2.66846
2.659
2.68582
2.7714
2.72676
2.7588
2.80682
2.77955
2.75506
2.78222
2.76671
2.70594
2.6604
2.64753
2.68851
2.78199
2.73693
2.76617
2.79768
2.77395
2.75521
2.78896
2.78043
2.71248
2.65344
2.63811
2.69219
2.78928
2.74588
2.77215
2.78483
2.76573
2.75488
2.79563
2.79421
2.71571
156509
156509
156509
156509
156509
156509
156509
156509
156509
156509
156509
156509
25886.8
25887.6
25880.8
25879.2
25879.9
25882.4
25885.6
25885.5
25882.4
25879
25884
25885.3
8929.18
8929.69
8924.2
8923
8923.84
8926.27
8928.93
8928.46
8925.77
8923.19
8927.43
8928.5
4299.72
4299.85
4295.52
4294.65
4295.71
4298.34
4300.55
4299.58
4297.16
4295.35
4298.97
4300
2513.36
2513.11
2509.55
2508.9
2510.27
2513.34
2515.26
2513.76
2511.4
2510.13
2513.42
2514.62
1670.95
1670.33
1667.29
1666.78
1668.45
1672.03
1673.78
1671.8
1669.41
1668.48
1671.57
1673.09
1219.89
1218.96
1216.28
1215.82
1217.73
1221.79
1223.43
1221.08
1218.66
1217.89
1220.81
1222.75
956.216
955.053
952.63
952.106
954.139
958.591
960.161
957.6
955.182
954.424
957.156
959.549
791.183
789.895
787.641
787.026
789.044
793.729
795.267
792.638
790.279
789.409
791.951
794.738
681.856
680.551
678.404
677.594
679.514
684.32
685.825
683.275
681.036
679.979
682.29
685.368
605.599
604.377
602.301
601.214
602.985
607.806
609.257
606.906
604.841
603.571
605.609
608.833
549.735
548.682
546.66
545.251
546.86
551.588
552.947
550.887
549.042
547.578
549.308
552.509
506.811
505.996
504.031
502.296
503.76
508.28
509.498
507.801
506.208
504.603
505.999
509.009
472.265
471.744
469.845
467.82
469.173
473.365
474.39
473.11
471.792
470.12
471.167
473.831
443.202
443.016
441.201
438.956
440.231
443.969
444.76
443.94
442.912
441.249
441.945
444.133
417.728
417.905
416.195
413.822
415.043
418.198
418.727
418.408
417.681
416.099
416.441
418.05
394.569
395.126
393.546
391.151
392.319
394.765
395.024
395.242
394.826
393.382
393.372
394.325
372.766
373.689
372.378
370.068
371.162
372.778
372.781
373.573
373.473
372.207
371.844
372.065
351.721
353.022
352.027
349.966
350.947
351.513
351.304
352.714
352.921
351.951
351.239
350.568
331.05
332.687
332.062
330.393
331.099
330.57
330.157
332.252
332.783
332.067
330.995
329.4
310.522
312.462
312.277
310.98
311.363
309.684
309.194
311.936
312.804
312.303
310.834
308.426
289.979
292.188
292.505
291.584
291.541
288.735
288.271
291.648
292.82
292.51
290.555
287.506
269.359
271.801
272.672
272.211
271.593
267.665
267.333
271.32
272.76
272.601
270.191
266.57
248.676
251.311
252.774
252.811
251.487
246.486
246.392
250.95
252.616
252.563
249.724
245.623
227.995
230.78
232.862
233.396
231.255
225.267
225.512
230.587
232.437
232.436
229.193
224.723
207.415
210.308
213.019
214.021
210.979
204.116
204.789
210.314
212.307
212.302
208.682
203.966
187.057
190.015
193.351
194.773
190.775
183.164
184.334
190.231
192.332
192.268
188.301
183.468
167.043
170.023
173.969
175.751
170.778
162.541
164.258
170.443
172.627
172.45
168.173
163.353
147.508
150.456
154.977
157.06
151.122
142.39
144.681
151.051
153.3
152.966
148.425
143.751
128.881
131.629
136.517
138.806
131.978
123.185
126.042
132.311
134.529
133.995
129.347
124.983
111.834
114.253
119.135
121.296
113.94
105.614
108.979
114.956
116.991
116.218
111.679
107.714
96.318
98.5712
103.249
105.123
97.5123
89.85
93.4803
99.2329
101.041
100.022
95.6641
92.1327
82.2499
84.4053
88.9129
90.4667
82.7644
75.8567
79.5647
84.968
86.6506
85.438
81.3076
78.2202
69.6336
71.6796
76.0657
77.3197
69.6719
63.5301
67.2452
72.1772
73.6936
72.427
68.5673
65.9198
58.5159
60.4078
64.6534
65.6371
58.1894
52.7915
56.4468
60.8979
62.1681
60.9393
57.3908
55.1666
48.8527
50.5995
54.6225
55.3676
48.2582
43.5469
47.0954
51.0578
52.0794
50.9214
47.7169
45.8895
40.5816
42.1795
45.9111
46.4504
39.8003
35.6971
39.1097
42.5834
43.3805
42.3101
39.47
38.0012
33.5806
35.0205
38.4027
38.7674
32.638
29.1793
32.3532
35.3752
35.9883
34.9932
32.4797
31.29
27.6077
28.8911
31.9002
32.1231
26.5641
23.7293
26.5832
29.1895
29.6562
28.7319
26.5308
25.5781
22.5656
23.6928
26.3279
26.4477
21.5214
19.2149
21.7128
23.9136
24.2658
23.429
21.5596
20.8364
18.4455
19.4106
21.6772
21.7284
17.4463
15.5938
17.7401
19.5644
19.8344
19.0849
17.5184
16.9817
15.1193
15.9254
17.8458
17.8587
14.1992
12.7307
14.5413
16.0294
16.2424
15.5758
14.2764
13.8853
12.4609
13.1189
14.7264
14.7261
11.6432
10.4894
11.9913
13.1891
13.3655
12.7762
11.7051
11.4225
10.3521
10.8791
12.2136
12.2194
9.65081
8.74617
9.97316
10.9283
11.0842
10.5657
9.68433
9.4783
8.6878
9.10436
10.2079
10.2334
8.10821
7.39342
8.38332
9.14193
9.28867
8.83436
8.10665
7.95165
7.3778
7.70511
8.61916
8.67256
6.91806
6.33994
7.13472
7.73731
7.88236
7.48563
6.87997
6.75674
6.34757
6.60539
7.36808
7.45293
6.00005
5.50759
6.15571
6.63593
6.78367
6.43781
5.92793
5.823
5.53731
5.74251
6.38714
6.50304
5.29021
4.86168
5.3883
5.77233
5.92627
5.62373
5.189
5.09365
4.9
5.06615
5.62044
5.76347
4.73907
4.36566
4.78638
5.09087
5.25758
4.98967
4.61437
4.52284
4.39889
4.53661
5.02297
5.18826
4.3099
3.98498
4.31345
4.55162
4.7381
4.49489
4.16482
4.07013
4.00521
4.12291
4.55925
4.73198
3.97345
3.69156
3.942
4.13406
4.3353
4.11023
3.81164
3.71644
3.6971
3.80106
4.20108
4.36504
3.70739
3.46334
3.65149
3.81508
4.01712
3.80954
3.53933
3.444
3.45781
3.55242
3.92238
4.07445
3.49799
3.28496
3.42147
3.57262
3.7634
3.57247
3.3314
3.23566
3.27364
3.3619
3.70118
3.84598
3.33467
3.1458
3.24031
3.38596
3.56457
3.38724
3.17346
3.07795
3.13312
3.21709
3.52655
3.66486
3.20702
3.03744
3.1024
3.24099
3.4125
3.24495
3.05401
2.96003
3.02674
3.10807
3.39155
3.5178
3.10626
2.95314
3.00095
3.12979
3.29418
3.13702
2.96359
2.87288
2.94647
3.02654
3.28702
3.39463
3.02576
2.88803
2.92811
3.04673
3.19997
3.05541
2.89475
2.80879
2.88607
2.96514
3.20376
3.28792
2.95992
2.83792
2.87671
2.98336
3.12305
2.99303
2.84219
2.76149
2.84192
2.92069
3.13401
3.19287
2.90438
2.79952
2.84085
2.93359
3.05885
2.94452
2.80256
2.72627
2.81024
2.88921
3.0722
3.10697
2.85605
2.77088
2.81611
2.89436
3.00443
2.9056
2.77176
2.70002
2.78797
2.86679
3.015
3.02937
2.8133
2.74926
2.79984
2.86303
2.95816
2.87371
2.74789
2.68072
2.77259
2.85005
2.96103
2.96022
2.77617
2.73223
2.78842
2.83779
2.91938
2.84761
2.72978
2.66681
2.76195
2.83635
2.91024
2.90002
2.74442
2.71889
2.78141
2.8174
2.88727
2.82637
2.71622
2.65745
2.75442
2.82352
2.86345
2.84803
2.71814
2.70878
2.77795
2.80131
2.8605
2.80934
2.70619
2.65166
2.74881
2.81047
2.82118
2.8032
2.69698
2.7016
2.77742
2.78878
2.83813
2.79611
2.69915
2.64875
2.74421
2.79663
2.78259
2.76522
2.68067
2.6971
2.77935
2.77906
2.81981
2.78638
2.69479
2.64832
2.73992
2.78187
2.74618
2.73306
2.66916
2.69514
2.78338
2.77215
2.80526
2.7799
2.69293
2.65006
2.73546
2.7663
2.71358
2.70811
2.66332
2.69555
2.78908
2.76803
2.79412
2.77637
2.69338
2.65379
2.73048
2.7499
2.68561
2.69071
2.66135
2.69813
2.79595
2.76659
2.786
2.77541
2.69604
2.65925
2.72482
2.73274
2.66272
2.68063
2.66218
2.70261
2.803
2.76746
2.78045
2.77656
2.70065
2.66617
2.71842
2.71515
2.64511
2.67747
2.66584
2.70872
2.80933
2.77019
2.77702
2.7793
2.70662
2.67416
2.7114
2.69761
2.63257
2.68038
2.67216
2.7161
2.81521
2.77428
2.77528
2.78312
2.71344
2.68257
2.70362
2.68039
2.6247
2.68857
2.68083
2.72435
2.81988
2.7792
2.77486
2.78755
2.7217
2.68993
2.69523
2.6632
2.62102
2.70125
2.69138
2.73301
2.82243
2.78418
2.7754
2.79218
2.73125
2.69621
2.68655
2.6478
2.62099
2.71723
2.70322
2.74143
2.82199
2.78807
2.7766
2.79675
2.74192
2.70203
2.67795
2.63535
2.62398
2.7348
2.71562
2.74882
2.81783
2.78952
2.77816
2.80115
2.75343
2.70715
2.66971
2.62564
2.62929
2.75209
2.72789
2.75463
2.80958
2.78855
2.77982
2.80532
2.76539
2.71126
2.66202
2.6184
2.63613
2.76744
2.73939
2.75844
2.79734
2.78414
2.78123
2.80931
2.7774
2.71411
2.65502
2.61382
2.64373
2.77937
2.74964
2.75996
2.78154
2.77612
2.78199
2.81324
2.78915
2.71568
156509
156509
156509
156509
156509
156509
156509
156509
156509
156509
156509
156509
25866.9
25867.9
25862.2
25860.1
25860.3
25863.6
25866.9
25866.2
25863.7
25860.6
25865.1
25866.1
8660.62
8661.9
8658.76
8657.09
8656.29
8659.43
8662.3
8661.72
8660.2
8656.15
8659.7
8664.08
4212.7
4213.04
4209.76
4208.48
4208.95
4212.31
4214.62
4213.42
4211.52
4209.2
4212.38
4214.6
2480.4
2480.21
2477.16
2476.07
2477.21
2480.99
2482.98
2481.3
2479.25
2477.64
2480.58
2482.42
1658.81
1658.27
1655.41
1654.38
1656
1660.23
1661.99
1659.97
1657.81
1656.56
1659.33
1661.27
1217.01
1216.25
1213.52
1212.43
1214.41
1219.01
1220.58
1218.36
1216.17
1215.06
1217.68
1219.85
957.6
956.726
954.063
952.826
955.053
959.888
961.279
959.014
956.878
955.786
958.23
960.608
794.773
793.91
791.271
789.819
792.2
797.127
798.325
796.16
794.145
793.012
795.258
797.725
686.51
685.759
683.13
681.426
683.899
688.773
689.758
687.803
685.97
684.785
686.81
689.206
610.63
610.066
607.457
605.503
608.038
612.723
613.468
611.802
610.19
608.983
610.771
612.93
554.7
554.376
551.813
549.651
552.243
556.61
557.091
555.764
554.391
553.221
554.77
556.539
511.418
511.361
508.883
506.593
509.244
513.168
513.371
512.413
511.283
510.216
511.533
512.791
476.313
476.531
474.184
471.873
474.575
477.937
477.866
477.296
476.403
475.502
476.596
477.257
446.545
447.03
444.873
442.657
445.38
448.066
447.744
447.58
446.917
446.23
447.103
447.113
420.247
420.979
419.082
417.084
419.76
421.66
421.139
421.398
420.959
420.513
421.155
420.49
396.154
397.106
395.555
393.89
396.412
397.432
396.78
397.483
397.267
397.065
397.446
396.109
373.482
374.657
373.426
372.199
374.421
374.462
373.792
374.957
374.964
374.991
375.063
373.082
351.638
353.05
352.176
351.4
353.145
352.272
351.65
353.332
353.577
353.668
353.366
350.877
330.239
331.866
331.409
331.065
332.294
330.419
329.917
332.14
332.623
332.817
332.111
329.138
309.117
310.773
310.908
310.992
311.544
308.616
308.334
311.1
311.813
312.098
310.946
307.501
287.966
289.669
290.422
290.945
290.681
286.753
286.785
290.083
291.013
291.316
289.673
285.851
266.787
268.538
269.921
270.843
269.642
264.821
265.25
269.056
270.186
270.429
268.245
264.167
245.638
247.433
249.439
250.684
248.462
242.896
243.786
248.059
249.368
249.471
246.709
242.509
224.632
226.461
229.062
230.526
227.245
221.115
222.503
227.192
228.656
228.543
225.185
220.995
203.914
205.773
208.916
210.479
206.151
199.664
201.556
206.595
208.186
207.793
203.843
199.791
183.655
185.543
189.154
190.691
185.383
178.749
181.123
186.438
188.125
187.404
182.895
179.092
164.036
165.958
169.944
171.338
165.166
158.583
161.387
166.902
168.652
167.578
162.572
159.104
145.232
147.197
151.457
152.609
145.736
139.351
142.518
148.165
149.943
148.521
143.108
140.032
127.398
129.422
133.854
134.697
127.319
121.181
124.645
130.38
132.156
130.419
124.717
122.051
110.681
112.763
117.273
117.783
110.103
104.147
107.843
113.668
115.417
113.428
107.57
105.308
95.2302
97.3344
101.829
102.009
94.2293
88.6713
92.3434
98.1398
99.8502
97.6793
91.8023
89.9252
81.1597
83.2359
87.615
87.4859
79.7998
74.8487
78.3656
83.8765
85.5665
83.277
77.5114
75.9906
68.5315
70.5287
74.7028
74.2963
66.878
62.664
65.942
71.0361
72.6444
70.2906
64.7543
63.5517
57.3549
59.2257
63.1257
62.4881
55.4844
52.0599
55.0479
59.6763
61.1132
58.7503
53.5421
52.612
47.5902
49.2925
52.875
52.0629
45.5835
42.9238
45.5975
49.7326
50.9511
48.6388
43.8306
43.1213
39.1543
40.657
43.8987
42.9741
37.096
35.0856
37.4404
41.0463
42.094
39.8913
35.5321
34.9956
31.9546
33.2437
36.1369
35.1664
29.9406
28.4368
30.4561
33.5623
34.4676
32.4319
28.5561
28.1569
25.9111
26.989
29.5356
28.5827
24.0291
22.9108
24.6033
27.2335
28.0134
26.1911
22.8098
22.5153
20.9254
21.8043
24.0132
23.1295
19.2361
18.4108
19.8121
21.9846
22.6524
21.0694
18.1671
17.9442
16.8718
17.5724
19.4616
18.6835
15.4126
14.8048
15.9544
17.7021
18.2711
16.9342
14.4788
14.3009
13.6231
14.17
15.7648
15.1133
12.4087
11.9564
12.8932
14.2627
14.7484
13.6478
11.595
11.4428
11.0555
11.4739
12.8052
12.2875
10.0809
9.73594
10.4956
11.543
11.9619
11.075
9.37337
9.23389
9.05261
9.36587
10.4684
10.0806
8.29812
8.02535
8.63653
9.42376
9.79311
9.08839
7.6841
7.5495
7.50849
7.73679
8.64662
8.37743
6.94507
6.72218
7.19942
7.79475
8.13065
7.57265
6.4133
6.27935
6.32943
6.48903
7.24162
7.07564
5.92441
5.74295
6.09659
6.55756
6.87408
6.42736
5.46485
5.32951
5.43546
5.53982
6.16709
6.08795
5.15661
5.02488
5.26013
5.6282
5.93612
5.56869
4.76073
4.62303
4.76049
4.82258
5.34969
5.34221
4.57838
4.48809
4.63059
4.93869
5.24384
4.9292
4.24048
4.09945
4.25145
4.28398
4.7293
4.76857
4.13958
4.07969
4.15987
4.43818
4.72838
4.44902
3.85952
3.7139
3.86692
3.88169
4.25948
4.31671
3.80039
3.76616
3.80158
4.07216
4.33469
4.08026
3.58267
3.43787
3.57151
3.58137
3.89765
3.96331
3.53783
3.52471
3.52461
3.78982
4.03321
3.79567
3.38163
3.23725
3.3434
3.35404
3.61438
3.69232
3.33834
3.33723
3.31428
3.56895
3.80689
3.57947
3.23083
3.0883
3.171
3.18092
3.39476
3.48675
3.18831
3.1912
3.16217
3.39821
3.63861
3.41764
3.11645
2.97648
3.04374
3.05067
3.22091
3.32994
3.07584
3.07836
3.05441
3.2682
3.51102
3.29692
3.02904
2.89249
2.95175
2.95252
3.08807
3.20464
2.99102
2.99118
2.97688
3.16973
3.40779
3.20565
2.96117
2.82991
2.88651
2.88223
2.98929
3.09768
2.92591
2.92351
2.92086
3.09397
3.32297
3.13466
2.90763
2.78317
2.84141
2.83302
2.91603
3.0111
2.87455
2.87053
2.88027
3.03255
3.24982
3.07811
2.8649
2.74805
2.81099
2.79956
2.86068
2.94098
2.8327
2.82887
2.85082
2.98303
3.18355
3.0314
2.83017
2.72159
2.78968
2.77556
2.81725
2.88335
2.79734
2.79594
2.82957
2.94327
3.12198
2.99132
2.80113
2.70167
2.77445
2.75785
2.78175
2.83538
2.76754
2.76996
2.8144
2.91006
3.06489
2.95619
2.77791
2.68679
2.76328
2.74438
2.75165
2.79499
2.74388
2.74934
2.80324
2.88132
3.01327
2.92524
2.75905
2.67573
2.75487
2.73365
2.72543
2.76096
2.72427
2.73308
2.79545
2.8559
2.96821
2.89811
2.74318
2.6679
2.74854
2.72455
2.70233
2.73214
2.70782
2.72049
2.79042
2.83328
2.93017
2.87451
2.72984
2.66249
2.74371
2.71655
2.682
2.70773
2.69374
2.71119
2.78769
2.81319
2.89845
2.85433
2.71896
2.65926
2.73986
2.7088
2.66391
2.68756
2.6821
2.70474
2.78692
2.79625
2.8722
2.83782
2.71049
2.65794
2.7366
2.70076
2.64813
2.67183
2.67303
2.70096
2.78784
2.78322
2.85123
2.82519
2.70433
2.65831
2.73355
2.69228
2.63604
2.66178
2.66667
2.69967
2.79022
2.77392
2.83551
2.81648
2.70051
2.66018
2.73041
2.68338
2.62641
2.65604
2.66319
2.70065
2.79376
2.76812
2.82461
2.8115
2.69899
2.66339
2.72688
2.67418
2.61882
2.65405
2.66276
2.70365
2.79815
2.76548
2.81794
2.80982
2.69968
2.6677
2.72277
2.66463
2.61306
2.65564
2.66544
2.70833
2.80301
2.76567
2.81483
2.8108
2.70243
2.67289
2.71798
2.65494
2.60897
2.66059
2.67114
2.71431
2.80784
2.76837
2.81459
2.81367
2.707
2.67862
2.71258
2.64571