/*--------------------------------*- C++ -*----------------------------------*\
| =========                 |                                                 |
| \\      /  F ield         | OpenFOAM: The Open Source CFD Toolbox           |
|  \\    /   O peration     | Version:  v1912                                 |
|   \\  /    A nd           | Website:  www.openfoam.com                      |
|    \\/     M anipulation  |                                                 |
\*---------------------------------------------------------------------------*/
FoamFile
{
    version     2.0;
    format      ascii;
    class       volScalarField;
    location    "8.4";
    object      T;
}
// * * * * * * * * * * * * * * * * * * * * * * * * * * * * * * * * * * * * * //

dimensions      [0 0 0 1 0 0 0];


internalField   nonuniform List<scalar> 
34128
(
371.823
371.822
371.857
371.858
371.849
371.843
371.831
371.828
371.847
371.866
371.843
371.834
369.458
369.454
369.557
369.564
369.538
369.517
369.481
369.473
369.53
369.585
369.515
369.489
367.061
367.052
367.224
367.24
367.201
367.162
367.098
367.089
367.18
367.271
367.151
367.11
364.643
364.625
364.863
364.897
364.85
364.784
364.69
364.684
364.806
364.927
364.759
364.707
362.219
362.193
362.487
362.545
362.499
362.397
362.27
362.275
362.421
362.567
362.354
362.297
359.818
359.783
360.118
360.208
360.167
360.02
359.863
359.886
360.049
360.21
359.961
359.907
357.474
357.435
357.789
357.911
357.881
357.683
357.502
357.55
357.721
357.886
357.617
357.576
355.231
355.192
355.541
355.693
355.673
355.426
355.232
355.307
355.476
355.633
355.365
355.345
353.133
353.1
353.421
353.594
353.579
353.293
353.101
353.2
353.36
353.496
353.249
353.258
351.221
351.2
351.472
351.654
351.635
351.33
351.155
351.271
351.415
351.518
351.309
351.349
349.526
349.518
349.733
349.907
349.875
349.575
349.43
349.553
349.679
349.741
349.577
349.647
348.065
348.07
348.226
348.379
348.326
348.053
347.945
348.067
348.176
348.195
348.072
348.165
346.838
346.853
346.957
347.076
347
346.77
346.702
346.817
346.911
346.891
346.799
346.901
345.833
345.853
345.919
345.999
345.904
345.724
345.69
345.795
345.878
345.827
345.755
345.852
345.036
345.056
345.097
345.138
345.035
344.904
344.893
344.988
345.063
344.993
344.929
345.01
344.422
344.44
344.467
344.476
344.377
344.286
344.288
344.372
344.44
344.364
344.303
344.36
343.967
343.98
344
343.988
343.903
343.843
343.849
343.921
343.979
343.908
343.851
343.882
343.641
343.65
343.665
343.642
343.578
343.541
343.545
343.604
343.65
343.59
343.54
343.55
343.418
343.422
343.433
343.408
343.367
343.345
343.346
343.39
343.423
343.377
343.337
343.335
343.271
343.272
343.276
343.255
343.234
343.223
343.223
343.252
343.273
343.24
343.211
343.204
343.18
343.177
343.175
343.16
343.153
343.151
343.151
343.168
343.179
343.156
343.137
343.131
343.125
343.12
343.113
343.103
343.105
343.11
343.11
343.119
343.123
343.107
343.095
343.092
343.094
343.086
343.077
343.071
343.077
343.085
343.086
343.091
343.091
343.08
343.071
343.072
343.076
343.067
343.057
343.054
343.061
343.069
343.071
343.074
343.074
343.065
343.058
343.061
343.065
343.057
343.048
343.046
343.052
343.059
343.061
343.064
343.064
343.056
343.049
343.054
343.057
343.05
343.043
343.042
343.046
343.05
343.052
343.055
343.056
343.049
343.043
343.049
343.049
343.045
343.04
343.039
343.041
343.042
343.044
343.048
343.049
343.043
343.038
343.044
343.042
343.039
343.036
343.036
343.036
343.035
343.036
343.04
343.042
343.037
343.033
343.039
343.035
343.034
343.032
343.032
343.03
343.028
343.029
343.033
343.034
343.03
343.028
343.034
343.028
343.028
343.027
343.027
343.024
343.021
343.023
343.026
343.027
343.024
343.024
343.028
343.021
343.022
343.022
343.022
343.018
343.015
343.017
343.02
343.021
343.019
343.019
343.022
343.016
343.017
343.017
343.016
343.013
343.011
343.012
343.014
343.015
343.014
343.015
343.017
343.011
343.013
343.012
343.012
343.009
343.007
343.008
343.01
343.01
343.01
343.011
343.012
343.008
343.009
343.009
343.008
343.005
343.004
343.005
343.007
343.007
343.007
343.008
343.008
343.005
343.006
343.006
343.005
343.003
343.002
343.003
343.004
343.004
343.004
343.005
343.005
343.003
343.004
343.004
343.003
343.001
343.001
343.002
343.002
343.002
343.003
343.003
343.003
343.002
343.002
343.002
343.001
343
343
343.001
343.001
343.001
343.002
343.002
343.002
343.001
343.001
343.001
343
343
343
343
343
343
343.001
343.001
343.001
343
343
343
343
342.999
343
343
343
343
343
343
343
343
343
343
342.999
342.999
342.999
342.999
342.999
343
343
343
342.999
343
342.999
342.999
342.999
342.999
342.999
342.999
342.999
342.999
343
342.999
342.999
343
342.999
342.999
342.999
342.999
342.999
342.999
342.999
342.999
342.999
342.999
342.999
343
342.999
342.999
342.999
342.999
342.999
342.999
342.999
342.999
342.999
342.999
342.999
343
342.999
342.999
342.999
342.999
343
342.999
342.999
342.999
342.999
342.999
342.999
343
342.999
342.999
342.999
342.999
343
342.999
342.999
342.999
342.999
342.999
342.999
343
342.999
342.999
342.999
342.999
343
342.999
342.999
342.999
342.999
342.999
342.999
343
342.999
342.999
342.999
343
343
343
342.999
343
343
342.999
342.999
343
342.999
342.999
342.999
343
343
343
343
343
343
343
342.999
343
342.999
342.999
342.999
343
343
343
343
343
343
343
343
343
342.999
342.999
342.999
343
343
343
343
343
343
343
343
343
343
342.999
342.999
343
343
343
343
343
343
343
343
343
343
342.999
343
343
343
343
343
343
343
343
343
343
343
343
343
343
343
343
343
343
343
343
343
343
343
343
343
343
343
343
343
343
343
343
343
343
343
343
343
343
343
343
343
343
343
343
343
343
343
343
343
343
343
343
343
343
343
343
343
343
343
343
343
343
343
343
343
343
343
343
343
343
343
343
343
343
343
343
343
343
343
343
343
343
343
343
343
343
343
343
343
343
343
343
343
343
343
343
343
343
343
343
343
343
343
343
343
343
343
343
343
343
343
343
343
343
343
343
343
343
343
343
343
343
343
343
343
343
343
343
343
343
343
343
343
343
343
343
343
343
343
343
343
343
343
343
343
343
343
343
343
343
343
343
343
343
343
343
343
343
343
343
343
343
343
343
343
343
343
343
343
343
343
343
343
343
343
343
343
343
343
343
343
343
343
343
343
343
343
343
343
343
343
343
343
343
343
343
343
343
343
343
343
343
343
343
343
343
343
343
343
343
343
343
343
343
343
343
343
343
343
343
343
343
343
343
343
343
343
343
343
343
343
343
343
343
343
343
343
343
343
343
343
343
343
343
343
343
343
343
343
343
343
343
343
343
343
343
343
343
343
343
343
343
343
343
343
343
343
343
343
343
343
343
343
343
343
343
343
343
343
343
343
343
343
343
343
343
343
343
343
343
343
343
343
343
343
343
343
343
343
343
343
343
343
343
343
343
343
343
343
343
343
343
343
343
343
343
343
343
343
343
343
343
343
343
343
343
343
343
343
343
343
343
343
371.8
371.797
371.831
371.835
371.828
371.82
371.806
371.804
371.821
371.839
371.815
371.808
369.39
369.38
369.48
369.493
369.476
369.449
369.406
369.402
369.452
369.505
369.432
369.411
366.949
366.932
367.096
367.123
367.098
367.046
366.973
366.971
367.052
367.137
367.016
366.984
364.492
364.466
364.686
364.734
364.705
364.619
364.516
364.523
364.629
364.741
364.575
364.537
362.038
362.005
362.266
362.34
362.313
362.185
362.052
362.076
362.202
362.333
362.13
362.093
359.614
359.578
359.862
359.965
359.943
359.764
359.608
359.656
359.795
359.933
359.707
359.678
357.257
357.222
357.508
357.638
357.619
357.391
357.22
357.296
357.441
357.575
357.342
357.33
355.007
354.978
355.244
355.394
355.373
355.104
354.932
355.035
355.18
355.295
355.074
355.085
352.903
352.887
353.116
353.275
353.242
352.948
352.789
352.915
353.055
353.14
352.943
352.982
350.983
350.983
351.167
351.319
351.266
350.966
350.834
350.973
351.108
351.154
350.987
351.051
349.276
349.291
349.43
349.562
349.48
349.197
349.098
349.243
349.373
349.376
349.238
349.32
347.799
347.827
347.93
348.03
347.918
347.666
347.601
347.746
347.874
347.838
347.72
347.808
346.556
346.594
346.672
346.735
346.598
346.386
346.348
346.49
346.616
346.551
346.443
346.523
345.54
345.584
345.65
345.677
345.529
345.354
345.335
345.47
345.593
345.514
345.41
345.47
344.739
344.786
344.848
344.846
344.7
344.559
344.548
344.672
344.788
344.708
344.609
344.643
344.13
344.178
344.239
344.219
344.089
343.973
343.964
344.073
344.176
344.107
344.017
344.026
343.687
343.734
343.793
343.765
343.658
343.563
343.553
343.642
343.727
343.676
343.602
343.594
343.379
343.424
343.478
343.451
343.369
343.292
343.28
343.348
343.413
343.381
343.327
343.309
343.177
343.218
343.264
343.243
343.183
343.123
343.112
343.158
343.203
343.188
343.154
343.136
343.054
343.09
343.126
343.112
343.069
343.024
343.016
343.045
343.073
343.07
343.053
343.038
342.987
343.015
343.043
343.035
343.004
342.972
342.968
342.984
342.999
343.003
342.997
342.988
342.955
342.977
342.998
342.993
342.971
342.949
342.948
342.956
342.964
342.971
342.971
342.966
342.945
342.962
342.978
342.975
342.958
342.944
342.945
342.948
342.951
342.958
342.961
342.959
342.947
342.96
342.973
342.971
342.957
342.948
342.95
342.95
342.951
342.957
342.96
342.96
342.955
342.964
342.975
342.973
342.963
342.956
342.958
342.957
342.956
342.961
342.964
342.965
342.963
342.971
342.98
342.979
342.971
342.966
342.967
342.965
342.963
342.967
342.971
342.972
342.971
342.978
342.985
342.984
342.978
342.974
342.975
342.973
342.971
342.973
342.978
342.978
342.978
342.983
342.989
342.988
342.984
342.981
342.982
342.979
342.977
342.979
342.983
342.983
342.984
342.987
342.991
342.991
342.987
342.986
342.986
342.985
342.982
342.984
342.987
342.986
342.988
342.99
342.993
342.993
342.99
342.989
342.99
342.988
342.987
342.988
342.99
342.988
342.991
342.992
342.994
342.994
342.992
342.992
342.992
342.991
342.99
342.991
342.992
342.99
342.993
342.993
342.995
342.995
342.993
342.993
342.994
342.993
342.992
342.993
342.993
342.991
342.995
342.994
342.996
342.996
342.994
342.995
342.995
342.995
342.994
342.995
342.994
342.992
342.996
342.995
342.996
342.997
342.995
342.996
342.996
342.996
342.995
342.996
342.995
342.994
342.997
342.996
342.997
342.998
342.996
342.997
342.997
342.997
342.996
342.997
342.996
342.995
342.998
342.997
342.997
342.998
342.997
342.997
342.997
342.997
342.997
342.998
342.997
342.996
342.998
342.997
342.998
342.998
342.998
342.998
342.998
342.998
342.998
342.998
342.997
342.996
342.999
342.998
342.998
342.999
342.998
342.998
342.998
342.998
342.998
342.999
342.998
342.997
342.999
342.998
342.998
342.999
342.999
342.999
342.999
342.998
342.998
342.999
342.998
342.998
342.999
342.998
342.998
342.999
342.999
342.999
342.999
342.999
342.999
342.999
342.998
342.998
342.999
342.999
342.998
342.999
342.999
342.999
342.999
342.999
342.999
342.999
342.999
342.998
342.999
342.999
342.998
342.999
342.999
342.999
342.999
342.999
342.999
342.999
342.999
342.999
342.999
342.999
342.999
342.999
342.999
342.999
342.999
342.999
342.999
342.999
342.999
342.999
342.999
342.999
342.999
342.999
342.999
342.999
342.999
342.999
342.999
342.999
342.999
342.999
342.999
342.999
342.999
342.999
342.999
343
342.999
342.999
342.999
342.999
342.999
342.999
342.999
342.999
342.999
342.999
342.999
343
342.999
342.999
342.999
342.999
342.999
342.999
342.999
342.999
342.999
342.999
343
343
342.999
342.999
342.999
342.999
342.999
342.999
343
342.999
342.999
342.999
343
343
343
342.999
342.999
342.999
343
342.999
343
342.999
342.999
342.999
343
343
343
343
343
343
343
343
343
342.999
342.999
342.999
343
343
343
343
343
343
343
343
343
343
342.999
342.999
343
343
343
343
343
343
343
343
343
343
342.999
343
343
343
343
343
343
343
343
343
343
343
343
343
343
343
343
343
343
343
343
343
343
343
343
343
343
343
343
343
343
343
343
343
343
343
343
343
343
343
343
343
343
343
343
343
343
343
343
343
343
343
343
343
343
343
343
343
343
343
343
343
343
343
343
343
343
343
343
343
343
343
343
343
343
343
343
343
343
343
343
343
343
343
343
343
343
343
343
343
343
343
343
343
343
343
343
343
343
343
343
343
343
343
343
343
343
343
343
343
343
343
343
343
343
343
343
343
343
343
343
343
343
343
343
343
343
343
343
343
343
343
343
343
343
343
343
343
343
343
343
343
343
343
343
343
343
343
343
343
343
343
343
343
343
343
343
343
343
343
343
343
343
343
343
343
343
343
343
343
343
343
343
343
343
343
343
343
343
343
343
343
343
343
343
343
343
343
343
343
343
343
343
343
343
343
343
343
343
343
343
343
343
343
343
343
343
343
343
343
343
343
343
343
343
343
343
343
343
343
343
343
343
343
343
343
343
343
343
343
343
343
343
343
343
343
343
343
343
343
343
343
343
343
343
343
343
343
343
343
343
343
343
343
343
343
343
343
343
343
343
343
343
343
343
343
343
343
343
343
343
343
343
343
343
343
343
343
343
343
343
343
343
343
343
343
343
343
343
343
343
343
343
343
343
343
343
343
343
343
343
343
343
343
343
343
343
343
343
343
343
343
343
343
343
343
343
343
343
343
343
343
343
343
343
343
343
343
343
343
343
343
343
343
371.756
371.752
371.787
371.795
371.791
371.779
371.763
371.763
371.779
371.796
371.771
371.764
369.258
369.246
369.347
369.373
369.361
369.323
369.276
369.279
369.324
369.374
369.3
369.282
366.732
366.713
366.874
366.921
366.905
366.832
366.755
366.766
366.838
366.917
366.797
366.77
364.192
364.167
364.377
364.45
364.432
364.316
364.21
364.237
364.331
364.431
364.273
364.244
361.659
361.632
361.875
361.977
361.957
361.792
361.662
361.712
361.822
361.934
361.748
361.725
359.167
359.144
359.399
359.527
359.504
359.287
359.141
359.219
359.342
359.452
359.254
359.244
356.754
356.741
356.988
357.137
357.103
356.84
356.691
356.798
356.927
357.021
356.826
356.837
354.467
354.469
354.691
354.847
354.794
354.498
354.361
354.494
354.626
354.69
354.511
354.544
352.352
352.37
352.557
352.707
352.624
352.316
352.202
352.353
352.487
352.513
352.354
352.406
350.447
350.482
350.632
350.759
350.641
350.342
350.258
350.421
350.555
350.54
350.399
350.462
348.782
348.829
348.948
349.04
348.889
348.616
348.561
348.729
348.865
348.812
348.683
348.742
347.369
347.425
347.522
347.573
347.401
347.162
347.13
347.298
347.432
347.354
347.229
347.27
346.206
346.265
346.349
346.362
346.185
345.982
345.964
346.124
346.253
346.165
346.042
346.055
345.278
345.337
345.413
345.397
345.232
345.064
345.05
345.196
345.313
345.23
345.112
345.096
344.565
344.621
344.688
344.656
344.519
344.381
344.366
344.491
344.588
344.521
344.418
344.376
344.04
344.089
344.145
344.109
344.007
343.898
343.88
343.978
344.052
344.006
343.923
343.867
343.671
343.711
343.752
343.72
343.654
343.572
343.553
343.623
343.672
343.646
343.587
343.529
343.424
343.452
343.477
343.454
343.418
343.362
343.346
343.39
343.417
343.406
343.369
343.318
343.267
343.284
343.293
343.279
343.266
343.233
343.221
343.245
343.256
343.255
343.232
343.194
343.175
343.18
343.178
343.17
343.172
343.157
343.15
343.161
343.163
343.163
343.15
343.124
343.123
343.12
343.11
343.106
343.117
343.115
343.111
343.115
343.112
343.112
343.102
343.087
343.096
343.087
343.074
343.072
343.086
343.092
343.091
343.091
343.088
343.083
343.075
343.069
343.082
343.07
343.057
343.055
343.07
343.08
343.079
343.078
343.076
343.068
343.06
343.061
343.073
343.062
343.05
343.048
343.062
343.071
343.071
343.07
343.069
343.059
343.052
343.057
343.066
343.058
343.046
343.045
343.056
343.064
343.063
343.064
343.064
343.053
343.048
343.054
343.06
343.053
343.044
343.043
343.05
343.056
343.056
343.057
343.058
343.048
343.044
343.051
343.052
343.048
343.041
343.039
343.044
343.047
343.047
343.05
343.051
343.043
343.04
343.046
343.045
343.042
343.037
343.035
343.036
343.037
343.039
343.042
343.044
343.038
343.035
343.039
343.037
343.035
343.032
343.031
343.029
343.028
343.03
343.034
343.036
343.033
343.029
343.032
343.03
343.029
343.027
343.026
343.022
343.02
343.023
343.026
343.029
343.027
343.023
343.025
343.023
343.022
343.022
343.021
343.016
343.014
343.016
343.019
343.022
343.022
343.018
343.019
343.017
343.017
343.017
343.016
343.011
343.009
343.011
343.014
343.016
343.017
343.013
343.014
343.013
343.012
343.013
343.012
343.007
343.006
343.007
343.009
343.011
343.012
343.009
343.009
343.009
343.009
343.009
343.009
343.005
343.004
343.004
343.006
343.007
343.008
343.007
343.006
343.006
343.006
343.006
343.006
343.003
343.002
343.003
343.003
343.004
343.006
343.004
343.004
343.004
343.004
343.004
343.004
343.001
343.001
343.001
343.002
343.002
343.003
343.003
343.002
343.002
343.002
343.002
343.002
343
343
343
343.001
343.001
343.002
343.001
343.001
343.001
343.001
343.001
343.001
343
343
343
343
343
343.001
343.001
343
343
343
343
343
342.999
343
343
343
343
343
343
343
343
343
343
342.999
342.999
342.999
342.999
342.999
342.999
343
343
343
343
343
342.999
342.999
342.999
342.999
342.999
342.999
342.999
342.999
343
342.999
343
342.999
342.999
342.999
342.999
342.999
342.999
342.999
342.999
342.999
342.999
342.999
342.999
342.999
342.999
342.999
342.999
342.999
342.999
342.999
342.999
342.999
342.999
342.999
342.999
342.999
342.999
342.999
342.999
343
342.999
342.999
342.999
342.999
342.999
342.999
342.999
342.999
342.999
342.999
342.999
343
342.999
342.999
342.999
342.999
342.999
342.999
342.999
342.999
342.999
342.999
342.999
343
342.999
342.999
342.999
342.999
342.999
342.999
342.999
342.999
342.999
342.999
342.999
343
343
342.999
342.999
342.999
343
343
343
342.999
342.999
342.999
343
343
343
342.999
342.999
343
343
343
343
342.999
342.999
342.999
343
343
343
343
343
343
343
343
343
342.999
342.999
342.999
343
343
343
343
343
343
343
343
343
343
342.999
342.999
343
343
343
343
343
343
343
343
343
343
342.999
343
343
343
343
343
343
343
343
343
343
343
343
343
343
343
343
343
343
343
343
343
343
343
343
343
343
343
343
343
343
343
343
343
343
343
343
343
343
343
343
343
343
343
343
343
343
343
343
343
343
343
343
343
343
343
343
343
343
343
343
343
343
343
343
343
343
343
343
343
343
343
343
343
343
343
343
343
343
343
343
343
343
343
343
343
343
343
343
343
343
343
343
343
343
343
343
343
343
343
343
343
343
343
343
343
343
343
343
343
343
343
343
343
343
343
343
343
343
343
343
343
343
343
343
343
343
343
343
343
343
343
343
343
343
343
343
343
343
343
343
343
343
343
343
343
343
343
343
343
343
343
343
343
343
343
343
343
343
343
343
343
343
343
343
343
343
343
343
343
343
343
343
343
343
343
343
343
343
343
343
343
343
343
343
343
343
343
343
343
343
343
343
343
343
343
343
343
343
343
343
343
343
343
343
343
343
343
343
343
343
343
343
343
343
343
343
343
343
343
343
343
343
343
343
343
343
343
343
343
343
343
343
343
343
343
343
343
343
343
343
343
343
343
343
343
343
343
343
343
343
343
343
343
343
343
343
343
343
343
343
343
343
343
343
343
343
343
343
343
343
343
343
343
343
343
343
343
343
343
343
343
343
343
343
343
343
343
343
343
343
343
343
343
343
343
343
343
343
343
343
343
343
343
343
343
343
343
343
343
343
343
343
343
343
343
343
343
343
343
343
343
343
343
343
343
343
343
343
343
343
343
343
343
371.73
371.726
371.755
371.765
371.764
371.748
371.732
371.735
371.748
371.763
371.74
371.736
369.181
369.168
369.254
369.285
369.28
369.23
369.182
369.195
369.232
369.275
369.207
369.198
366.606
366.586
366.721
366.775
366.767
366.676
366.599
366.626
366.686
366.751
366.644
366.633
364.022
364
364.169
364.248
364.236
364.097
363.996
364.044
364.123
364.201
364.065
364.058
361.455
361.436
361.622
361.725
361.704
361.514
361.397
361.471
361.566
361.645
361.491
361.494
358.937
358.927
359.113
359.232
359.196
358.958
358.836
358.938
359.046
359.114
358.955
358.97
356.507
356.511
356.682
356.808
356.746
356.471
356.355
356.485
356.605
356.649
356.492
356.522
354.208
354.229
354.378
354.496
354.398
354.102
354.003
354.157
354.29
354.3
354.149
354.188
352.082
352.12
352.246
352.343
352.205
351.904
351.827
352.001
352.145
352.119
351.971
352.009
350.166
350.218
350.328
350.393
350.218
349.927
349.871
350.058
350.213
350.156
350.006
350.029
348.486
348.55
348.651
348.681
348.483
348.211
348.169
348.361
348.524
348.448
348.292
348.289
347.059
347.132
347.231
347.23
347.026
346.776
346.74
346.929
347.091
347.012
346.854
346.819
345.888
345.965
346.065
346.042
345.853
345.627
345.589
345.764
345.916
345.849
345.698
345.633
344.962
345.04
345.136
345.106
344.945
344.744
344.702
344.855
344.986
344.941
344.809
344.723
344.261
344.335
344.423
344.396
344.27
344.096
344.053
344.176
344.28
344.261
344.156
344.064
343.754
343.82
343.894
343.877
343.786
343.642
343.603
343.693
343.77
343.772
343.697
343.613
343.407
343.463
343.521
343.515
343.452
343.339
343.307
343.368
343.421
343.436
343.389
343.322
343.184
343.227
343.27
343.274
343.231
343.147
343.124
343.163
343.198
343.218
343.191
343.144
343.051
343.082
343.114
343.122
343.092
343.032
343.019
343.043
343.065
343.084
343.069
343.042
342.979
343.001
343.026
343.034
343.011
342.971
342.965
342.979
342.994
343.007
343
342.988
342.946
342.962
342.982
342.989
342.97
342.944
342.941
342.949
342.959
342.967
342.965
342.963
342.935
342.949
342.967
342.97
342.954
342.936
342.935
342.94
342.947
342.95
342.952
342.956
342.937
342.95
342.965
342.966
342.952
342.94
342.939
342.941
342.945
342.946
342.952
342.958
342.944
342.957
342.97
342.969
342.956
342.947
342.947
342.947
342.948
342.95
342.958
342.963
342.953
342.966
342.976
342.973
342.963
342.956
342.956
342.954
342.954
342.957
342.966
342.969
342.962
342.973
342.982
342.978
342.969
342.964
342.964
342.962
342.961
342.966
342.973
342.973
342.97
342.978
342.986
342.982
342.975
342.97
342.971
342.969
342.967
342.973
342.979
342.976
342.976
342.982
342.989
342.986
342.979
342.976
342.977
342.975
342.973
342.98
342.982
342.978
342.981
342.985
342.991
342.988
342.983
342.981
342.981
342.98
342.978
342.984
342.985
342.98
342.985
342.987
342.992
342.991
342.987
342.985
342.985
342.984
342.983
342.988
342.987
342.982
342.988
342.989
342.993
342.992
342.989
342.989
342.988
342.987
342.986
342.99
342.988
342.984
342.991
342.991
342.994
342.994
342.992
342.992
342.991
342.99
342.989
342.992
342.99
342.987
342.993
342.992
342.994
342.995
342.994
342.994
342.993
342.992
342.991
342.993
342.992
342.989
342.994
342.994
342.995
342.996
342.995
342.996
342.995
342.994
342.993
342.994
342.993
342.991
342.996
342.995
342.995
342.996
342.996
342.997
342.996
342.995
342.995
342.995
342.994
342.993
342.997
342.996
342.996
342.997
342.997
342.998
342.997
342.997
342.996
342.996
342.996
342.995
342.997
342.997
342.996
342.997
342.998
342.998
342.998
342.997
342.997
342.997
342.997
342.996
342.998
342.997
342.997
342.998
342.998
342.999
342.998
342.998
342.998
342.998
342.997
342.997
342.998
342.998
342.997
342.998
342.999
342.999
342.998
342.998
342.998
342.998
342.998
342.998
342.999
342.998
342.997
342.998
342.999
342.999
342.999
342.999
342.999
342.998
342.998
342.998
342.999
342.998
342.998
342.998
342.999
342.999
342.999
342.999
342.999
342.999
342.999
342.999
342.999
342.999
342.998
342.999
342.999
342.999
342.999
342.999
342.999
342.999
342.999
342.999
342.999
342.999
342.998
342.999
342.999
342.999
342.999
342.999
342.999
342.999
342.999
342.999
342.999
342.999
342.998
342.999
342.999
342.999
342.999
342.999
342.999
342.999
342.999
342.999
342.999
342.999
342.999
342.999
342.999
342.999
342.999
342.999
342.999
342.999
342.999
342.999
342.999
342.999
342.999
342.999
342.999
342.999
342.999
342.999
342.999
342.999
342.999
342.999
342.999
342.999
342.999
342.999
342.999
343
342.999
342.999
342.999
342.999
342.999
343
343
342.999
342.999
342.999
343
343
343
342.999
342.999
342.999
343
343
343
342.999
342.999
342.999
343
343
343
342.999
342.999
343
343
343
343
342.999
342.999
342.999
343
343
343
343
343
343
343
343
343
343
342.999
343
343
343
343
343
343
343
343
343
343
343
342.999
343
343
343
343
343
343
343
343
343
343
343
343
343
343
343
343
343
343
343
343
343
343
343
343
343
343
343
343
343
343
343
343
343
343
343
343
343
343
343
343
343
343
343
343
343
343
343
343
343
343
343
343
343
343
343
343
343
343
343
343
343
343
343
343
343
343
343
343
343
343
343
343
343
343
343
343
343
343
343
343
343
343
343
343
343
343
343
343
343
343
343
343
343
343
343
343
343
343
343
343
343
343
343
343
343
343
343
343
343
343
343
343
343
343
343
343
343
343
343
343
343
343
343
343
343
343
343
343
343
343
343
343
343
343
343
343
343
343
343
343
343
343
343
343
343
343
343
343
343
343
343
343
343
343
343
343
343
343
343
343
343
343
343
343
343
343
343
343
343
343
343
343
343
343
343
343
343
343
343
343
343
343
343
343
343
343
343
343
343
343
343
343
343
343
343
343
343
343
343
343
343
343
343
343
343
343
343
343
343
343
343
343
343
343
343
343
343
343
343
343
343
343
343
343
343
343
343
343
343
343
343
343
343
343
343
343
343
343
343
343
343
343
343
343
343
343
343
343
343
343
343
343
343
343
343
343
343
343
343
343
343
343
343
343
343
343
343
343
343
343
343
343
343
343
343
343
343
343
343
343
343
343
343
343
343
343
343
343
343
343
343
343
343
343
343
343
343
343
343
343
343
343
343
343
343
343
343
343
343
343
343
343
343
343
343
343
343
343
343
343
343
343
343
343
343
343
343
343
343
343
343
343
343
371.681
371.677
371.703
371.716
371.716
371.695
371.68
371.686
371.698
371.71
371.689
371.688
369.034
369.023
369.098
369.137
369.135
369.071
369.026
369.048
369.082
369.116
369.057
369.053
366.362
366.348
366.462
366.528
366.521
366.41
366.34
366.382
366.436
366.484
366.393
366.391
363.684
363.672
363.812
363.902
363.884
363.724
363.636
363.703
363.776
363.829
363.713
363.716
361.028
361.023
361.174
361.282
361.246
361.037
360.941
361.037
361.128
361.172
361.041
361.053
358.429
358.437
358.588
358.703
358.637
358.387
358.293
358.419
358.529
358.551
358.412
358.43
355.933
355.957
356.099
356.209
356.104
355.824
355.742
355.896
356.024
356.017
355.871
355.889
353.588
353.63
353.763
353.854
353.706
353.409
353.342
353.52
353.667
353.629
353.473
353.481
351.442
351.501
351.629
351.691
351.504
351.204
351.15
351.347
351.509
351.445
351.278
351.261
349.539
349.611
349.739
349.769
349.558
349.263
349.217
349.424
349.592
349.517
349.341
349.289
347.906
347.989
348.117
348.12
347.907
347.624
347.578
347.784
347.948
347.878
347.701
347.609
346.558
346.645
346.771
346.758
346.562
346.298
346.25
346.44
346.587
346.536
346.371
346.248
345.486
345.571
345.688
345.671
345.507
345.27
345.22
345.383
345.504
345.479
345.339
345.199
344.67
344.746
344.846
344.835
344.711
344.507
344.461
344.589
344.678
344.678
344.57
344.432
344.079
344.14
344.216
344.216
344.13
343.967
343.929
344.022
344.08
344.097
344.022
343.901
343.674
343.714
343.767
343.777
343.722
343.602
343.576
343.638
343.67
343.695
343.647
343.551
343.411
343.432
343.463
343.479
343.447
343.368
343.354
343.393
343.407
343.429
343.399
343.332
343.252
343.257
343.271
343.288
343.272
343.228
343.223
343.245
343.248
343.261
343.243
343.201
343.163
343.156
343.159
343.172
343.167
343.149
343.15
343.161
343.159
343.162
343.149
343.127
343.116
343.104
343.099
343.107
343.11
343.11
343.112
343.116
343.111
343.106
343.098
343.088
343.094
343.08
343.071
343.074
343.082
343.092
343.093
343.092
343.087
343.077
343.073
343.071
343.083
343.071
343.059
343.058
343.07
343.083
343.083
343.08
343.074
343.065
343.063
343.063
343.077
343.067
343.053
343.051
343.064
343.078
343.077
343.073
343.068
343.06
343.06
343.059
343.072
343.064
343.05
343.047
343.06
343.072
343.071
343.068
343.064
343.059
343.057
343.056
343.067
343.06
343.048
343.044
343.056
343.065
343.064
343.062
343.06
343.057
343.054
343.051
343.061
343.054
343.044
343.04
343.05
343.057
343.056
343.056
343.056
343.054
343.048
343.046
343.053
343.048
343.04
343.037
343.044
343.049
343.048
343.05
343.051
343.049
343.041
343.04
343.045
343.041
343.035
343.032
343.037
343.04
343.04
343.043
343.044
343.042
343.033
343.034
343.037
343.034
343.03
343.028
343.031
343.032
343.032
343.035
343.037
343.035
343.026
343.028
343.029
343.027
343.025
343.023
343.024
343.025
343.024
343.028
343.03
343.027
343.02
343.023
343.022
343.021
343.02
343.018
343.018
343.019
343.018
343.022
343.023
343.02
343.015
343.018
343.016
343.016
343.015
343.014
343.013
343.013
343.013
343.016
343.017
343.014
343.011
343.014
343.012
343.012
343.011
343.01
343.009
343.009
343.009
343.011
343.012
343.01
343.008
343.01
343.008
343.008
343.008
343.007
343.006
343.006
343.006
343.008
343.008
343.007
343.006
343.007
343.005
343.005
343.005
343.004
343.004
343.004
343.004
343.005
343.005
343.004
343.004
343.005
343.003
343.003
343.003
343.002
343.002
343.002
343.002
343.003
343.003
343.002
343.002
343.003
343.002
343.002
343.001
343.001
343.001
343.001
343.001
343.002
343.002
343.001
343.001
343.002
343.001
343.001
343
343
343
343
343
343.001
343.001
343
343.001
343.001
343
343
343
343
343
343
343
343
343
343
343
343.001
343
343
342.999
342.999
342.999
342.999
343
343
343
343
343
343
343
342.999
342.999
342.999
342.999
342.999
342.999
342.999
343
343
343
343
343
342.999
342.999
342.999
342.999
342.999
342.999
342.999
342.999
342.999
343
343
342.999
342.999
342.999
342.999
342.999
342.999
342.999
342.999
342.999
342.999
343
343
342.999
342.999
342.999
342.999
342.999
342.999
342.999
342.999
342.999
342.999
343
343
342.999
342.999
342.999
342.999
342.999
342.999
342.999
342.999
342.999
342.999
343
343
342.999
342.999
342.999
342.999
342.999
342.999
342.999
342.999
342.999
343
343
343
343
342.999
342.999
342.999
342.999
342.999
342.999
342.999
342.999
343
343
343
343
342.999
342.999
342.999
343
342.999
342.999
342.999
343
343
343
343
343
342.999
342.999
342.999
343
343
342.999
342.999
343
343
343
343
343
343
342.999
343
343
343
343
342.999
343
343
343
343
343
343
342.999
343
343
343
343
343
343
343
343
343
343
343
343
343
343
343
343
343
343
343
343
343
343
343
343
343
343
343
343
343
343
343
343
343
343
343
343
343
343
343
343
343
343
343
343
343
343
343
343
343
343
343
343
343
343
343
343
343
343
343
343
343
343
343
343
343
343
343
343
343
343
343
343
343
343
343
343
343
343
343
343
343
343
343
343
343
343
343
343
343
343
343
343
343
343
343
343
343
343
343
343
343
343
343
343
343
343
343
343
343
343
343
343
343
343
343
343
343
343
343
343
343
343
343
343
343
343
343
343
343
343
343
343
343
343
343
343
343
343
343
343
343
343
343
343
343
343
343
343
343
343
343
343
343
343
343
343
343
343
343
343
343
343
343
343
343
343
343
343
343
343
343
343
343
343
343
343
343
343
343
343
343
343
343
343