/*--------------------------------*- C++ -*----------------------------------*\
| =========                 |                                                 |
| \\      /  F ield         | OpenFOAM: The Open Source CFD Toolbox           |
|  \\    /   O peration     | Version:  v1912                                 |
|   \\  /    A nd           | Website:  www.openfoam.com                      |
|    \\/     M anipulation  |                                                 |
\*---------------------------------------------------------------------------*/
FoamFile
{
    version     2.0;
    format      ascii;
    class       volSymmTensorField;
    location    "8.4";
    object      UPrime2Mean;
}
// * * * * * * * * * * * * * * * * * * * * * * * * * * * * * * * * * * * * * //

dimensions      [0 2 -2 0 0 0 0];


internalField   nonuniform List<symmTensor> 
34128
(
(1.28792e-10 3.11268e-12 2.9155e-10 1.95109e-10 1.54586e-08 9.47402e-06)
(1.55672e-10 3.70596e-12 6.40915e-10 1.95115e-10 1.54675e-08 9.47371e-06)
(1.70182e-10 3.57002e-12 1.10355e-09 1.95151e-10 1.54858e-08 9.49326e-06)
(1.79251e-10 1.51989e-12 -1.06407e-10 1.95146e-10 1.54876e-08 9.49753e-06)
(1.87001e-10 7.50415e-13 -4.12479e-10 1.95149e-10 1.54595e-08 9.47063e-06)
(1.33025e-10 1.31103e-12 1.47487e-10 1.95119e-10 1.5438e-08 9.45499e-06)
(1.68802e-10 2.27559e-12 8.45377e-10 1.95132e-10 1.5443e-08 9.45702e-06)
(1.77845e-10 3.63532e-12 1.57719e-09 1.95132e-10 1.54672e-08 9.4813e-06)
(1.44438e-10 2.48244e-12 7.0498e-10 1.95152e-10 1.55034e-08 9.51124e-06)
(1.2487e-10 1.36416e-12 -8.42848e-11 1.95153e-10 1.54927e-08 9.5023e-06)
(1.51293e-10 1.00492e-12 -4.30916e-10 1.95127e-10 1.54635e-08 9.47621e-06)
(1.60746e-10 2.21584e-12 4.24332e-11 1.95116e-10 1.54675e-08 9.46697e-06)
(1.08286e-09 -1.61224e-11 4.05234e-09 4.32871e-10 -6.45669e-08 3.32761e-05)
(1.32012e-09 -1.81715e-11 6.63524e-09 4.3253e-10 -6.46431e-08 3.32687e-05)
(1.44737e-09 -1.15036e-11 9.97371e-09 4.32305e-10 -6.45579e-08 3.34137e-05)
(1.5253e-09 -4.6333e-12 1.15597e-09 4.32376e-10 -6.44764e-08 3.34472e-05)
(1.58017e-09 1.25698e-12 -1.39961e-09 4.32443e-10 -6.45314e-08 3.32527e-05)
(1.13497e-09 -3.97363e-13 2.52909e-09 4.32634e-10 -6.46163e-08 3.31435e-05)
(1.44082e-09 -4.53638e-12 7.07789e-09 4.32566e-10 -6.46141e-08 3.31577e-05)
(1.51812e-09 -3.1235e-12 1.17498e-08 4.32518e-10 -6.45274e-08 3.33304e-05)
(1.2348e-09 -2.25398e-12 5.60222e-09 4.32376e-10 -6.4453e-08 3.35448e-05)
(1.06842e-09 -1.3467e-12 -1.37967e-09 4.32388e-10 -6.44887e-08 3.3482e-05)
(1.28089e-09 -1.323e-12 -3.71857e-09 4.32609e-10 -6.45227e-08 3.3297e-05)
(1.35568e-09 -7.6425e-12 -1.1127e-09 4.32587e-10 -6.45301e-08 3.32301e-05)
(2.87501e-09 2.44142e-12 8.10103e-09 2.14158e-10 6.71874e-08 5.99719e-05)
(3.53132e-09 3.40305e-12 1.41301e-08 2.13382e-10 6.70139e-08 5.99492e-05)
(3.88045e-09 2.46676e-11 2.2235e-08 2.14568e-10 6.77393e-08 6.03034e-05)
(4.09107e-09 1.01751e-11 9.86598e-10 2.15451e-10 6.80875e-08 6.03837e-05)
(4.21541e-09 1.80233e-11 -4.80743e-09 2.14381e-10 6.73122e-08 5.99135e-05)
(3.05083e-09 1.95933e-11 5.20698e-09 2.13533e-10 6.66938e-08 5.96577e-05)
(3.87208e-09 1.93965e-11 1.59453e-08 2.13206e-10 6.67234e-08 5.96893e-05)
(4.07925e-09 4.76968e-11 2.72363e-08 2.14498e-10 6.75178e-08 6.00951e-05)
(3.32486e-09 2.8287e-11 1.30438e-08 2.15811e-10 6.84021e-08 6.06051e-05)
(2.88097e-09 7.50787e-12 -4.87944e-09 2.15428e-10 6.81457e-08 6.04579e-05)
(3.42245e-09 -4.30115e-12 -1.0092e-08 2.14797e-10 6.7467e-08 6.00179e-05)
(3.60982e-09 -3.55234e-12 -4.43068e-09 2.14395e-10 6.72371e-08 5.98571e-05)
(5.40584e-09 -3.56102e-11 1.19505e-08 1.14768e-10 -4.38572e-08 8.4958e-05)
(6.69022e-09 -4.07681e-11 2.20042e-08 1.09831e-10 -4.44631e-08 8.49166e-05)
(7.36706e-09 2.12493e-11 3.5925e-08 1.1177e-10 -4.28694e-08 8.55343e-05)
(7.76903e-09 1.15462e-11 -1.24372e-09 1.14779e-10 -4.19779e-08 8.56682e-05)
(7.96391e-09 4.28452e-11 -1.05763e-08 1.12497e-10 -4.36259e-08 8.48557e-05)
(5.80684e-09 3.83175e-11 7.33997e-09 1.11246e-10 -4.49158e-08 8.44297e-05)
(7.36414e-09 2.45734e-11 2.52421e-08 1.10032e-10 -4.49008e-08 8.44792e-05)
(7.75748e-09 8.38345e-11 4.50834e-08 1.12971e-10 -4.3202e-08 8.51564e-05)
(6.33944e-09 5.04637e-11 2.17095e-08 1.15722e-10 -4.13859e-08 8.60218e-05)
(5.50295e-09 1.12763e-11 -1.01788e-08 1.1491e-10 -4.19172e-08 8.57778e-05)
(6.47616e-09 -1.30585e-11 -1.86012e-08 1.14683e-10 -4.32481e-08 8.50308e-05)
(6.80624e-09 -3.02523e-11 -9.05655e-09 1.13576e-10 -4.3768e-08 8.47551e-05)
(8.5844e-09 -4.47131e-11 1.58313e-08 7.42826e-11 4.50109e-08 0.00010642)
(1.07063e-08 -5.1536e-11 3.00557e-08 6.24681e-11 4.38327e-08 0.000106363)
(1.18125e-08 7.3898e-11 5.00768e-08 7.03193e-11 4.71124e-08 0.000107274)
(1.24589e-08 3.03289e-11 -5.58073e-09 7.89716e-11 4.88264e-08 0.000107459)
(1.27069e-08 8.45705e-11 -1.82824e-08 7.08504e-11 4.5291e-08 0.00010627)
(9.33477e-09 7.98999e-11 8.66008e-09 6.52818e-11 4.27105e-08 0.000105673)
(1.18229e-08 6.42734e-11 3.36452e-08 6.20158e-11 4.27351e-08 0.000105738)
(1.24547e-08 1.98673e-10 6.33581e-08 7.19285e-11 4.62169e-08 0.00010669)
(1.02097e-08 1.1898e-10 3.07723e-08 8.18712e-11 5.00465e-08 0.000107931)
(8.88097e-09 2.50463e-11 -1.69134e-08 7.91167e-11 4.89778e-08 0.000107592)
(1.03506e-08 -2.961e-11 -2.85705e-08 7.60197e-11 4.60947e-08 0.000106519)
(1.08369e-08 -5.08029e-11 -1.44338e-08 7.24762e-11 4.49624e-08 0.00010612)
(1.23277e-08 -7.37545e-11 1.97338e-08 1.65512e-10 7.09582e-08 0.000123707)
(1.54971e-08 -8.6587e-11 3.80081e-08 1.39437e-10 6.89155e-08 0.000123643)
(1.7129e-08 1.35144e-10 6.38842e-08 1.57495e-10 7.44666e-08 0.00012486)
(1.80675e-08 5.07443e-11 -1.21091e-08 1.76701e-10 7.72849e-08 0.000125085)
(1.83353e-08 1.41113e-10 -2.76609e-08 1.58184e-10 7.12125e-08 0.000123511)
(1.35711e-08 1.32004e-10 8.96908e-09 1.45338e-10 6.70239e-08 0.000122758)
(1.71587e-08 1.09024e-10 4.02595e-08 1.38297e-10 6.70212e-08 0.000122835)
(1.80784e-08 3.48586e-10 8.07614e-08 1.60318e-10 7.27678e-08 0.00012404)
(1.48727e-08 2.09541e-10 3.96674e-08 1.83036e-10 7.9213e-08 0.000125648)
(1.29673e-08 3.82197e-11 -2.47454e-08 1.77081e-10 7.7474e-08 0.000125224)
(1.49626e-08 -5.6828e-11 -3.94086e-08 1.69252e-10 7.25806e-08 0.000123833)
(1.56026e-08 -9.17842e-11 -2.01078e-08 1.6113e-10 7.06266e-08 0.000123311)
(1.65616e-08 -1.06905e-10 2.35946e-08 3.2578e-10 1.15448e-07 0.00013674)
(2.09892e-08 -1.28323e-10 4.56616e-08 2.75956e-10 1.12312e-07 0.00013668)
(2.32373e-08 2.24973e-10 7.6893e-08 3.12394e-10 1.20875e-07 0.0001382)
(2.451e-08 7.59042e-11 -2.06723e-08 3.49509e-10 1.25054e-07 0.000138451)
(2.47504e-08 2.11122e-10 -3.83379e-08 3.12601e-10 1.15612e-07 0.000136501)
(1.84577e-08 1.94829e-10 8.31586e-09 2.87035e-10 1.09477e-07 0.000135616)
(2.32884e-08 1.64266e-10 4.47141e-08 2.73664e-10 1.09395e-07 0.0001357)
(2.45435e-08 5.5077e-10 9.66352e-08 3.16086e-10 1.17951e-07 0.000137124)
(2.02722e-08 3.31853e-10 4.80837e-08 3.6122e-10 1.27764e-07 0.000139071)
(1.77204e-08 5.08763e-11 -3.33616e-08 3.50045e-10 1.25215e-07 0.000138578)
(2.02379e-08 -9.8088e-11 -5.06503e-08 3.33069e-10 1.17708e-07 0.000136892)
(2.10141e-08 -1.47702e-10 -2.58328e-08 3.16774e-10 1.14658e-07 0.000136254)
(2.12226e-08 -1.44078e-10 2.73067e-08 5.75042e-10 1.69042e-07 0.000145727)
(2.71208e-08 -1.768e-10 5.28507e-08 4.88594e-10 1.64575e-07 0.000145679)
(3.00687e-08 3.46738e-10 8.89394e-08 5.54977e-10 1.76882e-07 0.000147488)
(3.17125e-08 1.03748e-10 -3.08677e-08 6.19848e-10 1.82637e-07 0.000147752)
(3.18664e-08 2.92021e-10 -4.98174e-08 5.53328e-10 1.68977e-07 0.000145446)
(2.39436e-08 2.64731e-10 6.95404e-09 5.08011e-10 1.60631e-07 0.000144459)
(3.01374e-08 2.25629e-10 4.70725e-08 4.84814e-10 1.60401e-07 0.000144547)
(3.17754e-08 8.05296e-10 1.10834e-07 5.58329e-10 1.72228e-07 0.00014615)
(2.63614e-08 4.86389e-10 5.59166e-08 6.39077e-10 1.86137e-07 0.000148398)
(2.31068e-08 5.95973e-11 -4.24561e-08 6.2025e-10 1.82657e-07 0.000147851)
(2.61128e-08 -1.5563e-10 -6.19324e-08 5.87816e-10 1.71963e-07 0.000145905)
(2.69937e-08 -2.20224e-10 -3.1542e-08 5.582e-10 1.67545e-07 0.00014516)
(2.62603e-08 -1.83089e-10 3.07535e-08 9.38963e-10 2.31804e-07 0.000151008)
(3.38443e-08 -2.29154e-10 5.94326e-08 7.99545e-10 2.25787e-07 0.000150979)
(3.75684e-08 5.05732e-10 1.0007e-07 9.11741e-10 2.42588e-07 0.000153056)
(3.96155e-08 1.31851e-10 -4.21022e-08 1.01687e-09 2.50102e-07 0.00015332)
(3.96135e-08 3.80092e-10 -6.15223e-08 9.05487e-10 2.31367e-07 0.00015069)
(2.99876e-08 3.3752e-10 5.25034e-09 8.31781e-10 2.20613e-07 0.000149627)
(3.76433e-08 2.88246e-10 4.76824e-08 7.94106e-10 2.2014e-07 0.000149716)
(3.97131e-08 1.11218e-09 1.23543e-07 9.11915e-10 2.35626e-07 0.00015146)
(3.31056e-08 6.73566e-10 6.31991e-08 1.04566e-09 2.54335e-07 0.000153969)
(2.91039e-08 6.07428e-11 -5.17296e-08 1.01638e-09 2.49823e-07 0.000153381)
(3.25364e-08 -2.30991e-10 -7.29706e-08 9.59805e-10 2.35403e-07 0.000151215)
(3.34779e-08 -3.09074e-10 -3.72796e-08 9.09831e-10 2.29343e-07 0.000150373)
(3.1639e-08 -2.22447e-10 3.3838e-08 1.43911e-09 3.00482e-07 0.000152975)
(4.11296e-08 -2.82934e-10 6.52886e-08 1.22669e-09 2.92681e-07 0.000152966)
(4.56979e-08 7.06487e-10 1.10455e-07 1.40535e-09 3.14718e-07 0.000155285)
(4.81765e-08 1.57403e-10 -5.36913e-08 1.56589e-09 3.24155e-07 0.000155542)
(4.79406e-08 4.71431e-10 -7.28644e-08 1.38993e-09 2.99511e-07 0.000152621)
(3.65603e-08 4.08727e-10 3.5798e-09 1.27801e-09 2.86227e-07 0.000151509)
(4.57585e-08 3.45757e-10 4.70088e-08 1.21984e-09 2.8538e-07 0.000151595)
(4.83127e-08 1.4691e-09 1.35086e-07 1.39726e-09 3.04847e-07 0.000153449)
(4.04849e-08 8.92564e-10 7.00297e-08 1.60572e-09 3.29015e-07 0.000156177)
(3.57029e-08 5.08589e-11 -6.09007e-08 1.563e-09 3.23391e-07 0.000155559)
(3.94729e-08 -3.24255e-10 -8.35388e-08 1.47125e-09 3.0478e-07 0.000153212)
(4.04186e-08 -4.13099e-10 -4.31232e-08 1.39181e-09 2.96792e-07 0.000152283)
(3.73387e-08 -2.60371e-10 3.64999e-08 2.09794e-09 3.74021e-07 0.000152024)
(4.89644e-08 -3.34879e-10 7.03317e-08 1.7888e-09 3.6417e-07 0.000152028)
(5.44364e-08 9.53878e-10 1.20301e-07 2.05998e-09 3.92163e-07 0.000154563)
(5.73719e-08 1.77637e-10 -6.49692e-08 2.29374e-09 4.03676e-07 0.000154809)
(5.68165e-08 5.61862e-10 -8.33193e-08 2.02838e-09 3.72326e-07 0.000151634)
(4.36455e-08 4.74078e-10 2.2389e-09 1.86755e-09 3.5645e-07 0.000150492)
(5.44516e-08 3.91705e-10 4.54847e-08 1.78119e-09 3.55069e-07 0.000150575)
(5.75482e-08 1.87354e-09 1.45764e-07 2.03548e-09 3.78782e-07 0.000152512)
(4.84959e-08 1.14266e-09 7.65114e-08 2.34508e-09 4.09026e-07 0.000155423)
(4.29103e-08 2.70566e-11 -6.97194e-08 2.28585e-09 4.02229e-07 0.00015478)
(4.69028e-08 -4.33968e-10 -9.34452e-08 2.14544e-09 3.79034e-07 0.00015229)
(4.77838e-08 -5.29708e-10 -4.91137e-08 2.02509e-09 3.68821e-07 0.000151283)
(4.33541e-08 -2.95373e-10 3.87181e-08 2.93707e-09 4.5059e-07 0.000148532)
(5.73545e-08 -3.81729e-10 7.45134e-08 2.50367e-09 4.38382e-07 0.000148542)
(6.37795e-08 1.25245e-09 1.29794e-07 2.89928e-09 4.73016e-07 0.000151266)
(6.71962e-08 1.90332e-10 -7.53849e-08 3.22662e-09 4.86757e-07 0.000151502)
(6.62293e-08 6.47488e-10 -9.24838e-08 2.8415e-09 4.47959e-07 0.000148109)
(5.12401e-08 5.29726e-10 1.39379e-09 2.62058e-09 4.29488e-07 0.000146955)
(6.37066e-08 4.19753e-10 4.34018e-08 2.4964e-09 4.27382e-07 0.000147031)
(6.74117e-08 2.32245e-09 1.55742e-07 2.84652e-09 4.55547e-07 0.000149032)
(5.7152e-08 1.4231e-09 8.27122e-08 3.28852e-09 4.92435e-07 0.000152091)
(5.07498e-08 -1.26909e-11 -7.79735e-08 3.20978e-09 4.84417e-07 0.000151427)
(5.48226e-08 -5.5683e-10 -1.02506e-07 3.00489e-09 4.56328e-07 0.000148828)
(5.55567e-08 -6.55169e-10 -5.52065e-08 2.82965e-09 4.43593e-07 0.000147752)
(4.96942e-08 -3.26425e-10 4.05079e-08 3.97851e-09 5.28413e-07 0.000142858)
(6.63226e-08 -4.20454e-10 7.78324e-08 3.38939e-09 5.13499e-07 0.000142859)
(7.37394e-08 1.60632e-09 1.39049e-07 3.94759e-09 5.55415e-07 0.000145748)
(7.76612e-08 1.94055e-10 -8.45562e-08 4.39136e-09 5.7153e-07 0.000145979)
(7.6185e-08 7.24814e-10 -1.00108e-07 3.85028e-09 5.24621e-07 0.000142401)
(5.93539e-08 5.72198e-10 1.06803e-09 3.55786e-09 5.03604e-07 0.000141251)
(7.35217e-08 4.24003e-10 4.0869e-08 3.38391e-09 5.00553e-07 0.000141317)
(7.79122e-08 2.8127e-09 1.64997e-07 3.85035e-09 5.33312e-07 0.000143364)
(6.6483e-08 1.73343e-09 8.86472e-08 4.46118e-09 5.77353e-07 0.000146541)
(5.9262e-08 -6.93859e-11 -8.54862e-08 4.36001e-09 5.68077e-07 0.000145858)
(6.32444e-08 -6.87732e-10 -1.10529e-07 4.07261e-09 5.34871e-07 0.000143182)
(6.37339e-08 -7.84717e-10 -6.12493e-08 3.82574e-09 5.19322e-07 0.000142044)
(5.63781e-08 -3.53072e-10 4.19006e-08 5.24481e-09 6.05592e-07 0.000135347)
(7.59031e-08 -4.48379e-10 8.03231e-08 4.46444e-09 5.87583e-07 0.000135325)
(8.43379e-08 2.01885e-09 1.48101e-07 5.2299e-09 6.37364e-07 0.000138356)
(8.87901e-08 1.88272e-10 -9.22559e-08 5.81544e-09 6.5599e-07 0.000138586)
(8.67016e-08 7.90618e-10 -1.06083e-07 5.07609e-09 6.004e-07 0.000134858)
(6.80043e-08 5.98059e-10 1.17091e-09 4.70068e-09 5.76949e-07 0.000133726)
(8.39039e-08 3.98997e-10 3.78392e-08 4.46236e-09 5.72705e-07 0.000133779)
(8.90695e-08 3.34086e-09 1.73331e-07 5.06713e-09 6.10125e-07 0.000135853)
(7.65306e-08 2.07339e-09 9.42813e-08 5.88866e-09 6.61751e-07 0.000139119)
(6.85017e-08 -1.42976e-10 -9.21005e-08 5.76221e-09 6.51192e-07 0.00013842)
(7.21906e-08 -8.198e-10 -1.17292e-07 5.37219e-09 6.12736e-07 0.000135696)
(7.23207e-08 -9.12482e-10 -6.69952e-08 5.03393e-09 5.94104e-07 0.000134504)
(6.34304e-08 -3.75591e-10 4.29269e-08 6.759e-09 6.8012e-07 0.000126341)
(8.61352e-08 -4.63291e-10 8.20348e-08 5.74748e-09 6.58604e-07 0.000126284)
(9.56003e-08 2.49251e-09 1.56896e-07 6.77169e-09 7.16755e-07 0.000129434)
(1.0061e-07 1.73362e-10 -9.83942e-08 7.52687e-09 7.38012e-07 0.000129668)
(9.78011e-08 8.41869e-10 -1.10415e-07 6.54079e-09 6.73288e-07 0.000125825)
(7.72116e-08 6.0367e-10 1.53093e-09 6.07082e-09 6.47581e-07 0.000124724)
(9.48611e-08 3.39674e-10 3.41378e-08 5.7505e-09 6.41875e-07 0.00012476)
(1.00907e-07 3.90286e-09 1.80413e-07 6.51711e-09 6.83927e-07 0.000126842)
(8.73425e-08 2.44283e-09 9.95377e-08 7.597e-09 7.43469e-07 0.000130166)
(7.85322e-08 -2.32437e-10 -9.7669e-08 7.4424e-09 7.31619e-07 0.000129454)
(8.16892e-08 -9.44494e-10 -1.22542e-07 6.92764e-09 6.8788e-07 0.000126713)
(8.13249e-08 -1.03165e-09 -7.21272e-08 6.47507e-09 6.6593e-07 0.000125476)
(7.08788e-08 -3.95251e-10 4.36115e-08 8.54494e-09 7.49913e-07 0.000116184)
(9.70583e-08 -4.63581e-10 8.30205e-08 7.25774e-09 7.24478e-07 0.000116079)
(1.0755e-07 3.02869e-09 1.65283e-07 8.59925e-09 7.91406e-07 0.000119322)
(1.13147e-07 1.50514e-10 -1.02993e-07 9.55452e-09 8.15378e-07 0.000119564)
(1.09505e-07 8.75657e-10 -1.13204e-07 8.26705e-09 7.41207e-07 0.000115643)
(8.6994e-08 5.84963e-10 1.92488e-09 7.69077e-09 7.13498e-07 0.00011459)
(1.06399e-07 2.41176e-10 2.95051e-08 7.26751e-09 7.06044e-07 0.000114602)
(1.13447e-07 4.49397e-09 1.8581e-07 8.22101e-09 7.52587e-07 0.000116669)
(9.89677e-08 2.84183e-09 1.04302e-07 9.61315e-09 8.20253e-07 0.000120019)
(8.94225e-08 -3.35617e-10 -1.02055e-07 9.42733e-09 8.07117e-07 0.000119299)
(9.17693e-08 -1.05163e-09 -1.26007e-07 8.76377e-09 7.58175e-07 0.000116571)
(9.07536e-08 -1.13451e-09 -7.62883e-08 8.17053e-09 7.32723e-07 0.000115301)
(7.87496e-08 -4.14339e-10 4.39607e-08 1.06267e-08 8.12867e-07 0.000105212)
(1.08705e-07 -4.48214e-10 8.33186e-08 9.01432e-09 7.83119e-07 0.000105051)
(1.20203e-07 3.62766e-09 1.73028e-07 1.07391e-08 8.59111e-07 0.00010836)
(1.26419e-07 1.21441e-10 -1.06125e-07 1.19276e-08 8.85836e-07 0.000108611)
(1.21827e-07 8.88951e-10 -1.14604e-07 1.02779e-08 8.02067e-07 0.000104652)
(9.73629e-08 5.37183e-10 2.11226e-09 9.58329e-09 7.72694e-07 0.000103662)
(1.18512e-07 9.84401e-11 2.36652e-08 9.03245e-09 7.63196e-07 0.000103646)
(1.26702e-07 5.10835e-09 1.89044e-07 1.01994e-08 8.13959e-07 0.000105672)
(1.1145e-07 3.2706e-09 1.08425e-07 1.19644e-08 8.89802e-07 0.000109011)
(1.0124e-07 -4.49316e-10 -1.05136e-07 1.17439e-08 8.75407e-07 0.000108291)
(1.02456e-07 -1.12952e-09 -1.27418e-07 1.09055e-08 8.21465e-07 0.00010561)
(1.00608e-07 -1.21253e-09 -7.91254e-08 1.01417e-08 7.92395e-07 0.00010432)
(8.70639e-08 -4.36269e-10 4.39556e-08 1.30278e-08 8.66923e-07 9.37607e-05)
(1.21093e-07 -4.16839e-10 8.29439e-08 1.10355e-08 8.32521e-07 9.354e-05)
(1.33555e-07 4.28835e-09 1.79828e-07 1.32174e-08 9.17713e-07 9.6883e-05)
(1.40426e-07 8.82027e-11 -1.07874e-07 1.46751e-08 9.47161e-07 9.71419e-05)
(1.34764e-07 8.78618e-10 -1.14782e-07 1.2596e-08 8.53842e-07 9.31879e-05)
(1.08316e-07 4.54859e-10 1.86322e-09 1.17707e-08 8.23225e-07 9.22783e-05)
(1.3118e-07 -9.4134e-11 1.63849e-08 1.10636e-08 8.11386e-07 9.2228e-05)
(1.40671e-07 5.73876e-09 1.89654e-07 1.24719e-08 8.65953e-07 9.4184e-05)
(1.24822e-07 3.72942e-09 1.11734e-07 1.46774e-08 9.49848e-07 9.74723e-05)
(1.14046e-07 -5.69216e-10 -1.06813e-07 1.44183e-08 9.34239e-07 9.67625e-05)
(1.13764e-07 -1.16502e-09 -1.26533e-07 1.33772e-08 8.75638e-07 9.41621e-05)
(1.10879e-07 -1.25648e-09 -8.03296e-08 1.24091e-08 8.42918e-07 9.28668e-05)
(9.58332e-08 -4.65561e-10 4.35514e-08 1.57701e-08 9.10147e-07 8.21562e-05)
(1.34218e-07 -3.69891e-10 8.18883e-08 1.33377e-08 8.70831e-07 8.18748e-05)
(1.47582e-07 5.00818e-09 1.85344e-07 1.60587e-08 9.65181e-07 8.52158e-05)
(1.55143e-07 5.31332e-11 -1.08305e-07 1.7824e-08 9.97242e-07 8.54788e-05)
(1.4829e-07 8.41532e-10 -1.13897e-07 1.52424e-08 8.94647e-07 8.15779e-05)
(1.19832e-07 3.31857e-10 9.80206e-10 1.42738e-08 8.63282e-07 8.0764e-05)
(1.4436e-07 -3.42966e-10 7.51994e-09 1.33774e-08 8.4882e-07 8.06752e-05)
(1.55325e-07 6.37628e-09 1.87245e-07 1.50559e-08 9.06621e-07 8.25303e-05)
(1.39093e-07 4.21852e-09 1.14039e-07 1.7777e-08 9.98238e-07 8.57259e-05)
(1.27882e-07 -6.89814e-10 -1.07025e-07 1.74747e-08 9.81485e-07 8.50362e-05)
(1.25694e-07 -1.14359e-09 -1.23173e-07 1.62012e-08 9.18711e-07 8.25522e-05)
(1.2154e-07 -1.25664e-09 -7.96739e-08 1.49914e-08 8.82404e-07 8.12693e-05)
(1.05055e-07 -5.07782e-10 4.26814e-08 1.88727e-08 9.40817e-07 7.07057e-05)
(1.48044e-07 -3.08725e-10 8.01302e-08 1.59346e-08 8.96434e-07 7.03674e-05)
(1.62224e-07 5.78279e-09 1.89221e-07 1.92851e-08 9.99694e-07 7.36666e-05)
(1.7051e-07 1.89507e-11 -1.07458e-07 2.13991e-08 1.03416e-06 7.39278e-05)
(1.62348e-07 7.74835e-10 -1.12091e-07 1.82358e-08 9.22824e-07 7.01304e-05)
(1.31863e-07 1.61563e-10 -6.85564e-10 1.71112e-08 8.91272e-07 6.94258e-05)
(1.57983e-07 -6.55427e-10 -2.95571e-09 1.59877e-08 8.73936e-07 6.92955e-05)
(1.70609e-07 7.01019e-09 1.81529e-07 1.79653e-08 9.34245e-07 7.10197e-05)
(1.54244e-07 4.73789e-09 1.15148e-07 2.12847e-08 1.03303e-06 7.4079e-05)
(1.42766e-07 -8.04417e-10 -1.0576e-07 2.09339e-08 1.01522e-06 7.34204e-05)
(1.38221e-07 -1.04933e-09 -1.17247e-07 1.93968e-08 9.48918e-07 7.10874e-05)
(1.32548e-07 -1.20292e-09 -7.70433e-08 1.79042e-08 9.09198e-07 6.98354e-05)
(1.14708e-07 -5.69413e-10 4.12651e-08 2.23506e-08 9.575e-07 5.9689e-05)
(1.62496e-07 -2.35756e-10 7.76478e-08 1.88356e-08 9.08038e-07 5.93016e-05)
(1.77382e-07 6.6058e-09 1.91128e-07 2.2915e-08 1.01973e-06 6.25166e-05)
(1.86424e-07 -1.09148e-11 -1.05361e-07 2.54205e-08 1.0563e-06 6.27687e-05)
(1.76838e-07 6.76348e-10 -1.09485e-07 2.15911e-08 9.37021e-07 5.9126e-05)
(1.44336e-07 -6.28233e-11 -3.22234e-09 2.02981e-08 9.05895e-07 5.85412e-05)
(1.71945e-07 -1.0398e-09 -1.49369e-08 1.89044e-08 8.85484e-07 5.83683e-05)
(1.86424e-07 7.6278e-09 1.7236e-07 2.12095e-08 9.47423e-07 5.99341e-05)
(1.7022e-07 5.28695e-09 1.14881e-07 2.52175e-08 1.05259e-06 6.28146e-05)
(1.58681e-07 -9.05209e-10 -1.03065e-07 2.4812e-08 1.03384e-06 6.21979e-05)
(1.51295e-07 -8.65166e-10 -1.0878e-07 2.29789e-08 9.64796e-07 6.0048e-05)
(1.43832e-07 -1.0852e-09 -7.24544e-08 2.11585e-08 9.21952e-07 5.88458e-05)
(1.24749e-07 -6.57636e-10 3.92201e-08 2.62141e-08 9.59133e-07 4.93487e-05)
(1.77457e-07 -1.54539e-10 7.44334e-08 2.20458e-08 9.04742e-07 4.89232e-05)
(1.92912e-07 7.46862e-09 1.90786e-07 2.69617e-08 1.02413e-06 5.20112e-05)
(2.02733e-07 -3.18166e-11 -1.02041e-07 2.9903e-08 1.06238e-06 5.22463e-05)
(1.91618e-07 5.45063e-10 -1.06186e-07 2.53187e-08 9.36266e-07 4.88076e-05)
(1.57141e-07 -3.47937e-10 -6.65067e-09 2.38454e-08 9.06213e-07 4.83489e-05)
(1.86113e-07 -1.50504e-09 -2.81882e-08 2.21327e-08 8.82596e-07 4.8135e-05)
(2.02633e-07 8.21454e-09 1.59755e-07 2.47916e-08 9.45148e-07 4.95196e-05)
(1.86917e-07 5.86422e-09 1.13093e-07 2.95859e-08 1.05566e-06 5.2182e-05)
(1.75561e-07 -9.83427e-10 -9.90508e-08 2.91184e-08 1.0361e-06 5.16169e-05)
(1.64832e-07 -5.72994e-10 -9.79278e-08 2.69566e-08 9.65264e-07 4.96774e-05)
(1.55299e-07 -8.93559e-10 -6.60647e-08 2.47604e-08 9.19706e-07 4.85431e-05)
(1.35113e-07 -7.80027e-10 3.64739e-08 3.04674e-08 9.45085e-07 3.9882e-05)
(1.9276e-07 -6.97091e-11 7.05034e-08 2.55644e-08 8.86099e-07 3.9432e-05)
(2.08623e-07 8.36038e-09 1.87994e-07 3.14329e-08 1.01219e-06 4.23516e-05)
(2.1923e-07 -3.72745e-11 -9.7543e-08 3.48547e-08 1.0516e-06 4.2562e-05)
(2.06495e-07 3.81601e-10 -1.02296e-07 2.94238e-08 9.20029e-07 3.93723e-05)
(1.70138e-07 -6.99873e-10 -1.09214e-08 2.77594e-08 8.91705e-07 3.90412e-05)
(2.0032e-07 -2.06037e-09 -4.23559e-08 2.56726e-08 8.64845e-07 3.87906e-05)
(2.19051e-07 8.75409e-09 1.43907e-07 2.87083e-08 9.26874e-07 3.99774e-05)
(2.04182e-07 6.46695e-09 1.09682e-07 3.43932e-08 1.04146e-06 4.23881e-05)
(1.9329e-07 -1.02964e-09 -9.38909e-08 3.38555e-08 1.02123e-06 4.18824e-05)
(1.78715e-07 -1.54088e-10 -8.49882e-08 3.13325e-08 9.49687e-07 4.01743e-05)
(1.66826e-07 -6.18691e-10 -5.81668e-08 2.87095e-08 9.0195e-07 3.91245e-05)
(1.45703e-07 -9.44183e-10 3.29755e-08 3.51086e-08 9.15209e-07 3.1435e-05)
(2.08191e-07 1.32334e-11 6.59039e-08 2.93854e-08 8.52155e-07 3.09758e-05)
(2.24274e-07 9.26809e-09 1.82652e-07 3.63294e-08 9.83696e-07 3.36895e-05)
(2.35652e-07 -1.8369e-11 -9.19454e-08 4.02761e-08 1.02362e-06 3.38684e-05)
(2.21224e-07 1.88544e-10 -9.79174e-08 3.39061e-08 8.88261e-07 3.09656e-05)
(1.83153e-07 -1.12386e-09 -1.5919e-08 3.2041e-08 8.62312e-07 3.07584e-05)
(2.14367e-07 -2.71466e-09 -5.69891e-08 2.95183e-08 8.32284e-07 3.04781e-05)
(2.35447e-07 9.22865e-09 1.25181e-07 3.29487e-08 8.92561e-07 3.14579e-05)
(2.21804e-07 7.09066e-09 1.04608e-07 3.9635e-08 1.00973e-06 3.3591e-05)
(2.11689e-07 -1.0342e-09 -8.78176e-08 3.90171e-08 9.88997e-07 3.31504e-05)
(1.92786e-07 4.10412e-10 -7.03962e-08 3.61022e-08 9.17928e-07 3.16869e-05)
(1.78268e-07 -2.52196e-10 -4.91716e-08 3.29989e-08 8.68663e-07 3.07354e-05)
(1.56399e-07 -1.15722e-09 2.87044e-08 4.0129e-08 8.69862e-07 2.41007e-05)
(2.23488e-07 8.83337e-11 6.07117e-08 3.34967e-08 8.03463e-07 2.36481e-05)
(2.39584e-07 1.01769e-08 1.74772e-07 4.16454e-08 9.38931e-07 2.61242e-05)
(2.51685e-07 3.67702e-11 -8.53651e-08 4.61593e-08 9.78659e-07 2.62664e-05)
(2.35515e-07 -2.94377e-11 -9.31565e-08 3.87597e-08 8.41416e-07 2.3679e-05)
(1.95987e-07 -1.62399e-09 -2.14712e-08 3.6686e-08 8.18451e-07 2.35875e-05)
(2.28035e-07 -3.47579e-09 -7.15672e-08 3.36584e-08 7.85455e-07 2.32865e-05)
(2.5155e-07 9.61941e-09 1.04104e-07 3.74948e-08 8.42702e-07 2.4058e-05)
(2.39517e-07 7.72886e-09 9.78935e-08 4.52983e-08 9.60744e-07 2.58969e-05)
(2.30516e-07 -9.87743e-10 -8.11111e-08 4.45884e-08 9.39688e-07 2.5525e-05)
(2.06854e-07 1.13879e-09 -5.47109e-08 4.12535e-08 8.70371e-07 2.43105e-05)
(1.89453e-07 2.13055e-10 -3.95792e-08 3.76147e-08 8.20334e-07 2.34674e-05)
(1.67052e-07 -1.42521e-09 2.36765e-08 4.55139e-08 8.09904e-07 1.79194e-05)
(2.38351e-07 1.49795e-10 5.50313e-08 3.78811e-08 7.41069e-07 1.74886e-05)
(2.54234e-07 1.10707e-08 1.64485e-07 4.73681e-08 8.78702e-07 1.97031e-05)
(2.66968e-07 1.43276e-10 -7.79617e-08 5.24886e-08 9.17449e-07 1.98054e-05)
(2.49033e-07 -2.65751e-10 -8.81261e-08 4.39738e-08 7.80439e-07 1.75512e-05)
(2.08417e-07 -2.20308e-09 -2.73619e-08 4.16854e-08 7.61005e-07 1.75626e-05)
(2.41085e-07 -4.34978e-09 -8.55321e-08 3.80765e-08 7.25378e-07 1.72515e-05)
(2.67049e-07 9.90716e-09 8.13376e-08 4.23211e-08 7.78308e-07 1.78213e-05)
(2.57002e-07 8.37278e-09 8.96258e-08 5.13618e-08 8.95372e-07 1.93596e-05)
(2.49462e-07 -8.81806e-10 -7.40858e-08 5.05457e-08 8.74164e-07 1.90575e-05)
(2.20694e-07 2.0478e-09 -3.85915e-08 4.67673e-08 8.07914e-07 1.80875e-05)
(2.00195e-07 7.82616e-10 -2.99422e-08 4.25366e-08 7.57952e-07 1.73591e-05)
(1.77487e-07 -1.75244e-09 1.79468e-08 5.12422e-08 7.36667e-07 1.28827e-05)
(2.5245e-07 1.92737e-10 4.89893e-08 4.2517e-08 6.66473e-07 1.24873e-05)
(2.67885e-07 1.19328e-08 1.52038e-07 5.34778e-08 8.043e-07 1.44249e-05)
(2.81108e-07 3.19564e-10 -6.99352e-08 5.92395e-08 8.41242e-07 1.44864e-05)
(2.61419e-07 -5.12404e-10 -8.29453e-08 4.95334e-08 7.06728e-07 1.25714e-05)
(2.20208e-07 -2.86274e-09 -3.33488e-08 4.70254e-08 6.91289e-07 1.26698e-05)
(2.53276e-07 -5.34002e-09 -9.83244e-08 4.27511e-08 6.5351e-07 1.23598e-05)
(2.81613e-07 1.0073e-08 5.76393e-08 4.73959e-08 7.0088e-07 1.27419e-05)
(2.73891e-07 9.01126e-09 7.99541e-08 5.77967e-08 8.15004e-07 1.39833e-05)
(2.68159e-07 -7.09401e-10 -6.7074e-08 5.6857e-08 7.93814e-07 1.375e-05)
(2.34057e-07 3.15156e-09 -2.27642e-08 5.26174e-08 7.31941e-07 1.30119e-05)
(2.10297e-07 1.46017e-09 -2.08243e-08 4.77382e-08 6.82969e-07 1.23998e-05)
(1.87514e-07 -2.14067e-09 1.16079e-08 5.72876e-08 6.51899e-07 8.93923e-06)
(2.65442e-07 2.14014e-10 4.27266e-08 4.7379e-08 5.8156e-07 8.59061e-06)
(2.80191e-07 1.27465e-08 1.37785e-07 5.99486e-08 7.17443e-07 1.02455e-05)
(2.937e-07 5.8695e-10 -6.15201e-08 6.638e-08 7.51754e-07 1.02678e-05)
(2.723e-07 -7.60886e-10 -7.77368e-08 5.54202e-08 6.22072e-07 8.68642e-06)
(2.31125e-07 -3.60351e-09 -3.91807e-08 5.26884e-08 6.10991e-07 8.85333e-06)
(2.64372e-07 -6.44639e-09 -1.09419e-07 4.76574e-08 5.71678e-07 8.55523e-06)
(2.94894e-07 1.00994e-08 3.38218e-08 5.26816e-08 6.12341e-07 8.76961e-06)
(2.89785e-07 9.63084e-09 6.90818e-08 6.45674e-08 7.21514e-07 9.72799e-06)
(2.86189e-07 -4.65606e-10 -6.04077e-08 6.34829e-08 7.00505e-07 9.56073e-06)
(2.46678e-07 4.46009e-09 -7.98187e-09 5.8772e-08 6.44265e-07 9.03419e-06)
(2.19561e-07 2.24726e-09 -1.27586e-08 5.3188e-08 5.97234e-07 8.53568e-06)
(1.96928e-07 -2.58834e-09 4.78529e-09 6.36193e-08 5.57684e-07 6.00322e-06)
(2.76987e-07 2.13049e-10 3.63891e-08 5.24393e-08 4.88515e-07 5.70936e-06)
(2.90822e-07 1.34967e-08 1.2217e-07 6.6749e-08 6.20208e-07 7.08509e-06)
(3.04343e-07 9.68805e-10 -5.29764e-08 7.38711e-08 6.51094e-07 7.07236e-06)
(2.81315e-07 -1.00338e-09 -7.26222e-08 6.16135e-08 5.28572e-07 5.80796e-06)
(2.40942e-07 -4.42527e-09 -4.4614e-08 5.8654e-08 5.22094e-07 6.02405e-06)
(2.74157e-07 -7.66456e-09 -1.18363e-07 5.27675e-08 4.81994e-07 5.74739e-06)
(3.06553e-07 9.97097e-09 1.07035e-08 5.81365e-08 5.14954e-07 5.81873e-06)
(3.04264e-07 1.0216e-08 5.72573e-08 7.16327e-08 6.17186e-07 6.51652e-06)
(3.03098e-07 -1.48105e-10 -5.43996e-08 7.03773e-08 5.96505e-07 6.41101e-06)
(2.58288e-07 5.97767e-09 5.02105e-09 6.51942e-08 5.47044e-07 6.07005e-06)
(2.27799e-07 3.14309e-09 -6.20865e-09 5.88505e-08 5.02913e-07 5.67817e-06)
(2.05521e-07 -3.08966e-09 -2.37139e-09 7.0203e-08 4.56348e-07 3.96289e-06)
(2.86769e-07 1.92526e-10 3.01166e-08 5.76692e-08 3.89714e-07 3.72834e-06)
(2.99484e-07 1.41703e-08 1.05705e-07 7.38428e-08 5.14932e-07 4.83757e-06)
(3.12673e-07 1.48918e-09 -4.45776e-08 8.16674e-08 5.41677e-07 4.79566e-06)
(2.88142e-07 -1.2342e-09 -6.7714e-08 6.80922e-08 4.28538e-07 3.82231e-06)
(2.49461e-07 -5.32775e-09 -4.9428e-08 6.48988e-08 4.26784e-07 4.0683e-06)
(2.82444e-07 -8.98531e-09 -1.24801e-07 5.80521e-08 3.86756e-07 3.8206e-06)
(3.16275e-07 9.67608e-09 -1.09393e-08 6.37159e-08 4.11214e-07 3.77648e-06)
(3.16914e-07 1.07499e-08 4.47645e-08 7.89473e-08 5.04602e-07 4.24313e-06)
(3.18423e-07 2.42392e-10 -4.93248e-08 7.74892e-08 4.84384e-07 4.19407e-06)
(2.68628e-07 7.70098e-09 1.55776e-08 7.18435e-08 4.42684e-07 4.00865e-06)
(2.34845e-07 4.14426e-09 -1.53458e-09 6.46875e-08 4.02381e-07 3.7129e-06)
(2.13095e-07 -3.63381e-09 -9.69935e-09 7.70017e-08 3.50358e-07 2.69005e-06)
(2.94519e-07 1.58878e-10 2.40332e-08 6.30401e-08 2.87619e-07 2.51571e-06)
(3.05938e-07 1.47574e-08 8.89443e-08 8.11895e-08 4.04118e-07 3.37899e-06)
(3.18387e-07 2.17094e-09 -3.65966e-08 8.97186e-08 4.26119e-07 3.31527e-06)
(2.92524e-07 -1.45143e-09 -6.31073e-08 7.48351e-08 3.24386e-07 2.59958e-06)
(2.56521e-07 -6.31103e-09 -5.34363e-08 7.1398e-08 3.2736e-07 2.8574e-06)
(2.89091e-07 -1.0394e-08 -1.28506e-07 6.34808e-08 2.88342e-07 2.64365e-06)
(3.2379e-07 9.20769e-09 -3.04178e-08 6.93738e-08 3.03735e-07 2.51265e-06)
(3.27347e-07 1.12145e-08 3.19116e-08 8.64635e-08 3.86538e-07 2.78257e-06)
(3.3171e-07 7.01752e-10 -4.5405e-08 8.47645e-08 3.66902e-07 2.78401e-06)
(2.7747e-07 9.6172e-09 2.31358e-08 7.86771e-08 3.33734e-07 2.72213e-06)
(2.40564e-07 5.24467e-09 1.03127e-09 7.06594e-08 2.98122e-07 2.50929e-06)
(2.1947e-07 -4.20424e-09 -1.70354e-08 8.39765e-08 2.42211e-07 2.04899e-06)
(3.00033e-07 1.22396e-10 1.82387e-08 6.85242e-08 1.84664e-07 1.93239e-06)
(3.10025e-07 1.52527e-08 7.24539e-08 8.87453e-08 2.9033e-07 2.57666e-06)
(3.21272e-07 3.03336e-09 -2.92844e-08 9.79702e-08 3.07136e-07 2.49921e-06)
(2.94298e-07 -1.65829e-09 -5.8869e-08 8.18223e-08 2.18534e-07 2.0028e-06)
(2.6201e-07 -7.37596e-09 -5.64945e-08 7.81247e-08 2.26133e-07 2.25653e-06)
(2.94008e-07 -1.18704e-08 -1.29395e-07 6.90236e-08 1.89107e-07 2.07886e-06)
(3.2889e-07 8.56469e-09 -4.71708e-08 7.5064e-08 1.95136e-07 1.88884e-06)
(3.3523e-07 1.15918e-08 1.90161e-08 9.41325e-08 2.65835e-07 1.99911e-06)
(3.4255e-07 1.22207e-09 -4.27987e-08 9.21472e-08 2.46889e-07 2.04485e-06)
(2.84622e-07 1.17023e-08 2.73036e-08 8.56511e-08 2.22772e-07 2.07458e-06)
(2.44861e-07 6.43534e-09 1.3989e-09 7.67267e-08 1.92611e-07 1.92965e-06)
(2.24502e-07 -4.77827e-09 -2.42298e-08 9.10876e-08 1.34333e-07 1.90457e-06)
(3.03189e-07 9.69263e-11 1.28022e-08 7.40955e-08 8.31481e-08 1.84034e-06)
(3.11675e-07 1.56556e-08 5.67769e-08 9.64634e-08 1.76086e-07 2.29706e-06)
(3.21223e-07 4.08953e-09 -2.28484e-08 1.06365e-07 1.8742e-07 2.21391e-06)
(2.93419e-07 -1.86438e-09 -5.50251e-08 8.90353e-08 1.13298e-07 1.89603e-06)
(2.65877e-07 -8.52421e-09 -5.84999e-08 8.50502e-08 1.25335e-07 2.13251e-06)
(2.97159e-07 -1.33885e-08 -1.27525e-07 7.46508e-08 9.12798e-08 1.99024e-06)