-0.0075 	373
-0.00715932 	354.085
-0.00676191 	351
-0.00629832 	349.821
-0.00575752 	349.128
-0.00512667 	348.607
-0.00439077 	348.164
-0.00353231 	347.762
-0.00253089 	347.377
-0.00136271 	346.989
0 	346.578
0.00136271 	346.143
0.00253089 	345.705
0.00353231 	345.274
0.00439077 	344.836
0.00512667 	344.357
0.00575752 	343.766
0.00629832 	342.893
0.00676191 	340.996
0.00715932 	332.068
0.0075 	313
