/*--------------------------------*- C++ -*----------------------------------*\
| =========                 |                                                 |
| \\      /  F ield         | OpenFOAM: The Open Source CFD Toolbox           |
|  \\    /   O peration     | Version:  v1906                                 |
|   \\  /    A nd           | Web:      www.OpenFOAM.com                      |
|    \\/     M anipulation  |                                                 |
\*---------------------------------------------------------------------------*/
FoamFile
{
    version     2.0;
    format      ascii;
    class       volScalarField;
    location    "100";
    object      alphat;
}
// * * * * * * * * * * * * * * * * * * * * * * * * * * * * * * * * * * * * * //

dimensions      [1 -1 -1 0 0 0 0];


internalField   nonuniform List<scalar> 
630
(
1.30614e-08
1.03305e-08
1.01307e-08
1.28693e-08
2.66041e-08
1.84556e-08
2.42708e-08
2.17969e-08
3.09778e-07
1.98973e-07
3.16051e-07
2.20656e-07
2.14469e-06
1.40656e-06
2.23539e-06
1.52647e-06
8.78109e-06
5.96262e-06
9.32048e-06
6.34308e-06
2.55517e-05
1.80287e-05
2.76066e-05
1.87879e-05
5.87154e-05
4.30037e-05
6.43942e-05
4.39396e-05
0.000113585
8.60465e-05
0.000125896
8.64203e-05
0.000192995
0.000150537
0.000215161
0.00014912
0.00029687
0.000237347
0.000331496
0.000232669
0.000422911
0.00034515
0.000471464
0.000335742
0.000567805
0.000471322
0.000627933
0.000455839
0.000714724
0.000605977
0.00078101
0.00058245
0.000871384
0.000745172
0.000943313
0.000712768
0.0010401
0.000894598
0.00111315
0.000852016
0.00122062
0.00105431
0.00129004
0.00100033
0.00141352
0.00122471
0.00147292
0.00115752
0.00161798
0.00140629
0.00166074
0.00132334
0.00183225
0.00160001
0.00185357
0.00149778
0.00205507
0.00180661
0.00205433
0.00168165
0.00228528
0.0020255
0.00226935
0.00187691
0.00252159
0.00225432
0.00250575
0.00208575
0.00276231
0.00248845
0.00276631
0.00230821
0.002996
0.00272337
0.00304383
0.00253928
0.00321947
0.0029582
0.00332305
0.0027703
0.00344229
0.00319392
0.00359423
0.00299665
0.0036637
0.00343038
0.00385947
0.00321908
0.00388295
0.00366493
0.0041227
0.00343835
0.00409933
0.00389027
0.00437412
0.00364794
0.00431219
0.00411436
0.00460195
0.00385638
0.00452086
0.00433662
0.00482474
0.00406299
0.00472464
0.0045565
0.00504127
0.00426709
0.00492281
0.00477355
0.00525027
0.00446804
0.0051147
0.00498738
0.00545034
0.00466522
0.00529973
0.00519769
0.00563972
0.00485803
0.00547736
0.00540427
0.00581598
0.00504616
0.00564894
0.00560696
0.0059751
0.00522903
0.00581673
0.00580553
0.0061143
0.00540637
0.00598174
0.00599733
0.00623177
0.00557801
0.0061446
0.00618142
0.00633247
0.00574401
0.00630464
0.00635665
0.00475801
0.00590458
0.00645936
0.00652244
0.00371154
0.00606004
0.00660502
0.00667521
0.00391967
0.00621069
0.00673177
0.00624049
0.00536975
0.0063566
0.00684038
0.00510178
0.00708833
0.00649771
0.00677192
0.005045
0.00725711
0.00663364
0.00424108
0.00627352
0.00741765
0.00676431
0.00375864
0.00759742
0.00757006
0.00689016
0.00509673
0.00777249
0.00770915
0.00701123
0.00760987
0.00794065
0.00783132
0.00712982
0.00781097
0.00810141
0.00793465
0.00724712
0.00803642
0.00825366
0.00801843
0.00736329
0.00828908
0.0083962
0.0080847
0.00747848
0.00856957
0.00852772
0.00813369
0.00759293
0.00886645
0.00865165
0.00816623
0.00770684
0.00917333
0.00876993
0.00818352
0.0078209
0.00948588
0.00888454
0.00818714
0.00793614
0.00980174
0.00899653
0.00817884
0.00805423
0.0101212
0.0091052
0.00816044
0.00817779
0.0104426
0.00921006
0.00813382
0.00831065
0.0107647
0.00931588
0.00812154
0.00845748
0.0110872
0.00942441
0.0081262
0.00862167
0.0114119
0.00953388
0.00814692
0.00880255
0.0117414
0.00964549
0.00817776
0.00899874
0.0120793
0.00976043
0.00821417
0.00920825
0.0124279
0.00987788
0.00825727
0.00942883
0.0127771
0.00999512
0.00830922
0.00965727
0.0131139
0.0101103
0.00837175
0.00988955
0.0134163
0.0102227
0.00844645
0.0101212
0.013682
0.0103311
0.0085311
0.0103474
0.0139121
0.0104343
0.00861858
0.0105605
0.0141125
0.0105307
0.00871066
0.0107475
0.0142686
0.010619
0.00880709
0.010902
0.0143856
0.0107
0.00890003
0.0110222
0.0142992
0.0107723
0.00898263
0.0111036
0.00877202
0.0108366
0.00904227
0.0111495
0.00652665
0.0108938
0.00907524
0.0111731
0.00816906
0.010945
0.00907779
0.0111841
0.0149865
0.0109763
4.5133e-10
4.3498e-09
5.60485e-09
3.47952e-09
2.88266e-09
1.09138e-08
1.74419e-08
7.30208e-09
5.13977e-08
1.48915e-07
2.56558e-07
8.97367e-08
3.84131e-07
1.08054e-06
1.84058e-06
6.45931e-07
1.69627e-06
4.65128e-06
7.75445e-06
2.78203e-06
5.40797e-06
1.43311e-05
2.32057e-05
8.61508e-06
1.37804e-05
3.49668e-05
5.46369e-05
2.12253e-05
2.97157e-05
7.16929e-05
0.000107671
4.41443e-05
5.62025e-05
0.000128475
0.000185234
8.05523e-05
9.55909e-05
0.000207056
0.000286976
0.000132541
0.000149011
0.000306828
0.000410045
0.000200749
0.000216193
0.000425473
0.000550408
0.000284453
0.000295707
0.000559845
0.00069119
0.000381974
0.000385444
0.000706637
0.000834931
0.000491149
0.000481622
0.000848212
0.000985602
0.000608949
0.000570701
0.000994259
0.00114334
0.000721692
0.000662837
0.00114629
0.00130728
0.000839098
0.000758051
0.00130381
0.00147672
0.00096163
0.000856443
0.00146598
0.0016509
0.0010888
0.000957933
0.0016321
0.00182929
0.00121997
0.0010621
0.00180166
0.00201156
0.00135464
0.00116748
0.00197431
0.00219707
0.00149243
0.00127149
0.00214977
0.00238364
0.00163314
0.00137178
0.00232765
0.00256628
0.00177676
0.00146931
0.00250675
0.00273785
0.00192337
0.00157124
0.00268585
0.00289851
0.00207304
0.00168976
0.00286476
0.00306108
0.00222569
0.00183493
0.00304293
0.00325226
0.00238076
0.00200447
0.00321962
0.00349841
0.00253543
0.00217835
0.00339389
0.00379734
0.00268994
0.00233144
0.00356444
0.00409323
0.00284467
0.00245906
0.00372917
0.00428451
0.00299927
0.0025727
0.00388469
0.00427813
0.00315291
0.00268607
0.00402595
0.00409962
0.0033043
0.00277839
0.00414638
0.00394145
0.0034515
0.0028636
0.00423944
0.00401786
0.00359137
0.00278707
0.00430251
0.00443309
0.00371795
0.00251299
0.00434439
0.00508423
0.00382042
0.00224315
0.00439125
0.00568332
0.00388305
0.00215427
0.00447844
0.0058627
0.00389233
0.00232796
0.00463161
0.00602516
0.00385286
0.0027533
0.00486579
0.00617475
0.00379889
0.00326353
0.00519395
0.00631166
0.0037783
0.00355412
0.00560734
0.00643658
0.00381836
0.00364978
0.00602518
0.00654934
0.00392357
0.00374779
0.00634041
0.00664941
0.00409937
0.00385075
0.00649895
0.00673605
0.00435255
0.00396202
0.00665052
0.00680761
0.00466629
0.00408163
0.00679763
0.00686229
0.00498616
0.00420783
0.00693923
0.00689828
0.00525496
0.00433783
0.0070741
0.00691399
0.00540049
0.00446708
0.0072009
0.00690916
0.00549801
0.00459237
0.0073168
0.00688432
0.00559178
0.00471043
0.00741771
0.00684218
0.00568183
0.0048182
0.00700645
0.00678677
0.00576691
0.00491376
0.0056395
0.00672356
0.00584515
0.00499589
0.00466203
0.00665977
0.00591389
0.00506204
0.00462499
0.00660088
0.00596973
0.00510936
0.00559862
0.00565369
0.00585545
0.00513494
0.00721136
0.0040625
0.00422411
0.00513609
0.00813679
0.00334885
0.00324653
0.00511105
0.00825235
0.00366344
0.00323654
0.00476128
0.00835527
0.00498256
0.00413224
0.0029951
0.00844032
0.00633339
0.00556703
0.00232855
0.00850369
0.00634845
0.00626941
0.00246467
0.00854346
0.00637984
0.00631845
0.00323434
0.00855875
0.00643051
0.00636273
0.00424482
0.00854749
0.00650282
0.00639321
0.00404569
0.00850655
0.0065991
0.00640437
0.00381399
0.00843447
0.00672217
0.00639546
0.00355137
0.00833031
0.0068765
0.00636697
0.00326254
0.00819391
0.00707462
0.00632053
0.00297599
0.00802551
0.00731442
0.00625816
0.00270978
0.00782633
0.00757076
0.00618438
0.00248867
0.00757974
0.00783296
0.00610524
0.0023445
0.00635975
0.00810783
0.00602808
0.00230258
0.00634064
0.00839207
0.00596044
0.00237589
0.00657577
0.0086819
0.0059091
0.00255193
0.0062424
0.00897296
0.00588009
)
;

boundaryField
{
    leftWall
    {
        type            compressible::alphatWallFunction;
        Prt             0.85;
        value           uniform 0;
    }
    rightWall
    {
        type            compressible::alphatWallFunction;
        Prt             0.85;
        value           nonuniform 0();
    }
    leftSides_periodic0
    {
        type            cyclic;
    }
    leftSides_periodic1
    {
        type            cyclic;
    }
    rightSides_periodic0
    {
        type            cyclic;
    }
    rightSides_periodic1
    {
        type            cyclic;
    }
    leftInOut_periodic0
    {
        type            cyclic;
    }
    leftInOut_periodic1
    {
        type            cyclic;
    }
    rightInOut_periodic0
    {
        type            cyclic;
    }
    rightInOut_periodic1
    {
        type            cyclic;
    }
    procBoundary0to1
    {
        type            processor;
        value           nonuniform List<scalar> 
11
(
0.00905134
0.0111805
0.0151313
0.00905134
0.0109985
0.00905134
0.0111805
0.00280458
0.00590952
0.00925662
0.00587798
)
;
    }
    procBoundary0to1throughleftInOut_periodic1
    {
        type            processorCyclic;
        value           uniform 0.0111805;
    }
    procBoundary0to2
    {
        type            processor;
        value           nonuniform List<scalar> 
316
(
9.17019e-09
7.47633e-09
9.64609e-09
8.12805e-09
1.67218e-08
1.41751e-08
1.68487e-08
1.44111e-08
1.83347e-07
1.62791e-07
1.78569e-07
1.54808e-07
1.2874e-06
1.16458e-06
1.25191e-06
1.08903e-06
5.39984e-06
4.97151e-06
5.247e-06
4.5928e-06
1.61485e-05
1.51203e-05
1.56511e-05
1.38326e-05
3.81284e-05
3.6227e-05
3.67954e-05
3.29218e-05
7.56061e-05
7.26604e-05
7.25702e-05
6.58369e-05
0.000131242
0.000127133
0.000125242
0.000115272
0.000205506
0.000200031
0.000194991
0.000182017
0.000296921
0.000289688
0.00028022
0.000265026
0.000402787
0.000393194
0.000378259
0.000361961
0.000511696
0.000499732
0.000480453
0.000467388
0.000621508
0.000606471
0.000582072
0.000568585
0.000739106
0.000720218
0.000690213
0.000676105
0.00086394
0.000840386
0.000804211
0.000789567
0.000995554
0.000966555
0.000923493
0.000908325
0.00113355
0.00109855
0.00104775
0.00103184
0.00127742
0.0012366
0.00117724
0.00115962
0.00142685
0.0013819
0.00131367
0.0012912
0.00158275
0.00153742
0.00146075
0.0014265
0.00174895
0.00170791
0.0016232
0.00156642
0.00193298
0.00189807
0.00180227
0.00171395
0.00214356
0.00210849
0.00199033
0.00187456
0.0023837
0.00233252
0.0021659
0.00205438
0.00264383
0.00255972
0.00229396
0.00225588
0.00290409
0.00277581
0.00234175
0.00247348
0.00315157
0.00297162
0.00232649
0.00269392
0.00337049
0.00316862
0.00234408
0.0029055
0.00358158
0.00336551
0.00250055
0.003108
0.00378929
0.00356091
0.00281751
0.00328889
0.00399179
0.00375276
0.00318052
0.00346946
0.00405662
0.00393876
0.0033513
0.00364871
0.00375216
0.00411641
0.00349009
0.00382525
0.00329529
0.00428324
0.00362694
0.00399713
0.00317592
0.004437
0.00376141
0.00416202
0.003693
0.00397554
0.00389313
0.00431719
0.00483374
0.00328309
0.00402163
0.00445962
0.0055454
0.00294197
0.00414642
0.00458614
0.00578605
0.00334825
0.00426703
0.00399864
0.00602308
0.00467596
0.00438316
0.00314531
0.00625801
0.00543441
0.00447924
0.00267109
0.00649001
0.00561937
0.00457232
0.00294897
0.00671878
0.00580004
0.00466958
0.00422051
0.00694426
0.00597775
0.00477254
0.00530736
0.0071673
0.00615282
0.00487691
0.00544496
0.00738912
0.00632564
0.00495617
0.00558922
0.00761009
0.00649582
0.00502228
0.0057448
0.00783028
0.00666288
0.00507641
0.00590489
0.00804994
0.00682621
0.00511682
0.00606573
0.00826963
0.00698514
0.00514226
0.00622893
0.00849151
0.00713884
0.00515025
0.00639534
0.00871582
0.00728774
0.0051397
0.00656488
0.00894314
0.00743418
0.00510939
0.00673768
0.00917443
0.00757861
0.00411017
0.00691401
0.00941337
0.00772174
0.00260787
0.0070943
0.00966108
0.00786426
0.0018969
0.00727903
0.00991867
0.00800634
0.00205946
0.00746842
0.0101874
0.00814716
0.00357639
0.00766221
0.0104682
0.00828539
0.00467887
0.00785933
0.0107622
0.00841966
0.00472722
0.00805792
0.0110698
0.00854861
0.00480005
0.00825577
0.0113835
0.00867086
0.00489293
0.00845169
0.0117011
0.00878502
0.0050021
0.0086448
0.0120188
0.00888944
0.00512402
0.00883392
0.0123315
0.00898774
0.00525621
0.00901703
0.0126322
0.00908026
0.00539921
0.00919149
0.0129134
0.00916746
0.00555028
0.00935407
0.0131696
0.0092498
0.0056989
0.00950072
0.0133949
0.00932769
0.00583773
0.00962655
0.013585
0.00940107
0.00596512
0.00972608
0.0137376
0.00946553
0.00608033
0.0097955
0.0138544
0.00952262
0.00618374
0.00982678
0.013942
0.00957362
0.00627658
0.00981714
0.0140033
0.00962027
0.00635516
0.00976668
0.0140354
0.00966282
0.00641595
0.00970431
0.0140461
0.00970126
0.00645596
0.00964934
0.0140392
0.00972971
0.00647179
0.00959063
0.0140132
0.00974984
0.0064601
0.00953063
)
;
    }
    procBoundary0to2throughleftSides_periodic0
    {
        type            processorCyclic;
        value           nonuniform List<scalar> 
314
(
8.35289e-09
1.07009e-08
6.47367e-08
4.26488e-07
1.80304e-06
5.53915e-06
1.35941e-05
2.82479e-05
5.16408e-05
8.53516e-05
0.000130182
0.000186179
0.000252833
0.000329324
0.000414747
0.000508281
0.000609355
0.000717679
0.000832983
0.000955068
0.00108378
0.00121878
0.00135929
0.00150493
0.0016553
0.00180995
0.00196839
0.00213013
0.0022947
0.00246165
0.00263056
0.00280103
0.0029727
0.00314531
0.00331867
0.00349259
0.00366668
0.00384014
0.00401183
0.00418049
0.00434485
0.00450366
0.00465558
0.00480691
0.00495762
0.00510809
0.00525911
0.00541124
0.00556296
0.0057137
0.00586396
0.00601283
0.00615931
0.00630232
0.00634113
0.00604935
0.00631969
0.00684378
0.00695175
0.00704202
0.00711281
0.00716206
0.00719296
0.0072032
0.00719027
0.00715156
0.00708436
0.00698607
0.00686567
0.00672299
0.00655789
0.00637007
0.00615871
0.0059225
0.00565948
0.00536845
0.00504776
0.00469532
0.00430488
1.02629e-08
1.81476e-08
1.64779e-07
1.10161e-06
4.51823e-06
1.34073e-05
3.17214e-05
6.34037e-05
0.000111288
0.000176466
0.000258348
0.000355211
0.000464831
0.000576901
0.000694454
0.000820679
0.000955658
0.00109914
0.00125087
0.00141053
0.0015778
0.00175232
0.00193386
0.0021224
0.00231812
0.00252028
0.00272381
0.00290933
0.00309228
0.00327419
0.0034546
0.00363307
0.00380921
0.00398272
0.00415339
0.00432108
0.00448581
0.0046477
0.0048069
0.00496334
0.00511638
0.00526486
0.00541451
0.00556538
0.00571758
0.00587057
0.00602329
0.00617499
0.0063248
0.00647159
0.00661426
0.00675176
0.00688315
0.00700806
0.00712286
0.00722666
0.00731917
0.00740068
0.00747244
0.00753802
0.00759785
0.00765216
0.00770078
0.00774341
0.00777996
0.00780524
0.00781683
0.00781213
0.00778866
0.00774392
0.00767589
0.00758689
0.00747443
0.00733646
0.00717138
0.00697838
0.00675743
0.00651064
0.00624187
1.46201e-08
2.12621e-08
1.79947e-07
1.23499e-06
5.17397e-06
1.54701e-05
3.65367e-05
7.26143e-05
0.000126693
0.000199949
0.000291834
0.000400591
0.000523933
0.000652362
0.000785972
0.000930152
0.00108471
0.00124962
0.00142526
0.0016125
0.00181266
0.00202683
0.00225445
0.00249211
0.0027348
0.00297267
0.0032003
0.00342902
0.00365768
0.00388513
0.00410978
0.00433011
0.00454478
0.00475245
0.00495189
0.00514195
0.00532297
0.00549461
0.00555256
0.00536733
0.005017
0.00484073
0.00510107
0.00578792
0.00656736
0.00684157
0.00700955
0.0071745
0.0073352
0.00749049
0.007639
0.00778092
0.00791535
0.00804348
0.00816736
0.00828997
0.00841511
0.00854591
0.00868269
0.00882386
0.00896824
0.00911491
0.00926295
0.00941156
0.00956013
0.00970831
0.00985597
0.010003
0.0101489
0.0102993
0.0104674
0.0106525
0.010853
0.0110666
0.0112904
0.0115212
0.011755
0.0119881
7.71373e-09
1.28031e-08
1.08012e-07
7.20632e-07
2.98092e-06
8.9598e-06
2.15506e-05
4.39174e-05
7.87354e-05
0.000127582
0.000190722
0.000267283
0.000355649
0.000453865
0.000551377
0.00065211
0.000758609
0.000870669
0.000987827
0.0011096
0.00123546
0.00136483
0.00149704
0.00163132
0.00176696
0.00190342
0.00204046
0.00217819
0.00231682
0.00245614
0.00259378
0.0027324
0.00287402
0.00302045
0.0031701
0.0033137
0.00341853
0.00351816
0.00361317
0.0037045
0.00379351
0.00388188
0.0039711
0.00406176
0.00415346
0.00424546
0.00433703
0.00442748
0.00451612
0.00460229
0.0046854
0.00476484
0.00484005
0.00491044
0.00497541
0.00503442
0.00508693
0.00513238
0.00517017
0.00519969
0.00522028
0.00523121
0.00523163
0.00522055
0.00519685
0.0051592
0.00510607
0.00503588
0.00494683
0.00483714
0.00470763
0.00456299
0.00440419
0.00423187
0.0040481
0.00385534
0.00365112
0.0034389
)
;
    }
}


// ************************************************************************* //
