-0.0075 	373
-0.00715932 	360.92
-0.00676191 	359.036
-0.00629832 	358.281
-0.00575752 	357.816
-0.00512667 	357.45
-0.00439077 	357.122
-0.00353231 	356.804
-0.00253089 	356.478
-0.00136271 	356.127
0 	355.739
0.00136271 	355.315
0.00253089 	354.87
0.00353231 	354.413
0.00439077 	353.929
0.00512667 	353.38
0.00575752 	352.684
0.00629832 	351.654
0.00676191 	349.438
0.00715932 	338.259
0.0075 	313
