/*--------------------------------*- C++ -*----------------------------------*\
| =========                 |                                                 |
| \\      /  F ield         | OpenFOAM: The Open Source CFD Toolbox           |
|  \\    /   O peration     | Version:  v1906                                 |
|   \\  /    A nd           | Web:      www.OpenFOAM.com                      |
|    \\/     M anipulation  |                                                 |
\*---------------------------------------------------------------------------*/
FoamFile
{
    version     2.0;
    format      ascii;
    class       volScalarField;
    location    "97.2";
    object      pPrime2Mean;
}
// * * * * * * * * * * * * * * * * * * * * * * * * * * * * * * * * * * * * * //

dimensions      [2 -2 -4 0 0 0 0];


internalField   nonuniform List<scalar> 
634
(
68442.1
98620.4
68248.7
102801
68436.3
98611.7
68243
102793
68430.4
98601
68237.2
102781
68429.9
98592.5
68236.9
102772
68432.7
98583.6
68240.1
102763
68436.5
98571.6
68244.2
102749
68441.1
98556.3
68249.6
102733
68446.8
98537.3
68256.1
102712
68453.6
98514.4
68264
102687
68461.5
98487.2
68273.3
102657
68470.9
98455
68284.3
102621
68481.7
98417.5
68297.1
102580
68494.1
98374.2
68311.8
102533
68508.3
98324.7
68328.7
102478
68524.2
98268.5
68347.8
102416
68542.2
98205.2
68369.3
102347
68562.3
98134.2
68393.5
102268
68584.8
98055.2
68420.5
102181
68609.7
97967.7
68450.5
102084
68637.3
97871.5
68483.6
101977
68667.7
97765.9
68520.2
101859
68701
97650.5
68560.4
101730
68737.5
97524.6
68604.4
101588
68777.8
97387.6
68652.5
101433
68822.5
97239.1
68704.8
101264
68871.5
97079.8
68761.6
101083
68923.5
96911.9
68822.9
100892
68977.2
96736.8
68887.7
100692
69032.9
96552.8
68956
100483
69092.9
96356.2
69028.6
100259
69159.7
96145
69107
100016
69233.5
95920.5
69191.7
99753.4
69312.3
95685.2
69281.9
99475.2
69394
95439.7
69376.4
99183.9
69479
95182.2
69475.4
98880.2
69569.3
94910.5
69580.4
98563
69666.7
94623.8
69692.9
98231.4
69770.8
94325.4
69812
97887
69878.7
94022.4
69933.9
97534.9
69989.4
93718.7
70057
97177.5
70105.2
93410.3
70184.7
96810.8
70230.5
93089.2
70323
96428
70368.4
92750
70476.2
96026.7
70518.6
92394.7
70642.5
95612.4
70678.3
92029
70816.8
95192.6
70846
91656.8
70996.6
94768.4
71021.1
91279
71181.4
94336.7
71203.5
90897
71371
93896
71393.5
90511
71566
93448.2
71591.4
90120.9
71768.6
92996.8
71797.1
89727.8
71980.8
92544.9
72009.6
89337.6
72202.6
92096.9
72225.6
88959.6
72429.1
91659.7
72439.2
88597.4
72653.1
91237.1
72647.5
88244.3
72871
90823.7
72854.8
87888.6
73087.6
90407.1
73070.6
87523.5
73313.4
89978.1
73301.9
87152.9
73555.9
89540.4
73548
86784.5
73812.9
89104.4
73802.7
86420.4
74076.8
88676.3
74062
86059.5
74344
88256.3
74323.5
85703.4
74615.2
87844.4
74584.9
85357.6
74891.5
87442.5
74843.9
85027
75172.9
87052.7
75099.1
84712.4
75458.4
86674.3
75350.6
84408.7
75745.5
86302.2
75601.9
84109.4
76033.2
85930.7
75858.5
83811.9
76323.5
85559
76124.2
83517.8
76619.8
85191.2
76398.9
83229.6
76923.1
84831.2
76679
82948
77232.5
84478.8
76963.6
82672.4
77546.8
84131
77254.2
82402.9
77866.2
83785.9
77550.9
82139.3
78189.8
83444.7
77851.1
81881.3
78515.9
83111.4
78150.9
81628.1
78840.4
82788.5
78446.2
81380.1
79156.3
82475.9
78732.5
81138
79454.5
82171.8
79005.1
80898.8
79724.3
81868.9
14519.8
15175.7
14225
13303.1
14509.6
15165.4
14214.9
13293.1
14497.7
15153.5
14203.2
13281.7
14491.1
15146.9
14196.7
13275.7
14486.3
15142.2
14192.1
13272
14479.8
15136
14185.9
13266.9
14471.5
15128.2
14178
13260.4
14461.4
15118.5
14168.1
13252.3
14449.1
15106.9
14156.4
13242.6
14434.7
15093.3
14142.4
13231.1
14417.8
15077.4
14126.1
13217.5
14398.1
15058.8
14107
13201.7
14375.3
15037.4
14085
13183.3
14349.3
15012.9
14059.8
13162.2
14319.7
14984.9
14031.2
13138.2
14286.4
14953.3
13998.9
13111
14249
14917.7
13962.8
13080.4
14207.4
14877.7
13922.6
13046.1
14161
14833.2
13877.9
13007.9
14109.8
14783.6
13828.5
12965.6
14053.4
14728.9
13774.1
12919.1
13991.5
14668.6
13714.5
12868.1
13924
14602.7
13649.6
12812.7
13850.9
14531
13579.3
12752.8
13772
14453.3
13503.8
12688.3
13687.6
14369.8
13423
12619.5
13597.6
14280.3
13337.2
12546.5
13502.3
14185.1
13246.5
12469.4
13401.8
14084.2
13151.2
12388.6
13296.5
13977.9
13051.4
12304.2
13186.6
13866.4
12947.6
12216.7
13072.6
13750
12840
12126.4
12954.6
13628.9
12729
12033.6
12833.3
13503.6
12615.1
11938.8
12709
13374.6
12498.7
11842.4
12582.2
13242.2
12380.3
11744.9
12453.6
13107.1
12260.6
11647.1
12323.5
12969.7
12139.9
11549.4
12192.6
12830.7
12018.8
11452.1
12061.5
12690.6
11897.6
11355.3
11930.5
12549.8
11776.9
11259.4
11800.5
12409.1
11657.2
11165
11672.2
12269
11539.1
11072.6
11546
12130.4
11423.3
10982.7
11422.3
11993.9
11310
10895.1
11301.3
11860.2
11199.5
10810.1
11183.2
11729.7
11092
10728.2
11068.3
11603.1
10987.7
10650.1
10957.1
11480.7
10886.8
10576.1
10850.3
11363.2
10790.1
10506.2
10748
11250.7
10697.8
10440.3
10650.6
11143.7
10610.6
10378.4
10557.9
11042.6
10528.7
10321
10470.1
10948.2
10451.9
10267.7
10387.4
10860.8
10380.3
10218.2
10310.3
10779.7
10313.5
10171.8
10238.9
10704.2
10251.7
10128.4
10173.1
10633.6
10195
10088.3
10112.6
10567.9
10143.6
10051.7
10057.5
10507.8
10097.4
10018.6
10007.9
10453.6
10056
9988.34
9963.78
10405.1
10019.1
9960.84
9924.71
10361.4
9986.47
9936.64
9889.73
10321.9
9958.19
9916.37
9858.09
10285.8
9934.11
9900.02
9829.68
10252.8
9913.74
9886.96
9804.8
10223.1
9896.49
9876.33
9783.77
10197.2
9882
9867.51
9766.68
10174.9
9870.11
9860.3
9753.31
10156
9860.69
9854.82
9743.12
10140.1
9853.56
9851.16
9735.36
10126.9
9848.63
9849.35
9729.39
10116.1
9845.95
9849.38
9724.97
10107.7
9845.46
9851.05
9722.22
10101.3
9846.87
9854.05
9721.26
10096.6
9849.89
9858.25
9722.12
10093.7
9854.36
9863.62
9724.64
10092.4
9860.08
9869.89
9728.65
10092.6
9866.76
9876.62
9734.08
10094.1
)
;

boundaryField
{
    leftWall
    {
        type            calculated;
        value           nonuniform List<scalar> 8(68442.1 14519.8 98620.4 15175.7 68248.7 14225 102801 13303.1);
    }
    rightWall
    {
        type            calculated;
        value           nonuniform 0();
    }
    leftSides_periodic0
    {
        type            cyclic;
    }
    leftSides_periodic1
    {
        type            cyclic;
    }
    rightSides_periodic0
    {
        type            cyclic;
    }
    rightSides_periodic1
    {
        type            cyclic;
    }
    leftInOut_periodic0
    {
        type            cyclic;
    }
    leftInOut_periodic1
    {
        type            cyclic;
    }
    rightInOut_periodic0
    {
        type            cyclic;
    }
    rightInOut_periodic1
    {
        type            cyclic;
    }
    procBoundary2to0
    {
        type            processor;
        value           nonuniform List<scalar> 
316
(
122590
142484
125877
141581
122590
142483
125878
141580
122591
142482
125879
141579
122592
142480
125881
141577
122594
142477
125883
141575
122597
142473
125887
141571
122601
142469
125891
141566
122605
142463
125897
141561
122610
142456
125903
141554
122616
142448
125911
141545
122624
142438
125920
141535
122633
142427
125931
141523
122643
142413
125944
141509
122655
142397
125958
141492
122668
142378
125975
141474
122684
142357
125993
141453
122701
142332
126014
141429
122720
142305
126038
141403
122741
142274
126064
141373
122765
142240
126092
141341
122790
142203
126123
141306
122819
142162
126157
141268
122849
142118
126194
141227
122883
142069
126234
141182
122919
142017
126277
141133
122958
141961
126323
141081
123000
141902
126373
141025
123045
141838
126426
140967
123093
141771
126482
140905
123144
141700
126542
140839
123199
141625
126605
140769
123256
141545
126672
140696
123316
141461
126741
140619
123379
141374
126814
140539
123444
141285
126890
140458
123512
141192
126970
140375
123582
141096
127054
140291
123657
140997
127143
140204
123735
140893
127237
140112
123818
140786
127335
140016
123905
140675
127435
139917
123994
140561
127539
139813
124086
140443
127647
139706
124182
140326
127759
139595
124282
140208
127873
139481
124385
140087
127990
139368
124492
139960
128112
139254
124604
139825
128240
139139
124724
139683
128375
139023
124853
139540
128516
138904
124987
139398
128663
138782
125127
139259
128815
138659
125273
139120
128973
138534
125423
138980
129137
138406
125576
138838
129305
138278
125728
138695
129475
138150
125881
138551
129646
138022
126037
138405
129819
137894
126199
138257
129994
137766
126367
138109
130172
137638
126542
137964
130352
137511
126723
137822
130532
137385
126906
137684
130714
137259
127092
137548
130898
137136
127280
137413
131088
137013
127468
137282
131282
136891
127656
137153
131480
136768
127844
137029
131682
136643
128037
136907
131888
136517
128236
136787
132100
136391
128445
136668
132318
136266
128661
136551
132543
136143
128885
136435
132772
136023
129117
136321
133005
135908
129356
136207
133242
135797
129600
136094
133479
135686
129839
135974
133708
135569
130065
135840
133921
135441
130267
135684
134107
135294
)
;
    }
    procBoundary2to0throughleftSides_periodic1
    {
        type            processorCyclic;
        value           nonuniform List<scalar> 
314
(
1.14441e-05
0.00716209
0.0409794
0.115921
0.236393
0.416422
0.666502
1.00395
1.45274
2.04352
2.81931
3.83197
5.14691
6.84281
9.01391
11.7742
15.2612
19.6377
25.0916
31.8381
40.1175
50.2041
62.4082
77.068
94.5338
115.172
139.378
167.572
200.179
237.625
280.338
328.73
383.192
444.024
511.273
584.833
664.778
751.322
844.469
944.182
1050.84
1165.17
1287.78
1418.23
1555.42
1699.33
1851.33
2012.92
2184.2
2363.43
2548.89
2740.71
2940.59
3149.96
3368.44
3594.3
3826.01
4063.11
4306.12
4555.74
4812.07
5073.48
5335.9
5595.08
5850.72
6107.41
6370.31
6640.35
6914.62
7190.54
7467.77
7746.61
8026.22
8304.75
8580.13
8851.52
9119.42
9384.17
9647.46
39199.6
39194.9
39187.4
39176
39159.5
39137.8
39110.4
39076.9
39036.4
38988
38930.5
38862.3
38782.2
38688.8
38580.8
38457
38316
38156.8
37978.1
37779.2
37559.1
37317.4
37053.9
36768.3
36460.9
36131.9
35781.9
35411.8
35022.5
34615
34190.4
33749.5
33293.6
32825
32346.5
31858.3
31358.4
30844.6
30318
29783.7
29247.3
28711.1
28174.6
27637
27098.7
26560.3
26021.1
25479.2
24935
24392.5
23855.6
23326.2
22803.9
22288.6
21781.2
21281.7
20789.7
20305
19829.5
19365.7
18914.7
18474.8
18043.3
17619
17204.8
16804.6
16418.8
16043.4
15674.6
15312.9
14962
14624.6
14299.7
13984
13675
13373.5
13083.4
12809.7
12555.5
2976.92
2977.45
2978.36
2979.8
2981.91
2984.71
2988.24
2992.6
2997.88
3004.21
3011.76
3020.68
3031.15
3043.34
3057.44
3073.63
3092.14
3113.18
3136.98
3163.8
3193.95
3227.75
3265.5
3307.48
3353.95
3405.16
3461.33
3522.68
3589.37
3661.63
3739.78
3824.17
3915.08
4012.62
4116.61
4226.45
4341.08
4459.56
4582.4
4711.6
4849
4995.05
5148.95
5310.27
5479.91
5658.38
5844.58
6036.73
6233.49
6433.93
6637.67
6845.58
7059.89
7282.41
7513.02
7750.32
7993.33
8241.4
8493.59
8749.32
9008.62
9271.05
9534.7
9797.27
10058.9
10323.1
10592.8
10866.9
11141.5
11415
11687.3
11958.9
12230.3
12501.1
12770.3
13037.6
13302.3
13563.6
38759.9
38755.1
38747.4
38735.5
38718.4
38696
38667.6
38632.9
38591
38540.8
38481
38410.2
38326.8
38229.5
38116.9
37987.7
37840.9
37675.1
37489.4
37282.9
37054.8
36804.6
36532
36237.1
35919.9
35581.2
35221.4
34841.1
34440.7
34020.8
33582.6
33127.8
32659
32179.3
31691.2
31194.4
30686.3
30164.2
29628.4
29083.2
28533.6
27982.8
27431.9
26879.4
26322.9
25760.4
25192.2
24621.8
24054.3
23493
22939.4
22392.3
21849.3
21309.5
20774.7
20247.7
19730.2
19221.7
18722.4
18234.2
17757.9
17292
16834.6
16385.6
15946.9
15520.5
15105.3
14697.8
14295.9
13900.9
13515.7
13141.3
12776.5
12420.2
12073.3
11739.9
11425.8
11138.5
)
;
    }
    procBoundary2to1throughleftSides_periodic1
    {
        type            processorCyclic;
        value           nonuniform List<scalar> 2(13822.3 10879.9);
    }
    procBoundary2to1throughrightSides_periodic1
    {
        type            processorCyclic;
        value           nonuniform List<scalar> 2(9915.34 12315.4);
    }
    procBoundary2to3
    {
        type            processor;
        value           nonuniform List<scalar> 
11
(
79266.5
80653.5
79966.7
81553.9
9874.12
9883.92
79266.5
80653.5
9741.05
9874.12
10097.1
)
;
    }
    procBoundary2to3throughrightInOut_periodic1
    {
        type            processorCyclic;
        value           uniform 9883.92;
    }
}


// ************************************************************************* //
