/*--------------------------------*- C++ -*----------------------------------*\
| =========                 |                                                 |
| \\      /  F ield         | OpenFOAM: The Open Source CFD Toolbox           |
|  \\    /   O peration     | Version:  v1906                                 |
|   \\  /    A nd           | Web:      www.OpenFOAM.com                      |
|    \\/     M anipulation  |                                                 |
\*---------------------------------------------------------------------------*/
FoamFile
{
    version     2.0;
    format      ascii;
    class       volSymmTensorField;
    location    "97.2";
    object      UPrime2Mean;
}
// * * * * * * * * * * * * * * * * * * * * * * * * * * * * * * * * * * * * * //

dimensions      [0 2 -2 0 0 0 0];


internalField   nonuniform List<symmTensor> 
634
(
(2.56935e-06 5.25859e-09 6.86636e-07 1.83991e-09 2.87218e-08 7.35606e-06)
(1.64746e-06 -8.8048e-11 1.28969e-07 1.94745e-09 -3.85831e-08 5.35408e-06)
(2.57263e-06 -5.21098e-09 -6.95804e-07 1.82493e-09 3.1024e-08 7.10554e-06)
(1.65158e-06 2.2368e-12 -1.85724e-07 2.13269e-09 -4.87665e-08 5.25187e-06)
(1.03274e-05 2.48619e-08 9.89876e-07 7.70075e-09 5.4343e-08 1.4643e-05)
(5.95532e-06 -3.29978e-09 8.56485e-08 8.15695e-09 -5.84771e-08 1.31728e-05)
(1.03569e-05 -2.31706e-08 -1.00207e-06 7.40064e-09 5.27705e-08 1.36151e-05)
(5.99047e-06 5.39939e-09 -4.60281e-07 8.50635e-09 -7.18309e-08 1.2008e-05)
(1.27439e-05 5.14116e-08 -1.2315e-07 3.37349e-08 -3.20135e-08 2.13447e-05)
(6.22794e-06 -1.63158e-08 -5.48808e-07 3.54361e-08 5.60991e-08 2.62634e-05)
(1.28376e-05 -4.5209e-08 1.09621e-07 3.33522e-08 -4.78806e-08 2.0032e-05)
(6.31627e-06 1.60371e-08 -3.20811e-07 3.79656e-08 6.86287e-08 2.40615e-05)
(1.48276e-05 7.35387e-08 -6.85123e-07 7.48351e-08 -1.98864e-07 3.84915e-05)
(6.33935e-06 -2.7552e-08 -1.17078e-06 7.72743e-08 2.7598e-07 4.92874e-05)
(1.50251e-05 -6.04758e-08 6.87854e-07 7.38224e-08 -2.36607e-07 3.65575e-05)
(6.49512e-06 2.78067e-08 -3.81129e-07 8.22864e-08 3.32013e-07 4.57754e-05)
(1.83942e-05 9.48064e-08 -1.03461e-06 1.30464e-07 -3.37742e-07 5.78936e-05)
(7.4957e-06 -4.0631e-08 -1.7335e-06 1.33947e-07 4.93206e-07 7.4765e-05)
(1.87237e-05 -7.21162e-08 1.10424e-06 1.29069e-07 -4.05563e-07 5.46872e-05)
(7.73521e-06 3.94423e-08 -6.42772e-07 1.42599e-07 5.84556e-07 6.90757e-05)
(2.22662e-05 1.17795e-07 -1.39373e-06 2.02926e-07 -4.54016e-07 7.79017e-05)
(8.96339e-06 -5.4592e-08 -2.29564e-06 2.07527e-07 7.17953e-07 0.000101561)
(2.2759e-05 -8.30501e-08 1.5905e-06 2.00897e-07 -5.57501e-07 7.29665e-05)
(9.2976e-06 5.24809e-08 -9.76676e-07 2.20658e-07 8.39265e-07 9.28865e-05)
(2.59721e-05 1.4067e-07 -1.76111e-06 2.91622e-07 -5.52282e-07 9.843e-05)
(1.04855e-05 -6.99709e-08 -2.85777e-06 2.97635e-07 9.70925e-07 0.000129376)
(2.66618e-05 -9.1402e-08 2.14957e-06 2.88704e-07 -6.96693e-07 9.1505e-05)
(1.09185e-05 6.71905e-08 -1.3249e-06 3.16114e-07 1.12033e-06 0.000117113)
(2.92772e-05 1.6253e-07 -2.11114e-06 3.96601e-07 -6.42748e-07 0.000119175)
(1.1946e-05 -8.69316e-08 -3.40313e-06 4.04551e-07 1.26611e-06 0.000157579)
(3.01946e-05 -9.6456e-08 2.75543e-06 3.92532e-07 -8.32252e-07 0.000110196)
(1.24738e-05 8.39961e-08 -1.6553e-06 4.29306e-07 1.44392e-06 0.000141364)
(3.20654e-05 1.82813e-07 -2.41806e-06 5.18123e-07 -7.35792e-07 0.000139644)
(1.3289e-05 -1.05502e-07 -3.91054e-06 5.28516e-07 1.60965e-06 0.00018537)
(3.3233e-05 -9.79204e-08 3.37888e-06 5.12734e-07 -9.73691e-07 0.000128725)
(1.38976e-05 1.03249e-07 -1.95057e-06 5.60515e-07 1.81767e-06 0.000165064)
(3.43038e-05 2.00982e-07 -2.65902e-06 6.56502e-07 -8.39612e-07 0.00015934)
(1.44927e-05 -1.26082e-07 -4.35924e-06 6.69865e-07 2.00534e-06 0.000212015)
(3.57302e-05 -9.56715e-08 3.99319e-06 6.49774e-07 -1.12798e-06 0.00014672)
(1.51563e-05 1.25046e-07 -2.20571e-06 7.10152e-07 2.24336e-06 0.000187658)
(3.60288e-05 2.1656e-07 -2.82125e-06 8.11765e-07 -9.56102e-07 0.000177857)
(1.55603e-05 -1.48564e-07 -4.73815e-06 8.28423e-07 2.45094e-06 0.000236975)
(3.77087e-05 -8.95817e-08 4.57959e-06 8.03892e-07 -1.29554e-06 0.000163824)
(1.62435e-05 1.49173e-07 -2.42522e-06 8.78197e-07 2.71693e-06 0.000208722)
(3.73208e-05 2.29795e-07 -2.9042e-06 9.82862e-07 -1.07759e-06 0.000194938)
(1.65095e-05 -1.71982e-07 -5.04838e-06 1.00264e-06 2.93114e-06 0.000259948)
(3.92369e-05 -7.96444e-08 5.1238e-06 9.73648e-07 -1.46549e-06 0.000179772)
(1.71788e-05 1.75344e-07 -2.61603e-06 1.06304e-06 3.22281e-06 0.000227979)
(3.82657e-05 2.41505e-07 -2.91219e-06 1.16754e-06 -1.19236e-06 0.000210485)
(1.73597e-05 -1.96039e-07 -5.29927e-06 1.19097e-06 3.43097e-06 0.000280869)
(4.03922e-05 -6.66264e-08 5.61503e-06 1.15658e-06 -1.6245e-06 0.000194465)
(1.79918e-05 2.03788e-07 -2.78278e-06 1.26319e-06 3.74277e-06 0.000245307)
(3.89301e-05 2.52254e-07 -2.85186e-06 1.365e-06 -1.29859e-06 0.000224503)
(1.81247e-05 -2.21175e-07 -5.50502e-06 1.39314e-06 3.94701e-06 0.000299795)
(4.1238e-05 -5.16363e-08 6.04645e-06 1.35263e-06 -1.77374e-06 0.00020792)
(1.87083e-05 2.34704e-07 -2.92901e-06 1.47854e-06 4.26966e-06 0.000260705)
(3.93565e-05 2.6204e-07 -2.73194e-06 1.5767e-06 -1.40418e-06 0.000237083)
(1.88099e-05 -2.47581e-07 -5.6745e-06 1.61004e-06 4.4843e-06 0.000316836)
(4.18137e-05 -3.50107e-08 6.41421e-06 1.56355e-06 -1.92326e-06 0.000220214)
(1.93406e-05 2.67813e-07 -3.06009e-06 1.70976e-06 4.80453e-06 0.000274271)
(3.95746e-05 2.70737e-07 -2.5613e-06 1.80358e-06 -1.5129e-06 0.000248344)
(1.94163e-05 -2.74837e-07 -5.81147e-06 1.84243e-06 5.04301e-06 0.000332108)
(4.21488e-05 -1.65954e-08 6.71815e-06 1.79029e-06 -2.07738e-06 0.000231419)
(1.98894e-05 3.02963e-07 -3.18066e-06 1.95766e-06 5.34747e-06 0.000286156)
(3.96173e-05 2.78747e-07 -2.34949e-06 2.04551e-06 -1.62627e-06 0.000258364)
(1.99482e-05 -3.02837e-07 -5.92142e-06 2.09013e-06 5.61683e-06 0.000345683)
(4.22761e-05 3.08953e-09 6.95692e-06 2.03239e-06 -2.23682e-06 0.000241569)
(2.0357e-05 3.39971e-07 -3.29214e-06 2.22176e-06 5.89389e-06 0.000296487)
(3.9519e-05 2.86489e-07 -2.10367e-06 2.30227e-06 -1.74744e-06 0.000267227)
(2.04125e-05 -3.31573e-07 -6.01509e-06 2.35204e-06 6.20248e-06 0.000357593)
(4.22272e-05 2.3705e-08 7.1278e-06 2.28878e-06 -2.39882e-06 0.000250675)
(2.07507e-05 3.78723e-07 -3.39266e-06 2.50095e-06 6.44024e-06 0.00030539)
(3.93113e-05 2.94405e-07 -1.82523e-06 2.5743e-06 -1.88102e-06 0.000275023)
(2.08182e-05 -3.60514e-07 -6.11001e-06 2.62702e-06 6.79804e-06 0.000367841)
(4.20298e-05 4.54748e-08 7.23316e-06 2.55887e-06 -2.55756e-06 0.000258726)
(2.10798e-05 4.18715e-07 -3.47781e-06 2.79501e-06 6.987e-06 0.000312981)
(3.90207e-05 3.03544e-07 -1.52202e-06 2.86129e-06 -2.02029e-06 0.000281757)
(2.11741e-05 -3.89725e-07 -6.22193e-06 2.91539e-06 7.39671e-06 0.000376463)
(4.17071e-05 6.8772e-08 7.28587e-06 2.84352e-06 -2.71666e-06 0.000265748)
(2.13541e-05 4.59674e-07 -3.5396e-06 3.10447e-06 7.53402e-06 0.000319369)
(3.86672e-05 3.12861e-07 -1.21392e-06 3.16214e-06 -2.1406e-06 0.000287348)
(2.14817e-05 -4.183e-07 -6.34668e-06 3.21963e-06 7.98736e-06 0.000383582)
(4.12775e-05 9.33087e-08 7.30317e-06 3.14535e-06 -2.88156e-06 0.000271793)
(2.1584e-05 5.03455e-07 -3.56965e-06 3.43014e-06 8.08089e-06 0.000324718)
(3.82661e-05 3.21847e-07 -9.26707e-07 3.47808e-06 -2.24423e-06 0.000291813)
(2.17315e-05 -4.4677e-07 -6.44656e-06 3.53907e-06 8.57158e-06 0.000389403)
(4.07576e-05 1.17503e-07 7.2937e-06 3.46328e-06 -3.04925e-06 0.000276934)
(2.17768e-05 5.49753e-07 -3.57777e-06 3.77041e-06 8.62916e-06 0.000329278)
(3.78197e-05 3.28666e-07 -6.96131e-07 3.80834e-06 -2.37787e-06 0.000295344)
(2.1912e-05 -4.75521e-07 -6.47618e-06 3.8703e-06 9.17687e-06 0.000394145)
(4.01646e-05 1.39763e-07 7.26192e-06 3.79241e-06 -3.22015e-06 0.000281393)
(2.19337e-05 5.9478e-07 -3.60568e-06 4.12558e-06 9.16974e-06 0.000333186)
(3.7322e-05 3.28101e-07 -5.50422e-07 4.15196e-06 -2.56842e-06 0.000298262)
(2.2024e-05 -5.0293e-07 -6.42673e-06 4.21692e-06 9.79266e-06 0.000398076)
(3.95179e-05 1.62405e-07 7.22482e-06 4.13534e-06 -3.40534e-06 0.00028547)
(2.20529e-05 6.35488e-07 -3.70308e-06 4.50051e-06 9.67911e-06 0.00033643)
(3.67732e-05 3.27692e-07 -4.61e-07 4.50962e-06 -2.76951e-06 0.000300924)
(2.2078e-05 -5.3227e-07 -6.3164e-06 4.58683e-06 1.03795e-05 0.00040131)
(3.88429e-05 1.84017e-07 7.2014e-06 4.50026e-06 -3.5929e-06 0.000289205)
(2.21261e-05 6.74183e-07 -3.86126e-06 4.90182e-06 1.01842e-05 0.000339045)
(3.61857e-05 3.33967e-07 -3.36032e-07 4.88345e-06 -2.90622e-06 0.000303659)
(2.20805e-05 -5.69598e-07 -6.15079e-06 4.9685e-06 1.09413e-05 0.00040366)
(3.81743e-05 2.00345e-07 7.16634e-06 4.89477e-06 -3.76286e-06 0.000292376)
(2.2143e-05 7.25497e-07 -4.00817e-06 5.3173e-06 1.07135e-05 0.000340983)
(3.55863e-05 3.46871e-07 -1.35521e-07 5.27335e-06 -2.96662e-06 0.00030621)
(2.20297e-05 -6.04708e-07 -5.89916e-06 5.34682e-06 1.14426e-05 0.000404605)
(3.75256e-05 2.26577e-07 7.03078e-06 5.30745e-06 -3.93462e-06 0.000294939)
(2.20857e-05 7.94116e-07 -4.11044e-06 5.7186e-06 1.11309e-05 0.000342072)
(3.50059e-05 3.59284e-07 5.12068e-08 5.67365e-06 -2.99249e-06 0.000308161)
(2.19579e-05 -6.30893e-07 -5.567e-06 5.73056e-06 1.19099e-05 0.000403874)
(3.6871e-05 2.72613e-07 6.72039e-06 5.70378e-06 -4.09106e-06 0.0002965)
(2.19461e-05 8.66182e-07 -4.23854e-06 6.10533e-06 1.14074e-05 0.000342356)
(3.44496e-05 3.57024e-07 6.1677e-08 6.1006e-06 -3.07083e-06 0.000308734)
(2.19108e-05 -6.58562e-07 -5.26606e-06 6.14417e-06 1.24358e-05 0.000402526)
(3.61557e-05 3.21072e-07 6.31268e-06 6.07896e-06 -4.20207e-06 0.000295997)
(2.17298e-05 9.24447e-07 -4.49148e-06 6.52495e-06 1.17211e-05 0.000343004)
(3.39097e-05 3.41478e-07 -8.96583e-08 6.56702e-06 -3.28165e-06 0.000307495)
(2.18677e-05 -7.02088e-07 -5.19072e-06 6.5962e-06 1.30583e-05 0.000402394)
(3.53468e-05 3.29606e-07 6.06333e-06 6.48208e-06 -4.25305e-06 0.000293403)
(2.14301e-05 9.69886e-07 -4.8278e-06 7.02117e-06 1.22322e-05 0.000345102)
(3.34223e-05 3.07105e-07 -2.26172e-07 7.04671e-06 -3.54739e-06 0.000304987)
(2.1744e-05 -7.63857e-07 -5.30911e-06 7.06224e-06 1.36862e-05 0.000403987)
(3.44761e-05 3.0198e-07 6.08208e-06 6.96602e-06 -4.33131e-06 0.000292027)
(2.10696e-05 1.02022e-06 -4.95362e-06 7.55752e-06 1.28565e-05 0.000347304)
(3.30465e-05 2.94008e-07 -1.47191e-07 7.50223e-06 -3.68527e-06 0.000302878)
(2.14923e-05 -8.43081e-07 -5.49121e-06 7.52388e-06 1.42356e-05 0.000406932)
(3.36097e-05 2.85672e-07 6.20769e-06 7.51877e-06 -4.44081e-06 0.000293665)
(2.06591e-05 1.08042e-06 -4.78893e-06 8.07396e-06 1.33206e-05 0.000347797)
(3.27965e-05 3.40089e-07 8.1468e-08 7.93248e-06 -3.6124e-06 0.000302479)
(2.11935e-05 -9.23472e-07 -5.63188e-06 7.98474e-06 1.46809e-05 0.000409454)
(3.27937e-05 3.12667e-07 6.209e-06 8.06448e-06 -4.48203e-06 0.0002968)
(2.02374e-05 1.13411e-06 -4.52989e-06 8.56931e-06 1.36029e-05 0.000346871)
(3.2527e-05 4.16855e-07 2.24873e-09 8.39385e-06 -3.52507e-06 0.000303148)
(2.08685e-05 -9.59573e-07 -5.52612e-06 8.46747e-06 1.51649e-05 0.000410617)
(3.20085e-05 3.61513e-07 6.18746e-06 8.5518e-06 -4.51305e-06 0.000300535)
(1.98108e-05 1.18675e-06 -4.16119e-06 9.0857e-06 1.38546e-05 0.000346668)
(3.21123e-05 4.75951e-07 -2.35947e-07 8.95201e-06 -3.62471e-06 0.000303604)
(2.04881e-05 -9.59549e-07 -5.06966e-06 8.98636e-06 1.5649e-05 0.000409253)
(3.12026e-05 4.00048e-07 6.29006e-06 9.01366e-06 -4.64291e-06 0.000304145)
(1.9378e-05 1.25142e-06 -3.70957e-06 9.63897e-06 1.41378e-05 0.000347468)
(3.15851e-05 4.52712e-07 -3.81743e-07 9.58251e-06 -3.87339e-06 0.000302789)
(2.00749e-05 -9.52237e-07 -4.41338e-06 9.54961e-06 1.59867e-05 0.000405192)
(3.0407e-05 4.27451e-07 6.44871e-06 9.54407e-06 -4.85349e-06 0.000306168)
(1.89594e-05 1.30349e-06 -3.41716e-06 1.02005e-05 1.43971e-05 0.000347162)
(3.10387e-05 4.1135e-07 -6.91597e-07 1.02031e-05 -4.11947e-06 0.000301013)
(1.96989e-05 -9.84408e-07 -4.01339e-06 1.01513e-05 1.63594e-05 0.000400746)
(2.96956e-05 4.48914e-07 6.36558e-06 1.01939e-05 -5.11714e-06 0.000305407)
(1.85447e-05 1.34588e-06 -3.33922e-06 1.07626e-05 1.47055e-05 0.000344247)
(3.05181e-05 3.69846e-07 -1.05971e-06 1.07361e-05 -4.356e-06 0.00029956)
(1.94356e-05 -1.01894e-06 -3.76028e-06 1.07235e-05 1.69607e-05 0.000398239)
(2.89851e-05 4.82328e-07 5.99903e-06 1.08538e-05 -5.44069e-06 0.000301944)
(1.8111e-05 1.3929e-06 -3.33449e-06 1.13531e-05 1.515e-05 0.000340472)
(3.00014e-05 3.53805e-07 -1.27391e-06 1.12184e-05 -4.5694e-06 0.000298694)
(1.92543e-05 -1.05083e-06 -3.63424e-06 1.12249e-05 1.76127e-05 0.000396784)
(2.81854e-05 4.82907e-07 5.76674e-06 1.14013e-05 -5.64632e-06 0.00029675)
(1.76294e-05 1.45714e-06 -3.41695e-06 1.1983e-05 1.54861e-05 0.000337235)
(2.95437e-05 3.42977e-07 -1.15718e-06 1.17882e-05 -4.71641e-06 0.000296341)
(1.9035e-05 -1.05594e-06 -3.28281e-06 1.17252e-05 1.7997e-05 0.000392432)
(2.73115e-05 4.85186e-07 5.73682e-06 1.19205e-05 -5.68963e-06 0.000291049)
(1.70891e-05 1.50188e-06 -3.70263e-06 1.2616e-05 1.56449e-05 0.000332547)
(2.91635e-05 3.38146e-07 -7.47973e-07 1.24918e-05 -4.73826e-06 0.000292386)
(1.87162e-05 -1.05787e-06 -2.77341e-06 1.23346e-05 1.81105e-05 0.000384515)
(2.64359e-05 4.96071e-07 5.70639e-06 1.25351e-05 -5.72117e-06 0.000285301)
(1.65779e-05 1.53911e-06 -3.93931e-06 1.32863e-05 1.56865e-05 0.000326185)
(2.87977e-05 3.5869e-07 -4.40973e-07 1.32241e-05 -4.91145e-06 0.000290236)
(1.83257e-05 -1.09971e-06 -2.22148e-06 1.30298e-05 1.83743e-05 0.000377849)
(2.56173e-05 5.18268e-07 5.54083e-06 1.32688e-05 -6.05386e-06 0.000281431)
(1.61191e-05 1.59844e-06 -3.90239e-06 1.4013e-05 1.59319e-05 0.000320402)
(2.8395e-05 3.84407e-07 -4.72616e-07 1.38702e-05 -5.23658e-06 0.000288562)
(1.79238e-05 -1.14062e-06 -1.66441e-06 1.37051e-05 1.8755e-05 0.00037318)
(2.4888e-05 5.28704e-07 5.25584e-06 1.40146e-05 -6.38665e-06 0.000278005)
(1.56742e-05 1.65485e-06 -3.70405e-06 1.46905e-05 1.606e-05 0.000315372)
(2.79646e-05 4.07086e-07 -7.52648e-07 1.44607e-05 -5.46334e-06 0.000285205)
(1.75409e-05 -1.16773e-06 -1.13776e-06 1.43441e-05 1.91756e-05 0.00036925)
(2.42069e-05 5.14201e-07 4.95141e-06 1.46905e-05 -6.43524e-06 0.000274979)
(1.52159e-05 1.70794e-06 -3.36719e-06 1.52807e-05 1.60379e-05 0.000311525)
(2.75251e-05 4.00987e-07 -1.13211e-06 1.51138e-05 -5.61503e-06 0.0002811)
(1.71651e-05 -1.1795e-06 -5.92292e-07 1.50097e-05 1.94955e-05 0.000364732)
(2.35408e-05 4.89634e-07 4.7778e-06 1.53611e-05 -6.41517e-06 0.000273709)
(1.47404e-05 1.74596e-06 -2.81165e-06 1.59051e-05 1.61592e-05 0.000309564)
(2.71206e-05 4.07337e-07 -1.51342e-06 1.58897e-05 -5.87352e-06 0.000277125)
(1.67903e-05 -1.19505e-06 -1.44802e-07 1.5707e-05 1.97364e-05 0.000358632)
(2.28863e-05 4.62645e-07 4.66849e-06 1.60839e-05 -6.5343e-06 0.000272078)
(1.42811e-05 1.77676e-06 -2.38416e-06 1.66782e-05 1.62294e-05 0.000305303)
(2.67872e-05 4.12577e-07 -1.75057e-06 1.66748e-05 -6.1638e-06 0.000272811)
(1.64258e-05 -1.21026e-06 3.00506e-07 1.63608e-05 1.98637e-05 0.000350775)
(2.22347e-05 4.61928e-07 4.35987e-06 1.68015e-05 -6.61788e-06 0.000267717)
(1.38545e-05 1.78887e-06 -2.26915e-06 1.75196e-05 1.63981e-05 0.000299695)
(2.64078e-05 4.4098e-07 -2.04108e-06 1.7378e-05 -6.32711e-06 0.000267321)
(1.6077e-05 -1.22318e-06 8.19505e-07 1.70106e-05 1.98968e-05 0.00034237)
(2.157e-05 4.86081e-07 3.77972e-06 1.75151e-05 -6.56951e-06 0.000261993)
(1.34319e-05 1.79267e-06 -2.2232e-06 1.83429e-05 1.65252e-05 0.00029361)
(2.59022e-05 4.39118e-07 -2.51954e-06 1.8027e-05 -6.25342e-06 0.000261843)
(1.5739e-05 -1.23634e-06 1.45893e-06 1.77453e-05 2.00535e-05 0.000336502)
(2.09426e-05 4.73807e-07 3.41057e-06 1.82798e-05 -6.4773e-06 0.00025666)
(1.30034e-05 1.81804e-06 -2.10771e-06 1.91204e-05 1.66424e-05 0.000287936)
(2.52898e-05 3.97159e-07 -3.07745e-06 1.87795e-05 -6.01306e-06 0.000258763)
(1.54237e-05 -1.22296e-06 2.1898e-06 1.85727e-05 2.01581e-05 0.000332103)
(2.0362e-05 4.60999e-07 3.0937e-06 1.91099e-05 -6.49634e-06 0.000251602)
(1.25679e-05 1.85011e-06 -1.90708e-06 1.98569e-05 1.65517e-05 0.000282169)
(2.47896e-05 4.04161e-07 -3.36131e-06 1.96523e-05 -5.8299e-06 0.000257852)
(1.51551e-05 -1.17871e-06 2.99189e-06 1.94089e-05 2.01343e-05 0.000327287)
(1.97867e-05 4.61854e-07 2.76746e-06 1.9976e-05 -6.56039e-06 0.000246062)
(1.21628e-05 1.865e-06 -1.65034e-06 2.06046e-05 1.63099e-05 0.000275196)
(2.44318e-05 4.45538e-07 -3.63034e-06 2.05504e-05 -5.81636e-06 0.000255696)
(1.49783e-05 -1.13552e-06 3.95257e-06 2.0162e-05 2.00388e-05 0.000322449)
(1.92525e-05 4.31391e-07 2.8074e-06 2.08478e-05 -6.705e-06 0.000240534)
(1.18673e-05 1.87186e-06 -1.36559e-06 2.14269e-05 1.60663e-05 0.000267231)
(2.41799e-05 4.93679e-07 -4.16732e-06 2.13852e-05 -5.86657e-06 0.000250273)
(1.49188e-05 -1.1192e-06 5.07903e-06 2.08543e-05 1.98451e-05 0.000317487)
(1.87727e-05 3.82599e-07 3.05274e-06 2.17074e-05 -6.76987e-06 0.000235364)
(1.15883e-05 1.90097e-06 -1.07874e-06 2.2371e-05 1.58593e-05 0.000259033)
(2.39976e-05 5.01066e-07 -4.47231e-06 2.21113e-05 -5.79428e-06 0.00024367)
(1.49619e-05 -1.14378e-06 6.06106e-06 2.15744e-05 1.96034e-05 0.000311816)
(1.83407e-05 3.45798e-07 3.1561e-06 2.24841e-05 -6.47819e-06 0.000229883)
(1.1286e-05 1.93614e-06 -1.0073e-06 2.31814e-05 1.52468e-05 0.000250554)
(2.37928e-05 5.30841e-07 -4.58161e-06 2.28408e-05 -5.53686e-06 0.000237153)
(1.49408e-05 -1.13125e-06 6.82843e-06 2.24225e-05 1.94479e-05 0.00030604)
(1.79527e-05 3.44951e-07 3.15052e-06 2.31773e-05 -6.06469e-06 0.000224579)
(1.1037e-05 1.9526e-06 -1.19049e-06 2.39297e-05 1.45017e-05 0.00024228)
(2.35289e-05 5.84753e-07 -4.63816e-06 2.36969e-05 -5.36386e-06 0.000230672)
(1.48266e-05 -1.12337e-06 7.41495e-06 2.33834e-05 1.94548e-05 0.000302253)
(1.75856e-05 3.26157e-07 3.26984e-06 2.39653e-05 -5.80405e-06 0.000218669)
(1.08786e-05 1.98993e-06 -1.41102e-06 2.49128e-05 1.43025e-05 0.000237121)
(2.32424e-05 6.67581e-07 -4.9469e-06 2.46759e-05 -5.61653e-06 0.000226473)
(1.46879e-05 -1.12525e-06 8.11705e-06 2.4322e-05 1.92606e-05 0.00029908)
(1.72365e-05 2.73418e-07 3.58643e-06 2.50536e-05 -5.86786e-06 0.00021353)
(1.08313e-05 2.01964e-06 -1.6753e-06 2.60554e-05 1.43096e-05 0.000233711)
(2.29881e-05 6.92369e-07 -5.32629e-06 2.5662e-05 -5.92661e-06 0.00022041)
(1.45711e-05 -1.09049e-06 9.156e-06 2.51396e-05 1.89691e-05 0.000297048)
(1.69422e-05 2.92009e-07 3.71628e-06 2.6234e-05 -6.16463e-06 0.000209091)
(1.0776e-05 2.06068e-06 -1.73536e-06 2.70913e-05 1.39901e-05 0.000228284)
(2.27476e-05 7.01637e-07 -5.87148e-06 2.65561e-05 -6.06153e-06 0.00021217)
(1.44705e-05 -1.0236e-06 1.01007e-05 2.59347e-05 1.86238e-05 0.000294841)
(1.66792e-05 3.42103e-07 3.62485e-06 2.71225e-05 -6.43498e-06 0.000204503)
(1.06986e-05 2.08549e-06 -1.62551e-06 2.79199e-05 1.33934e-05 0.000221775)
(2.25231e-05 7.10353e-07 -6.25416e-06 2.74247e-05 -6.10318e-06 0.000205786)
(1.43474e-05 -9.59134e-07 1.06394e-05 2.68292e-05 1.81112e-05 0.000290792)
(1.64602e-05 4.17713e-07 3.33318e-06 2.78473e-05 -6.5926e-06 0.00020029)
(1.06637e-05 2.07611e-06 -1.33567e-06 2.87288e-05 1.29293e-05 0.000215439)
(2.22988e-05 7.14103e-07 -6.37168e-06 2.82808e-05 -6.09582e-06 0.000202512)
(1.41976e-05 -9.12304e-07 1.08158e-05 2.78362e-05 1.75889e-05 0.000284955)
(1.63361e-05 4.13451e-07 3.11359e-06 2.86979e-05 -6.56404e-06 0.000196609)
(1.06805e-05 2.05413e-06 -9.05467e-07 2.96252e-05 1.2383e-05 0.000211308)
(2.20307e-05 7.71315e-07 -6.45564e-06 2.91488e-05 -5.94929e-06 0.000201947)
(1.40761e-05 -8.49652e-07 1.10004e-05 2.8824e-05 1.69892e-05 0.000278761)
(1.62263e-05 3.36525e-07 3.19189e-06 2.96497e-05 -6.49369e-06 0.00019389)
(1.07421e-05 2.09319e-06 -3.70099e-07 3.06603e-05 1.16445e-05 0.000208929)
(2.17583e-05 8.57104e-07 -6.46903e-06 3.00166e-05 -5.57746e-06 0.000201849)
(1.40014e-05 -7.63572e-07 1.11459e-05 2.96755e-05 1.6224e-05 0.000275621)
(1.60844e-05 2.98757e-07 3.51064e-06 3.06112e-05 -6.61577e-06 0.000191735)
(1.08572e-05 2.17394e-06 2.54331e-07 3.16977e-05 1.07951e-05 0.000206633)
(2.14479e-05 8.78243e-07 -6.27988e-06 3.08201e-05 -5.14989e-06 0.000198921)
(1.39222e-05 -6.87441e-07 1.12192e-05 3.05078e-05 1.51938e-05 0.000272909)
(1.5959e-05 3.17623e-07 3.8348e-06 3.16211e-05 -6.8256e-06 0.000189318)
(1.09948e-05 2.21541e-06 5.0382e-07 3.26392e-05 9.97274e-06 0.000204107)
(2.10677e-05 8.51771e-07 -6.01578e-06 3.17049e-05 -4.99381e-06 0.000196709)
(1.38441e-05 -6.67942e-07 1.10774e-05 3.14395e-05 1.41348e-05 0.000270422)
(1.58698e-05 3.11063e-07 4.15585e-06 3.2526e-05 -6.85259e-06 0.000187102)
(1.11741e-05 2.24492e-06 3.74483e-07 3.35934e-05 9.20023e-06 0.000202841)
(2.06867e-05 8.64968e-07 -6.12121e-06 3.25918e-05 -5.08111e-06 0.000198606)
(1.38011e-05 -6.15149e-07 1.11386e-05 3.24767e-05 1.32263e-05 0.000270303)
(1.58343e-05 3.34233e-07 4.28154e-06 3.32891e-05 -6.76678e-06 0.000186417)
(1.1386e-05 2.31544e-06 4.77619e-07 3.46836e-05 8.83075e-06 0.000205868)
(2.0366e-05 8.9224e-07 -6.38431e-06 3.33754e-05 -5.37087e-06 0.000202676)
(1.38345e-05 -5.54529e-07 1.1289e-05 3.34742e-05 1.25679e-05 0.000273546)
(1.58732e-05 3.76789e-07 4.11854e-06 3.41036e-05 -6.81506e-06 0.000189395)
(1.16185e-05 2.351e-06 6.51997e-07 3.57399e-05 8.40451e-06 0.000211097)
(2.00526e-05 9.06358e-07 -6.39917e-06 3.42688e-05 -5.69833e-06 0.000207674)
(1.38708e-05 -5.19204e-07 1.12789e-05 3.42961e-05 1.16574e-05 0.000276107)
(1.58564e-05 3.6646e-07 4.29278e-06 3.50445e-05 -6.85693e-06 0.000193283)
(1.18882e-05 2.36211e-06 7.31986e-07 3.66316e-05 7.5984e-06 0.000215386)
(1.96702e-05 9.56039e-07 -6.16269e-06 3.51985e-05 -5.94207e-06 0.000210109)
(1.38881e-05 -4.88496e-07 1.11959e-05 3.51059e-05 1.0581e-05 0.000275937)
(1.57668e-05 3.27935e-07 4.93592e-06 3.5951e-05 -6.71739e-06 0.000195859)
(1.22614e-05 2.39423e-06 4.77505e-07 3.74639e-05 6.50106e-06 0.000218037)
(1.92446e-05 9.53882e-07 -5.80996e-06 3.59669e-05 -6.12487e-06 0.000211031)
(1.38703e-05 -4.08323e-07 1.13903e-05 3.59693e-05 9.28216e-06 0.000274966)
(1.56676e-05 3.00537e-07 5.50584e-06 3.67471e-05 -6.43099e-06 0.000197546)
(1.27068e-05 2.39637e-06 -4.9468e-08 3.83275e-05 5.37913e-06 0.000221869)
(1.8887e-05 9.9035e-07 -5.87361e-06 3.65712e-05 -6.23986e-06 0.00021505)
(1.38339e-05 -3.45954e-07 1.17075e-05 3.70316e-05 7.73674e-06 0.000275985)
(1.56022e-05 2.86897e-07 6.02725e-06 3.74968e-05 -6.50393e-06 0.0002006)
(1.32135e-05 2.33709e-06 -6.36589e-07 3.92144e-05 4.39313e-06 0.000228414)
(1.85537e-05 1.04884e-06 -6.45544e-06 3.72262e-05 -6.3951e-06 0.00022081)
(1.37494e-05 -2.95474e-07 1.17724e-05 3.80861e-05 6.29585e-06 0.000281097)
(1.5569e-05 2.94237e-07 6.43489e-06 3.82412e-05 -6.54213e-06 0.000203874)
(1.37391e-05 2.35505e-06 -7.35293e-07 4.0201e-05 3.53938e-06 0.000237708)
(1.82655e-05 1.05476e-06 -6.8496e-06 3.80725e-05 -6.57422e-06 0.000227254)
(1.36538e-05 -2.40628e-07 1.14826e-05 3.88581e-05 5.02594e-06 0.000289538)
(1.55849e-05 3.03732e-07 6.76737e-06 3.89583e-05 -6.42409e-06 0.000209123)
(1.41668e-05 2.40851e-06 -8.22063e-07 4.11684e-05 2.79913e-06 0.00024849)
(1.79521e-05 1.07036e-06 -7.11201e-06 3.88079e-05 -6.83881e-06 0.000235512)
(1.35938e-05 -2.35116e-07 1.08347e-05 3.96252e-05 3.65388e-06 0.000299072)
(1.56292e-05 3.27728e-07 6.89769e-06 3.97128e-05 -6.45803e-06 0.000217226)
(1.45071e-05 2.40789e-06 -1.24968e-06 4.20326e-05 1.67245e-06 0.000261251)
(1.76142e-05 1.11141e-06 -7.40205e-06 3.93877e-05 -6.95058e-06 0.000243348)
(1.35219e-05 -2.09068e-07 1.03712e-05 4.04533e-05 2.25667e-06 0.00030916)
(1.56753e-05 3.18621e-07 7.17361e-06 4.04165e-05 -6.38935e-06 0.000226179)
(1.48498e-05 2.40612e-06 -1.76319e-06 4.28074e-05 4.59699e-07 0.000275407)
(1.73033e-05 1.11449e-06 -7.68584e-06 3.99355e-05 -6.62942e-06 0.000250436)
(1.34145e-05 -1.64607e-07 1.02539e-05 4.12602e-05 6.86412e-07 0.000318084)
(1.57398e-05 2.95331e-07 7.60299e-06 4.10199e-05 -5.83773e-06 0.00023471)
(1.51887e-05 2.42295e-06 -2.11223e-06 4.35905e-05 -1.13243e-06 0.000290398)
(1.70365e-05 1.14342e-06 -7.92803e-06 4.04244e-05 -6.1116e-06 0.000256087)
(1.33013e-05 -9.72013e-08 1.0192e-05 4.20082e-05 -1.09802e-06 0.000325134)
(1.58946e-05 2.85893e-07 7.84372e-06 4.1612e-05 -5.00583e-06 0.000243441)
(1.55369e-05 2.41865e-06 -2.43822e-06 4.424e-05 -3.13766e-06 0.000304918)
(1.68047e-05 1.21918e-06 -8.26687e-06 4.06717e-05 -5.80198e-06 0.000261752)
(1.32063e-05 1.96531e-08 9.96338e-06 4.2344e-05 -3.07188e-06 0.000327809)
(1.6015e-05 2.90124e-07 7.80231e-06 4.19959e-05 -4.34337e-06 0.000252345)
(1.58992e-05 2.35986e-06 -3.08297e-06 4.44756e-05 -5.43245e-06 0.000317385)
(1.65574e-05 1.28059e-06 -8.81199e-06 4.0255e-05 -6.00531e-06 0.000266443)
(1.30515e-05 1.44281e-07 9.31471e-06 4.23108e-05 -5.75018e-06 0.000326187)
(1.61348e-05 2.87744e-07 7.33829e-06 4.12853e-05 -3.68297e-06 0.000258939)
(1.62471e-05 2.28116e-06 -4.19325e-06 4.42361e-05 -7.32852e-06 0.000329026)
(4.3855e-06 -1.75762e-08 -3.25869e-07 2.17842e-09 3.10728e-08 3.549e-06)
(9.15883e-07 3.21241e-09 -1.18094e-07 2.08593e-09 -2.01929e-08 3.10137e-06)
(4.33163e-06 1.74647e-08 2.61454e-07 2.12076e-09 2.34196e-08 2.49173e-06)
(8.93139e-07 -2.81048e-09 1.68145e-07 1.72606e-09 -1.78631e-08 3.69848e-06)
(1.70865e-05 -5.31696e-08 -6.62687e-07 7.17481e-09 4.7338e-08 9.88495e-06)
(3.50269e-06 1.17932e-08 -3.48463e-08 7.21166e-09 -3.04742e-08 1.19261e-05)
(1.66547e-05 4.39506e-08 6.81127e-07 6.70248e-09 2.96212e-08 7.51715e-06)
(3.32438e-06 -9.82983e-09 3.17491e-07 5.39e-09 -2.16291e-08 1.53701e-05)
(2.10326e-05 -9.42044e-08 -7.95207e-07 3.27307e-08 -3.66383e-08 1.78325e-05)
(3.87749e-06 1.91926e-08 2.95094e-07 3.22041e-08 4.19493e-09 2.28394e-05)
(1.99809e-05 8.66137e-08 1.34485e-06 3.1517e-08 -4.60408e-08 1.40614e-05)
(3.46225e-06 -1.81212e-08 2.43841e-07 2.57502e-08 2.72762e-08 3.09638e-05)
(2.46225e-05 -9.87282e-08 -1.09555e-06 7.14895e-08 -1.7721e-07 3.14857e-05)
(4.09763e-06 2.24851e-08 4.24343e-07 7.3591e-08 1.30156e-07 3.7887e-05)
(2.27886e-05 8.11986e-08 2.39877e-06 6.82832e-08 -1.56325e-07 2.43009e-05)
(3.39721e-06 -2.18314e-08 4.11181e-07 5.85986e-08 1.85994e-07 5.22932e-05)
(3.03929e-05 -1.14014e-07 -1.27055e-06 1.22571e-07 -3.00135e-07 4.73222e-05)
(4.91569e-06 2.38046e-08 4.75638e-07 1.2837e-07 2.63823e-07 5.57764e-05)
(2.76324e-05 8.81276e-08 3.45759e-06 1.1755e-07 -2.51415e-07 3.60011e-05)
(3.86938e-06 -2.46343e-08 7.0421e-07 1.03869e-07 3.75148e-07 7.72618e-05)
(3.63591e-05 -1.35711e-07 -1.2616e-06 1.8821e-07 -4.03952e-07 6.41562e-05)
(5.92206e-06 2.53827e-08 5.09846e-07 2.00764e-07 4.1658e-07 7.53666e-05)
(3.25939e-05 9.7835e-08 4.43182e-06 1.80678e-07 -3.28988e-07 4.8441e-05)
(4.4903e-06 -2.75892e-08 1.0368e-06 1.63667e-07 6.01785e-07 0.000104204)
(4.17668e-05 -1.59878e-07 -1.08238e-06 2.67539e-07 -4.92404e-07 8.15206e-05)
(6.96465e-06 2.60283e-08 5.39704e-07 2.90259e-07 5.99994e-07 9.58734e-05)
(3.69793e-05 1.07782e-07 5.29537e-06 2.56809e-07 -3.90695e-07 6.12991e-05)
(5.12846e-06 -2.98724e-08 1.38351e-06 2.37531e-07 8.75799e-07 0.000132027)
(4.6262e-05 -1.82008e-07 -7.50391e-07 3.60448e-07 -5.73304e-07 9.89504e-05)
(7.96934e-06 2.50836e-08 5.67744e-07 3.97086e-07 8.19853e-07 0.000116546)
(4.04869e-05 1.14305e-07 6.02971e-06 3.45854e-07 -4.43496e-07 7.42094e-05)
(5.72799e-06 -3.08685e-08 1.73339e-06 3.2573e-07 1.20022e-06 0.000159785)
(4.96849e-05 -1.9873e-07 -2.83929e-07 4.66983e-07 -6.54462e-07 0.00011596)
(8.89479e-06 2.19816e-08 5.93694e-07 5.21751e-07 1.07812e-06 0.000136648)
(4.29985e-05 1.14528e-07 6.61968e-06 4.47882e-07 -4.94474e-07 8.67663e-05)
(6.26258e-06 -3.02415e-08 2.07898e-06 4.2893e-07 1.57252e-06 0.000186601)
(5.20076e-05 -2.07182e-07 2.93902e-07 5.87343e-07 -7.41609e-07 0.000132114)
(9.71885e-06 1.62327e-08 6.16158e-07 6.64765e-07 1.37481e-06 0.000155529)
(4.45173e-05 1.06502e-07 7.05849e-06 5.6318e-07 -5.48997e-07 9.85956e-05)
(6.72216e-06 -2.76166e-08 2.41392e-06 5.48001e-07 1.98863e-06 0.000211745)
(5.33049e-05 -2.06359e-07 9.53638e-07 7.21939e-07 -8.37832e-07 0.000147097)
(1.0434e-05 7.48308e-09 6.33652e-07 8.26576e-07 1.70843e-06 0.000172737)
(4.51379e-05 9.02386e-08 7.35147e-06 6.92469e-07 -6.10296e-07 0.000109429)
(7.10904e-06 -2.29344e-08 2.73367e-06 6.83504e-07 2.44678e-06 0.000234757)
(5.37212e-05 -1.96941e-07 1.66163e-06 8.70379e-07 -9.41453e-07 0.000160768)
(1.10432e-05 -4.36237e-09 6.46436e-07 1.00635e-06 2.07443e-06 0.000188068)
(4.50137e-05 6.75079e-08 7.51343e-06 8.35263e-07 -6.77745e-07 0.000119133)
(7.43399e-06 -1.65614e-08 3.03622e-06 8.34607e-07 2.93924e-06 0.000255497)
(5.34293e-05 -1.79376e-07 2.38711e-06 1.03022e-06 -1.04507e-06 0.000173137)
(1.15565e-05 -1.90902e-08 6.56734e-07 1.20213e-06 2.46491e-06 0.000201569)
(4.43188e-05 4.01071e-08 7.56341e-06 9.88825e-07 -7.45513e-07 0.000127728)
(7.70999e-06 -8.78012e-09 3.3211e-06 9.99566e-07 3.45215e-06 0.000274066)
(5.2595e-05 -1.54465e-07 3.10178e-06 1.19883e-06 -1.14318e-06 0.000184292)
(1.19871e-05 -3.66166e-08 6.66809e-07 1.41236e-06 2.87256e-06 0.0002134)
(4.32139e-05 8.75195e-09 7.52227e-06 1.15074e-06 -8.08827e-07 0.000135339)
(7.9478e-06 3.2955e-10 3.58705e-06 1.17725e-06 3.97482e-06 0.000290651)
(5.13556e-05 -1.23393e-07 3.77589e-06 1.37583e-06 -1.23748e-06 0.000194317)
(1.23482e-05 -5.71718e-08 6.80061e-07 1.63654e-06 3.29364e-06 0.000223682)
(4.18285e-05 -2.59182e-08 7.41233e-06 1.32086e-06 -8.68835e-07 0.000142069)
(8.15399e-06 1.08238e-08 3.83102e-06 1.36772e-06 4.50448e-06 0.000305383)
(4.98203e-05 -8.67843e-08 4.3819e-06 1.5621e-06 -1.33125e-06 0.0002033)
(1.26505e-05 -8.08312e-08 7.00066e-07 1.87463e-06 3.72672e-06 0.000232547)
(4.02631e-05 -6.33846e-08 7.25569e-06 1.50017e-06 -9.28898e-07 0.000148018)
(8.33167e-06 2.25673e-08 4.05045e-06 1.57135e-06 5.04189e-06 0.000318385)
(4.80756e-05 -4.47033e-08 4.89716e-06 1.75787e-06 -1.42579e-06 0.000211349)
(1.29031e-05 -1.07205e-07 7.2913e-07 2.12641e-06 4.17031e-06 0.000240169)
(3.85937e-05 -1.03759e-07 7.07064e-06 1.68862e-06 -9.90446e-07 0.000153295)
(8.48304e-06 3.5356e-08 4.24386e-06 1.78779e-06 5.58366e-06 0.000329819)
(4.61907e-05 3.08774e-09 5.3042e-06 1.96253e-06 -1.52095e-06 0.000218573)
(1.31136e-05 -1.35872e-07 7.69611e-07 2.39117e-06 4.62213e-06 0.000246705)
(3.68767e-05 -1.47451e-07 6.87063e-06 1.88543e-06 -1.05395e-06 0.000157993)
(8.61043e-06 4.91532e-08 4.41012e-06 2.01623e-06 6.12514e-06 0.000339826)
(4.42231e-05 5.68105e-08 5.59205e-06 2.17521e-06 -1.61526e-06 0.000225042)