0 	0 	0 	0
0 	0 	0 	0
0.00752508 	-0.000349538 	0.000286003 	-0.273551
0.00752508 	-0.000349538 	0.000286003 	-0.273551
0.00757525 	-0.000305581 	0.000306454 	-0.273422
0.00762542 	-0.000261624 	0.000326904 	-0.273294
0.00762542 	-0.000261624 	0.000326904 	-0.273294
0.00767559 	-0.000217695 	0.000347379 	-0.273166
0.00772575 	-0.000176739 	0.000370592 	-0.273101
0.00777592 	-0.000135783 	0.000393806 	-0.273037
0.00782609 	-9.48275e-05 	0.000417019 	-0.272972
0.00782609 	-9.48275e-05 	0.000417019 	-0.272972
0.00787625 	-5.62301e-05 	0.000437965 	-0.272963
0.00792642 	-1.93434e-05 	0.000457266 	-0.272995
0.00797659 	1.75433e-05 	0.000476567 	-0.273027
0.00802676 	5.43667e-05 	0.000491442 	-0.273068
0.00802676 	5.43667e-05 	0.000491442 	-0.273068
0.00807692 	9.09529e-05 	0.000489721 	-0.273146
0.00812709 	0.000127539 	0.000488 	-0.273223
0.00812709 	0.000127539 	0.000488 	-0.273223
0.00817726 	0.000164125 	0.00048628 	-0.273301
0.00822742 	0.000209479 	0.000489982 	-0.273195
0.00822742 	0.000209479 	0.000489982 	-0.273195
0.00827759 	0.000255797 	0.000494282 	-0.273069
0.00832776 	0.000302115 	0.000498582 	-0.272943
0.00832776 	0.000302115 	0.000498582 	-0.272943
0.00837793 	0.000353805 	0.000526311 	-0.272619
0.00842809 	0.000408394 	0.000566688 	-0.272187
0.00842809 	0.000408394 	0.000566688 	-0.272187
0.00847826 	0.000462983 	0.000607064 	-0.271756
0.00847826 	0.000462983 	0.000607064 	-0.271756
0.00852843 	0.000521492 	0.000650467 	-0.271194
0.00852843 	0.000521492 	0.000650467 	-0.271194
0.0085786 	0.000584692 	0.000697492 	-0.270476
0.0085786 	0.000584692 	0.000697492 	-0.270476
0.00862876 	0.000647892 	0.000744517 	-0.269757
0.00867893 	0.000715786 	0.000781086 	-0.268897
0.00867893 	0.000715786 	0.000781086 	-0.268897
0.0087291 	0.000793771 	0.000795179 	-0.267734
0.00877926 	0.000871756 	0.000809271 	-0.26657
0.00877926 	0.000871756 	0.000809271 	-0.26657
0.00882943 	0.000946792 	0.000819145 	-0.265417
0.0088796 	0.00101222 	0.000815276 	-0.264297
0.0088796 	0.00101222 	0.000815276 	-0.264297
0.00897993 	0.00113705 	0.000807988 	-0.262171
0.00897993 	0.00113705 	0.000807988 	-0.262171
0.0090301 	0.00117333 	0.000806286 	-0.261607
0.00908027 	0.0012096 	0.000804585 	-0.261042
0.00908027 	0.0012096 	0.000804585 	-0.261042
0.00913043 	0.00124375 	0.000802087 	-0.260515
0.0091806 	0.00127086 	0.000796948 	-0.260114
0.0091806 	0.00127086 	0.000796948 	-0.260114
0.00923077 	0.00129796 	0.000791808 	-0.259712
0.00928094 	0.00132802 	0.000792578 	-0.259157
0.00928094 	0.00132802 	0.000792578 	-0.259157
0.0093311 	0.00136466 	0.000806551 	-0.258257
0.00938127 	0.0014013 	0.000820523 	-0.257358
0.00938127 	0.0014013 	0.000820523 	-0.257358
0.00943144 	0.00143951 	0.000842497 	-0.256309
0.00943144 	0.00143951 	0.000842497 	-0.256309
0.00948161 	0.00147974 	0.000874728 	-0.255068
0.00948161 	0.00147974 	0.000874728 	-0.255068
0.00953177 	0.00151997 	0.00090696 	-0.253827
0.00953177 	0.00151997 	0.00090696 	-0.253827
0.00958194 	0.00155239 	0.000928579 	-0.252763
0.00958194 	0.00155239 	0.000928579 	-0.252763
0.00963211 	0.00157998 	0.000943628 	-0.251809
0.00963211 	0.00157998 	0.000943628 	-0.251809
0.00968227 	0.00160757 	0.000958678 	-0.250856
0.00968227 	0.00160757 	0.000958678 	-0.250856
0.00973244 	0.00162352 	0.000959551 	-0.250196
0.00978261 	0.00163737 	0.000957861 	-0.249589
0.00983278 	0.00165002 	0.000956359 	-0.249004
0.00988294 	0.00165424 	0.000956177 	-0.248572
0.00988294 	0.00165424 	0.000956177 	-0.248572
0.00993311 	0.00165846 	0.000955995 	-0.24814
0.00998328 	0.00166083 	0.000956814 	-0.24771
0.00998328 	0.00166083 	0.000956814 	-0.24771
0.0100334 	0.00166095 	0.000958852 	-0.247281
0.0100334 	0.00166095 	0.000958852 	-0.247281
0.0100836 	0.00166106 	0.00096089 	-0.246853
0.0101338 	0.00165862 	0.00095957 	-0.246398
0.0101338 	0.00165862 	0.00095957 	-0.246398
0.0102341 	0.00165099 	0.00095723 	-0.24549
0.0102341 	0.00165099 	0.00095723 	-0.24549
0.0102843 	0.00164118 	0.000962312 	-0.245086
0.0103344 	0.00163137 	0.000967394 	-0.244682
0.0103344 	0.00163137 	0.000967394 	-0.244682
0.0103846 	0.00161609 	0.000984036 	-0.244377
0.0103846 	0.00161609 	0.000984036 	-0.244377
0.0104348 	0.00159856 	0.00100544 	-0.244111
0.0104849 	0.00158185 	0.00102649 	-0.243826
0.0104849 	0.00158185 	0.00102649 	-0.243826
0.0105351 	0.0015681 	0.00104627 	-0.243466
0.0105853 	0.00155435 	0.00106605 	-0.243106
0.0105853 	0.00155435 	0.00106605 	-0.243106
0.0106355 	0.00155729 	0.00105745 	-0.242191
0.0106856 	0.00156519 	0.00104042 	-0.241111
0.0106856 	0.00156519 	0.00104042 	-0.241111
0.0107358 	0.00157994 	0.00102175 	-0.239722
0.0107358 	0.00157994 	0.00102175 	-0.239722
0.010786 	0.00160647 	0.00100023 	-0.2378
0.010786 	0.00160647 	0.00100023 	-0.2378
0.0108361 	0.00163299 	0.000978912 	-0.235878
0.0108361 	0.00163299 	0.000978912 	-0.235878
0.0108863 	0.00165641 	0.000987688 	-0.233897
0.0109365 	0.00167984 	0.000996463 	-0.231916
0.0109365 	0.00167984 	0.000996463 	-0.231916
0.0109866 	0.00169129 	0.00100771 	-0.230304
0.0109866 	0.00169129 	0.00100771 	-0.230304
0.0110368 	0.00169726 	0.00102007 	-0.228861
0.011087 	0.00169578 	0.0010269 	-0.227607
0.011087 	0.00169578 	0.0010269 	-0.227607
0.0111371 	0.00168346 	0.00102568 	-0.226628
0.0111873 	0.00166946 	0.00102252 	-0.225682
0.0111873 	0.00166946 	0.00102252 	-0.225682
0.0112375 	0.00164721 	0.00100985 	-0.224892
0.0112876 	0.00162495 	0.000997181 	-0.224103
0.0112876 	0.00162495 	0.000997181 	-0.224103
0.0113378 	0.00160034 	0.000987555 	-0.223315
0.011388 	0.00157566 	0.000978023 	-0.222527
0.011388 	0.00157566 	0.000978023 	-0.222527
0.0114883 	0.00152539 	0.000969888 	-0.220868
0.0114883 	0.00152539 	0.000969888 	-0.220868
0.0115385 	0.00149948 	0.000969684 	-0.220025
0.0115886 	0.00147324 	0.000970975 	-0.219179
0.0115886 	0.00147324 	0.000970975 	-0.219179
0.0116388 	0.00144525 	0.000970037 	-0.218372
0.011689 	0.00141611 	0.000967627 	-0.217592
0.011689 	0.00141611 	0.000967627 	-0.217592
0.0117391 	0.00138459 	0.000955011 	-0.216854
0.0117893 	0.00135114 	0.000934185 	-0.216148
0.0117893 	0.00135114 	0.000934185 	-0.216148
0.0118395 	0.00131741 	0.000907189 	-0.215342
0.0118896 	0.00128345 	0.00087498 	-0.214452
0.0118896 	0.00128345 	0.00087498 	-0.214452
0.0119398 	0.0012546 	0.000854257 	-0.213246
0.0119398 	0.0012546 	0.000854257 	-0.213246
0.01199 	0.00122967 	0.000842367 	-0.211796
0.01199 	0.00122967 	0.000842367 	-0.211796
0.0120401 	0.00121003 	0.000841796 	-0.21014
0.0120401 	0.00121003 	0.000841796 	-0.21014
0.0120903 	0.00119358 	0.000848064 	-0.208359
0.0120903 	0.00119358 	0.000848064 	-0.208359
0.0121405 	0.00117432 	0.000849092 	-0.206733
0.0121405 	0.00117432 	0.000849092 	-0.206733
0.0121906 	0.00115393 	0.00084804 	-0.205167
0.0121906 	0.00115393 	0.00084804 	-0.205167
0.0122408 	0.00112496 	0.000837678 	-0.203865
0.0122408 	0.00112496 	0.000837678 	-0.203865
0.012291 	0.00109437 	0.000825564 	-0.202612
0.012291 	0.00109437 	0.000825564 	-0.202612
0.0123411 	0.00105973 	0.000810621 	-0.201456
0.0123411 	0.00105973 	0.000810621 	-0.201456
0.0123913 	0.00102634 	0.000795764 	-0.200272
0.0123913 	0.00102634 	0.000795764 	-0.200272
0.0124415 	0.00099824 	0.000781267 	-0.198973
0.0124916 	0.000973838 	0.000763415 	-0.197611
0.0124916 	0.000973838 	0.000763415 	-0.197611
0.012592 	0.000937639 	0.000715823 	-0.194709
0.012592 	0.000937639 	0.000715823 	-0.194709
0.0126421 	0.000921709 	0.000689607 	-0.193253
0.0126923 	0.000903132 	0.000672123 	-0.191834
0.0126923 	0.000903132 	0.000672123 	-0.191834
0.0127425 	0.000883378 	0.00065674 	-0.190417
0.0127425 	0.000883378 	0.00065674 	-0.190417
0.0127926 	0.000860788 	0.000645918 	-0.188997
0.0128428 	0.000837645 	0.000632175 	-0.187548
0.0128428 	0.000837645 	0.000632175 	-0.187548
0.012893 	0.000814156 	0.000616608 	-0.18608
0.0129431 	0.000791479 	0.00059816 	-0.184543
0.0129431 	0.000791479 	0.00059816 	-0.184543
0.0129933 	0.00076911 	0.00057996 	-0.182974
0.0130435 	0.000747205 	0.00056219 	-0.181359
0.0130435 	0.000747205 	0.00056219 	-0.181359
0.0130936 	0.000725869 	0.000543799 	-0.179675
0.0131438 	0.000704835 	0.000525066 	-0.177951
0.0131438 	0.000704835 	0.000525066 	-0.177951
0.013194 	0.000684258 	0.000505804 	-0.176163
0.0132441 	0.000664062 	0.000486316 	-0.1743
0.0132441 	0.000664062 	0.000486316 	-0.1743
0.0132943 	0.000644054 	0.000466779 	-0.172385
0.0133445 	0.000624237 	0.000447295 	-0.170394
0.0133445 	0.000624237 	0.000447295 	-0.170394
0.0133946 	0.000604649 	0.000428006 	-0.16831
0.0134448 	0.000585523 	0.000408804 	-0.166155
0.0134448 	0.000585523 	0.000408804 	-0.166155
0.013495 	0.000567055 	0.000389671 	-0.163922
0.0135452 	0.000551041 	0.000370327 	-0.161544
0.0135452 	0.000551041 	0.000370327 	-0.161544
0.0136455 	0.000526505 	0.000331628 	-0.156453
0.0136455 	0.000526505 	0.000331628 	-0.156453
0.0136957 	0.000519135 	0.000312627 	-0.15369
0.0137458 	0.000515302 	0.000294261 	-0.150724
0.0137458 	0.000515302 	0.000294261 	-0.150724
0.013796 	0.000513478 	0.000276382 	-0.147584
0.0138462 	0.000513305 	0.000258929 	-0.144254
0.0138462 	0.000513305 	0.000258929 	-0.144254
0.0138963 	0.000514391 	0.000241808 	-0.140716
0.0138963 	0.000514391 	0.000241808 	-0.140716
0.0139465 	0.000516708 	0.000225186 	-0.136868
0.0139967 	0.00051976 	0.000209134 	-0.132755
0.0139967 	0.00051976 	0.000209134 	-0.132755
0.0140468 	0.000523012 	0.000193694 	-0.128364
0.0140468 	0.000523012 	0.000193694 	-0.128364
0.014097 	0.00052567 	0.00017889 	-0.123675
0.0141472 	0.000526685 	0.000164695 	-0.118674
0.0141973 	0.000524874 	0.000151003 	-0.113342
0.0141973 	0.000524874 	0.000151003 	-0.113342
0.0142475 	0.00051811 	0.00013785 	-0.107594
0.0142977 	0.000505784 	0.00012524 	-0.101458
0.0143478 	0.000486425 	0.000113194 	-0.0949287
0.0143478 	0.000486425 	0.000113194 	-0.0949287
0.014398 	0.000457944 	0.000101686 	-0.0880185
0.014398 	0.000457944 	0.000101686 	-0.0880185
0.0144482 	0.000418506 	9.05931e-05 	-0.0807627
0.0144983 	0.000367273 	7.97339e-05 	-0.0732218
0.0144983 	0.000367273 	7.97339e-05 	-0.0732218
0.0145485 	0.000304928 	6.89566e-05 	-0.065478
0.0145987 	0.000234224 	5.81613e-05 	-0.0576278
0.0145987 	0.000234224 	5.81613e-05 	-0.0576278
0.0146488 	0.000160537 	4.72921e-05 	-0.0497691
0.014699 	9.23308e-05 	3.63769e-05 	-0.0419917
0.014699 	9.23308e-05 	3.63769e-05 	-0.0419917
0.0147492 	4.21484e-05 	2.562e-05 	-0.0343775
0.0147993 	2.92157e-05 	1.55697e-05 	-0.0270135
0.0147993 	2.92157e-05 	1.55697e-05 	-0.0270135
0.0148495 	8.47846e-05 	6.53628e-06 	-0.0200074
0.0148495 	8.47846e-05 	6.53628e-06 	-0.0200074
0.0148997 	0.000198872 	7.41473e-07 	-0.0133911
0.0148997 	0.000198872 	7.41473e-07 	-0.0133911
0.0149498 	0.000223211 	-1.05547e-06 	-0.00689363
0.0149498 	0.000223211 	-1.05547e-06 	-0.00689363
0.015 	0 	0 	0
