0 	0 	0 	0
5.01672e-05 	-0.0017117 	-8.48982e-06 	0.0163296
0.000100334 	-0.00245659 	-2.2068e-05 	0.032141
0.000150502 	-0.00279331 	-4.01497e-05 	0.0468877
0.000200669 	-0.00308856 	-5.98362e-05 	0.0603666
0.000250836 	-0.00333888 	-8.21129e-05 	0.0727369
0.000301003 	-0.00349991 	-0.000106056 	0.0841597
0.000351171 	-0.00356971 	-0.000131358 	0.0947363
0.000401338 	-0.00355777 	-0.000157639 	0.104536
0.000451505 	-0.00347635 	-0.000184467 	0.113606
0.000501672 	-0.00333839 	-0.000211368 	0.121984
0.000551839 	-0.00315701 	-0.000238127 	0.129709
0.000602007 	-0.0029452 	-0.000264671 	0.136826
0.000652174 	-0.00271496 	-0.000290789 	0.143384
0.000702341 	-0.00247606 	-0.000316179 	0.149437
0.000752508 	-0.00223557 	-0.00034061 	0.155032
0.000802676 	-0.00199824 	-0.000364039 	0.160211
0.000852843 	-0.00176858 	-0.00038655 	0.164952
0.00090301 	-0.00154814 	-0.000408284 	0.169354
0.000953177 	-0.00133856 	-0.000429172 	0.173446
0.00100334 	-0.00114092 	-0.000449375 	0.177258
0.00105351 	-0.000955932 	-0.000469123 	0.180815
0.00110368 	-0.000784332 	-0.000488639 	0.184137
0.00115385 	-0.000630903 	-0.000507238 	0.187191
0.00120401 	-0.000491168 	-0.000524751 	0.190067
0.00125418 	-0.000364127 	-0.000541355 	0.192783
0.00130435 	-0.000248699 	-0.000557252 	0.195356
0.00135452 	-0.000146382 	-0.000572709 	0.197763
0.00140468 	-5.31148e-05 	-0.000588039 	0.200043
0.00145485 	3.36368e-05 	-0.000603052 	0.202225
0.00150502 	0.00011468 	-0.000617637 	0.204318
0.00155518 	0.000188118 	-0.000631162 	0.206283
0.00160535 	0.000257338 	-0.000644139 	0.208174
0.00165552 	0.000322792 	-0.000656626 	0.21
0.00170569 	0.000383081 	-0.000668442 	0.211737
0.00175585 	0.000439084 	-0.000679621 	0.213402
0.00180602 	0.000492092 	-0.000690344 	0.215019
0.00185619 	0.000540721 	-0.000700384 	0.216565
0.00190635 	0.000585436 	-0.000709683 	0.218052
0.00195652 	0.000627694 	-0.000718577 	0.219501
0.00200669 	0.000665668 	-0.00072694 	0.220887
0.00205686 	0.00070068 	-0.000735476 	0.222231
0.00210702 	0.000733732 	-0.00074412 	0.223546
0.00215719 	0.000762428 	-0.000752615 	0.224796
0.00220736 	0.000789607 	-0.000759532 	0.226022
0.00225753 	0.000814353 	-0.000763924 	0.227213
0.00230769 	0.000835039 	-0.000764214 	0.228366
0.00235786 	0.000853796 	-0.0007631 	0.229504
0.00240803 	0.000863592 	-0.000764448 	0.230598
0.00245819 	0.000870534 	-0.000769196 	0.231688
0.00250836 	0.000871691 	-0.000780835 	0.232767
0.00255853 	0.000876228 	-0.000795757 	0.233891
0.0026087 	0.000883163 	-0.00081301 	0.235047
0.00265886 	0.000911754 	-0.000822385 	0.236337
0.00270903 	0.000945489 	-0.000829889 	0.237659
0.0027592 	0.000998878 	-0.000823324 	0.239011
0.00280936 	0.00105078 	-0.000816586 	0.240335
0.00285953 	0.0010947 	-0.000808969 	0.2415
0.0029097 	0.00113198 	-0.000803448 	0.242606
0.00295987 	0.00115254 	-0.000803205 	0.24356
0.00301003 	0.0011654 	-0.000804294 	0.244463
0.0030602 	0.00116552 	-0.000807588 	0.245283
0.00311037 	0.00116087 	-0.000809864 	0.246071
0.00316054 	0.00115001 	-0.000810818 	0.246819
0.0032107 	0.00113735 	-0.000811384 	0.247548
0.00326087 	0.00112258 	-0.000811491 	0.248254
0.00331104 	0.00110679 	-0.000812299 	0.248942
0.0033612 	0.00108974 	-0.00081398 	0.249607
0.00341137 	0.00107178 	-0.000814922 	0.250254
0.00346154 	0.00105244 	-0.000814746 	0.250873
0.00351171 	0.0010324 	-0.000812929 	0.251485
0.00356187 	0.0010108 	-0.000807503 	0.252085
0.00361204 	0.000988788 	-0.000801346 	0.2527
0.00366221 	0.000964989 	-0.000792071 	0.253378
0.00371237 	0.000941135 	-0.000782948 	0.254062
0.00376254 	0.000915463 	-0.000778751 	0.254921
0.00381271 	0.000889791 	-0.000774554 	0.25578
0.00386288 	0.000863624 	-0.000777793 	0.256688
0.00391304 	0.000837355 	-0.000782548 	0.257606
0.00396321 	0.00081157 	-0.000787017 	0.258422
0.00401338 	0.000786117 	-0.000791289 	0.259167
0.00406355 	0.000760842 	-0.000793633 	0.259848
0.00411371 	0.000735955 	-0.000791753 	0.260385
0.00416388 	0.000711069 	-0.000789872 	0.260923
0.00421405 	0.000685432 	-0.000784977 	0.261336
0.00426421 	0.00065979 	-0.000780063 	0.261749
0.00431438 	0.000633239 	-0.000776058 	0.262122
0.00436455 	0.00060616 	-0.000772583 	0.262471
0.00441472 	0.000578724 	-0.00076967 	0.262813
0.00446488 	0.000550084 	-0.000768649 	0.263128
0.00451505 	0.000521445 	-0.000767629 	0.263443
0.00456522 	0.000491455 	-0.000766839 	0.263738
0.00461538 	0.000461091 	-0.000766113 	0.264026
0.00466555 	0.000430173 	-0.000765318 	0.264307
0.00471572 	0.000397915 	-0.000764353 	0.264569
0.00476589 	0.000365656 	-0.000763389 	0.264832
0.00481605 	0.00033189 	-0.000762688 	0.265075
0.00486622 	0.00029764 	-0.000762073 	0.265313
0.00491639 	0.000263035 	-0.000761513 	0.265546
0.00496656 	0.000226769 	-0.000761218 	0.265759
0.00501672 	0.000190503 	-0.000760922 	0.265972
0.00506689 	0.000153151 	-0.000760786 	0.266172
0.00511706 	0.000114907 	-0.000760781 	0.266362
0.00516722 	7.66625e-05 	-0.000760776 	0.266551
0.00521739 	3.67626e-05 	-0.00076104 	0.26672
0.00526756 	-3.37384e-06 	-0.000761342 	0.266887
0.00531773 	-4.37806e-05 	-0.000761694 	0.26705
0.00536789 	-8.56833e-05 	-0.000762328 	0.267194
0.00541806 	-0.000127586 	-0.000762962 	0.267338
0.00546823 	-0.000170096 	-0.000763737 	0.267474
0.00551839 	-0.000213586 	-0.000764741 	0.267596
0.00556856 	-0.000257077 	-0.000765746 	0.267718
0.00561873 	-0.000301334 	-0.000767006 	0.267828
0.0056689 	-0.000346189 	-0.000768466 	0.267927
0.00571906 	-0.000391044 	-0.000769927 	0.268027
0.00576923 	-0.000436692 	-0.000771812 	0.268112
0.0058194 	-0.000482696 	-0.000773887 	0.26819
0.00586957 	-0.000528699 	-0.000775962 	0.268268
0.00591973 	-0.000575266 	-0.000778686 	0.26833
0.0059699 	-0.000622002 	-0.000781606 	0.268387
0.00602007 	-0.000668739 	-0.000784526 	0.268444
0.00607023 	-0.000715219 	-0.000787721 	0.268485
0.0061204 	-0.000761632 	-0.000790987 	0.268523
0.00617057 	-0.000808046 	-0.000794253 	0.26856
0.00622074 	-0.000853119 	-0.00079671 	0.268581
0.0062709 	-0.00089778 	-0.000798918 	0.268597
0.00632107 	-0.000942441 	-0.000801127 	0.268613
0.00637124 	-0.000984935 	-0.000803519 	0.268612
0.0064214 	-0.00102642 	-0.000805996 	0.268603
0.00647157 	-0.00106791 	-0.000808474 	0.268594
0.00652174 	-0.00110685 	-0.000813228 	0.268567
0.00657191 	-0.00114367 	-0.000819886 	0.268524
0.00662207 	-0.0011805 	-0.000826544 	0.268481
0.00667224 	-0.00121527 	-0.000834326 	0.268423
0.00672241 	-0.00124623 	-0.000844189 	0.268337
0.00677258 	-0.0012772 	-0.000854053 	0.268251
0.00682274 	-0.0013076 	-0.000863761 	0.268161
0.00687291 	-0.00133284 	-0.00087205 	0.268032
0.00692308 	-0.00135808 	-0.00088034 	0.267903
0.00697324 	-0.00138333 	-0.000888629 	0.267773
0.00702341 	-0.00140525 	-0.000894674 	0.267619
0.00707358 	-0.00142629 	-0.00090012 	0.267459
0.00712375 	-0.00144734 	-0.000905566 	0.267298
0.00717391 	-0.00146714 	-0.000910586 	0.267132
0.00722408 	-0.00148523 	-0.000915021 	0.266958
0.00727425 	-0.00150332 	-0.000919455 	0.266783
0.00732441 	-0.00152141 	-0.00092389 	0.266609
0.00737458 	-0.00153591 	-0.000928826 	0.266434
0.00742475 	-0.00155037 	-0.000933767 	0.266259
0.00747492 	-0.00156483 	-0.000938709 	0.266084
0.00752508 	-0.00157697 	-0.000944468 	0.265901
0.00757525 	-0.0015868 	-0.000951045 	0.26571
0.00762542 	-0.00159662 	-0.000957622 	0.26552
0.00767559 	-0.00160641 	-0.000964209 	0.265329
0.00772575 	-0.00161239 	-0.000971919 	0.265079
0.00777592 	-0.00161837 	-0.000979629 	0.264829
0.00782609 	-0.00162436 	-0.00098734 	0.264578
0.00787625 	-0.00162874 	-0.000993707 	0.264261
0.00792642 	-0.00163195 	-0.000999101 	0.263896
0.00797659 	-0.00163517 	-0.00100449 	0.26353
0.00802676 	-0.00163746 	-0.00100945 	0.26315
0.00807692 	-0.00163627 	-0.00101276 	0.262717
0.00812709 	-0.00163507 	-0.00101607 	0.262283
0.00817726 	-0.00163388 	-0.00101938 	0.26185
0.00822742 	-0.0016261 	-0.00102516 	0.261516
0.00827759 	-0.00161759 	-0.00103121 	0.261193
0.00832776 	-0.00160908 	-0.00103726 	0.26087
0.00837793 	-0.00159566 	-0.00104442 	0.260641
0.00842809 	-0.00157958 	-0.00105219 	0.260462
0.00847826 	-0.0015635 	-0.00105997 	0.260284
0.00852843 	-0.00154444 	-0.00106673 	0.260118
0.0085786 	-0.00152182 	-0.00107229 	0.259967
0.00862876 	-0.0014992 	-0.00107785 	0.259817
0.00867893 	-0.0014746 	-0.00108276 	0.259658
0.0087291 	-0.00144578 	-0.00108625 	0.259481
0.00877926 	-0.00141696 	-0.00108974 	0.259304
0.00882943 	-0.00138684 	-0.00109303 	0.259121
0.0088796 	-0.00135249 	-0.00109564 	0.258915
0.00892977 	-0.00131814 	-0.00109826 	0.25871
0.00897993 	-0.00128282 	-0.00110081 	0.258499
0.0090301 	-0.0012438 	-0.00110307 	0.258269
0.00908027 	-0.00120477 	-0.00110533 	0.25804
0.00913043 	-0.00116484 	-0.00110754 	0.257804
0.0091806 	-0.00112192 	-0.00110954 	0.257548
0.00923077 	-0.001079 	-0.00111155 	0.257292
0.00928094 	-0.00103524 	-0.00111336 	0.257027
0.0093311 	-0.000989606 	-0.00111472 	0.256742
0.00938127 	-0.000943971 	-0.00111608 	0.256456
0.00943144 	-0.000899315 	-0.00111666 	0.256152
0.00948161 	-0.000855912 	-0.00111623 	0.255823
0.00953177 	-0.00081251 	-0.00111579 	0.255493
0.00958194 	-0.000776892 	-0.00111479 	0.255112
0.00963211 	-0.000746093 	-0.00111342 	0.254699
0.00968227 	-0.000715293 	-0.00111206 	0.254286
0.00973244 	-0.000704119 	-0.00111288 	0.253741
0.00978261 	-0.000696491 	-0.0011141 	0.253171
0.00983278 	-0.000691641 	-0.00111571 	0.252578
0.00988294 	-0.000706239 	-0.00112015 	0.251815
0.00993311 	-0.000720837 	-0.00112458 	0.251053
0.00998328 	-0.000726539 	-0.00112776 	0.250296
0.0100334 	-0.000721409 	-0.0011294 	0.249547
0.0100836 	-0.000716278 	-0.00113104 	0.248797
0.0101338 	-0.00067131 	-0.00112943 	0.248213
0.0101839 	-0.000617836 	-0.00112713 	0.247665
0.0102341 	-0.000558784 	-0.00112504 	0.247142
0.0102843 	-0.000482398 	-0.00112361 	0.246698
0.0103344 	-0.000406012 	-0.00112219 	0.246254
0.0103846 	-0.00032849 	-0.00112156 	0.245805
0.0104348 	-0.000250499 	-0.00112127 	0.245354
0.0104849 	-0.000172872 	-0.00112081 	0.244895
0.0105351 	-9.65485e-05 	-0.00111974 	0.244408
0.0105853 	-2.02249e-05 	-0.00111866 	0.243921
0.0106355 	5.65644e-05 	-0.00111601 	0.243408
0.0106856 	0.000133492 	-0.00111288 	0.242886
0.0107358 	0.000210965 	-0.00110915 	0.242353
0.010786 	0.000289375 	-0.00110436 	0.241798
0.0108361 	0.000367791 	-0.00109956 	0.241244
0.0108863 	0.000446992 	-0.00109398 	0.240654
0.0109365 	0.000526193 	-0.0010884 	0.240064
0.0109866 	0.000605481 	-0.00108233 	0.239448
0.0110368 	0.000684809 	-0.00107604 	0.238821
0.011087 	0.000764034 	-0.00106943 	0.238178
0.0111371 	0.000843108 	-0.00106235 	0.237512
0.0111873 	0.000922101 	-0.00105514 	0.236839
0.0112375 	0.00100069 	-0.00104731 	0.236134
0.0112876 	0.00107929 	-0.00103947 	0.235429
0.0113378 	0.00115727 	-0.00103092 	0.234684
0.011388 	0.00123523 	-0.00102234 	0.233938
0.0114381 	0.00131259 	-0.00101316 	0.233158
0.0114883 	0.00138981 	-0.00100384 	0.23237
0.0115385 	0.00146646 	-0.000994023 	0.231551
0.0115886 	0.00154285 	-0.000983973 	0.230719
0.0116388 	0.00161868 	-0.000973485 	0.229859
0.011689 	0.00169415 	-0.000962709 	0.228981
0.0117391 	0.00176907 	-0.000951537 	0.228077
0.0117893 	0.00184353 	-0.000940048 	0.227151
0.0118395 	0.0019174 	-0.00092818 	0.226198
0.0118896 	0.00199078 	-0.000915991 	0.225222
0.0119398 	0.00206348 	-0.000903401 	0.224217
0.01199 	0.00213566 	-0.000890503 	0.223189
0.0120401 	0.002207 	-0.000877198 	0.222125
0.0120903 	0.00227784 	-0.000863647 	0.22104
0.0121405 	0.0023476 	-0.0008497 	0.219911
0.0121906 	0.00241693 	-0.000835595 	0.218764
0.0122408 	0.00248486 	-0.000820912 	0.217562
0.012291 	0.00255252 	-0.000806121 	0.216349
0.0123411 	0.0026184 	-0.000790425 	0.215067
0.0123913 	0.00268393 	-0.00077455 	0.213771
0.0124415 	0.002748 	-0.000757916 	0.212416
0.0124916 	0.00281132 	-0.000740959 	0.21103
0.0125418 	0.00287357 	-0.000723546 	0.209598
0.012592 	0.00293439 	-0.000705822 	0.20811
0.0126421 	0.00299451 	-0.000687944 	0.206593
0.0126923 	0.00305201 	-0.000669748 	0.204984
0.0127425 	0.00310844 	-0.000651419 	0.20334
0.0127926 	0.00316236 	-0.000632771 	0.201614
0.0128428 	0.00321381 	-0.000613798 	0.199808
0.012893 	0.00326372 	-0.000594624 	0.197951
0.0129431 	0.00330939 	-0.0005749 	0.195949
0.0129933 	0.00335331 	-0.000555016 	0.193886
0.0130435 	0.00339456 	-0.000534893 	0.191731
0.0130936 	0.00343209 	-0.000514668 	0.189458
0.0131438 	0.00346744 	-0.000494407 	0.187122
0.013194 	0.0034993 	-0.000474112 	0.18469
0.0132441 	0.003527 	-0.000453714 	0.182154
0.0132943 	0.00355176 	-0.000433234 	0.179547
0.0133445 	0.00357218 	-0.000412625 	0.176833
0.0133946 	0.00358712 	-0.000391934 	0.17398
0.0134448 	0.00359809 	-0.00037125 	0.171024
0.013495 	0.00360461 	-0.000350607 	0.167952
0.0135452 	0.00360365 	-0.000330188 	0.164682
0.0135953 	0.00359772 	-0.000309954 	0.161279
0.0136455 	0.00358648 	-0.000289927 	0.157737
0.0136957 	0.00356854 	-0.000270173 	0.154019
0.0137458 	0.00354228 	-0.000250819 	0.150087
0.013796 	0.00350923 	-0.000231839 	0.14598
0.0138462 	0.00346886 	-0.000213293 	0.141687
0.0138963 	0.00342064 	-0.000195252 	0.137195
0.0139465 	0.00336124 	-0.000178011 	0.13242
0.0139967 	0.00329247 	-0.000161468 	0.127408
0.0140468 	0.00321388 	-0.000145636 	0.122151
0.014097 	0.00312477 	-0.000130559 	0.116632
0.0141472 	0.00302435 	-0.000116294 	0.11084
0.0141973 	0.00291182 	-0.000102918 	0.104761
0.0142475 	0.00278427 	-9.05627e-05 	0.0983339
0.0142977 	0.00264306 	-7.90408e-05 	0.0916021
0.0143478 	0.00248813 	-6.83707e-05 	0.0845799
0.014398 	0.00232008 	-5.85969e-05 	0.0773035
0.0144482 	0.00214042 	-4.97368e-05 	0.0698372
0.0144983 	0.00195167 	-4.17452e-05 	0.0622725
0.0145485 	0.00175738 	-3.45366e-05 	0.0547227
0.0145987 	0.00156171 	-2.8032e-05 	0.0473104
0.0146488 	0.00136861 	-2.21569e-05 	0.0401488
0.014699 	0.0011809 	-1.68274e-05 	0.0333234
0.0147492 	0.000999448 	-1.19983e-05 	0.0268805
0.0147993 	0.000822304 	-7.79434e-06 	0.0208223
0.0148495 	0.000643243 	-4.01901e-06 	0.0150999
0.0148997 	0.000448722 	-1.51412e-06 	0.00965142
0.0149498 	0.000228139 	-4.07232e-07 	0.00454865
0.015 	0 	0 	0
