-0.0075 	0 	0 	0
-0.0075 	-6.29665e-35 	-1.54851e-36 	-6.61611e-33
-0.00745622 	-8.27569e-05 	-2.03521e-06 	-0.00869555
-0.00745622 	-8.27569e-05 	-2.03521e-06 	-0.00869555
-0.00741165 	-0.000171703 	-1.86865e-06 	-0.0185428
-0.00741165 	-0.000171703 	-1.86865e-06 	-0.0185428
-0.00736628 	-0.000269331 	7.77348e-07 	-0.0288007
-0.00736628 	-0.000269331 	7.77348e-07 	-0.0288007
-0.0073201 	-0.000363982 	5.76017e-06 	-0.0389328
-0.0073201 	-0.000363982 	5.76017e-06 	-0.0389328
-0.00727309 	-0.000448696 	1.2475e-05 	-0.0488977
-0.00727309 	-0.000448696 	1.2475e-05 	-0.0488977
-0.00722524 	-0.000521855 	2.08679e-05 	-0.0587337
-0.00722524 	-0.000521855 	2.08679e-05 	-0.0587337
-0.00717653 	-0.000582773 	3.08421e-05 	-0.0684035
-0.00717653 	-0.000582773 	3.08421e-05 	-0.0684035
-0.00712695 	-0.000631412 	4.23054e-05 	-0.0778471
-0.00712695 	-0.000631412 	4.23054e-05 	-0.0778471
-0.00707647 	-0.000668232 	5.53409e-05 	-0.0869994
-0.00707647 	-0.000668232 	5.53409e-05 	-0.0869994
-0.0070251 	-0.000694091 	6.9889e-05 	-0.0958016
-0.0070251 	-0.000694091 	6.9889e-05 	-0.0958016
-0.0069728 	-0.000710144 	8.58787e-05 	-0.10421
-0.0069728 	-0.000710144 	8.58787e-05 	-0.10421
-0.00691956 	-0.000717774 	0.000103388 	-0.112206
-0.00691956 	-0.000717774 	0.000103388 	-0.112206
-0.00686537 	-0.000718242 	0.000122363 	-0.119803
-0.00686537 	-0.000718242 	0.000122363 	-0.119803
-0.00681021 	-0.00071236 	0.000142705 	-0.127025
-0.00681021 	-0.00071236 	0.000142705 	-0.127025
-0.00675406 	-0.000700683 	0.000164217 	-0.133897
-0.00675406 	-0.000700683 	0.000164217 	-0.133897
-0.0066969 	-0.000683804 	0.00018677 	-0.140439
-0.0066969 	-0.000683804 	0.00018677 	-0.140439
-0.00663871 	-0.000662405 	0.000210502 	-0.146672
-0.00663871 	-0.000662405 	0.000210502 	-0.146672
-0.00657949 	-0.00063717 	0.00023542 	-0.15261
-0.00657949 	-0.00063717 	0.00023542 	-0.15261
-0.0065192 	-0.000608726 	0.000261367 	-0.15827
-0.0065192 	-0.000608726 	0.000261367 	-0.15827
-0.00645783 	-0.000577685 	0.000288239 	-0.163663
-0.00645783 	-0.000577685 	0.000288239 	-0.163663
-0.00639535 	-0.000544656 	0.000315938 	-0.168804
-0.00639535 	-0.000544656 	0.000315938 	-0.168804
-0.00633176 	-0.000510164 	0.000344288 	-0.173707
-0.00633176 	-0.000510164 	0.000344288 	-0.173707
-0.00626703 	-0.000474486 	0.000373116 	-0.178394
-0.00626703 	-0.000474486 	0.000373116 	-0.178394
-0.00620114 	-0.000437569 	0.000402341 	-0.182888
-0.00620114 	-0.000437569 	0.000402341 	-0.182888
-0.00613406 	-0.000399197 	0.000432007 	-0.187208
-0.00613406 	-0.000399197 	0.000432007 	-0.187208
-0.00606579 	-0.000359493 	0.000462302 	-0.191355
-0.00606579 	-0.000359493 	0.000462302 	-0.191355
-0.00599629 	-0.00031944 	0.000493221 	-0.195307
-0.00599629 	-0.00031944 	0.000493221 	-0.195307
-0.00592554 	-0.000280791 	0.000523967 	-0.199033
-0.00592554 	-0.000280791 	0.000523967 	-0.199033
-0.00585352 	-0.000244982 	0.000553726 	-0.202518
-0.00585352 	-0.000244982 	0.000553726 	-0.202518
-0.00578022 	-0.000212011 	0.000582866 	-0.205791
-0.00578022 	-0.000212011 	0.000582866 	-0.205791
-0.00570559 	-0.000180721 	0.000612458 	-0.208907
-0.00570559 	-0.000180721 	0.000612458 	-0.208907
-0.00562963 	-0.000149973 	0.000643074 	-0.211918
-0.00562963 	-0.000149973 	0.000643074 	-0.211918
-0.00555231 	-0.000119334 	0.000674042 	-0.21485
-0.00555231 	-0.000119334 	0.000674042 	-0.21485
-0.0054736 	-8.91557e-05 	0.000704194 	-0.217695
-0.0054736 	-8.91557e-05 	0.000704194 	-0.217695
-0.00539348 	-6.03348e-05 	0.000732556 	-0.220425
-0.00539348 	-6.03348e-05 	0.000732556 	-0.220425
-0.00531193 	-3.38328e-05 	0.00075899 	-0.223023
-0.00531193 	-3.38328e-05 	0.00075899 	-0.223023
-0.00522891 	-1.01223e-05 	0.000784849 	-0.225496
-0.00522891 	-1.01223e-05 	0.000784849 	-0.225496
-0.0051444 	1.10726e-05 	0.00081144 	-0.227876
-0.0051444 	1.10726e-05 	0.00081144 	-0.227876
-0.00505838 	3.03218e-05 	0.00083889 	-0.230188
-0.00505838 	3.03218e-05 	0.00083889 	-0.230188
-0.00497081 	4.79985e-05 	0.000865146 	-0.232444
-0.00497081 	4.79985e-05 	0.000865146 	-0.232444
-0.00488168 	6.43912e-05 	0.000888954 	-0.23466
-0.00488168 	6.43912e-05 	0.000888954 	-0.23466
-0.00479094 	8.00587e-05 	0.000912997 	-0.236877
-0.00479094 	8.00587e-05 	0.000912997 	-0.236877
-0.00469858 	9.57248e-05 	0.000939392 	-0.239152
-0.00469858 	9.57248e-05 	0.000939392 	-0.239152
-0.00460456 	0.000111048 	0.000967121 	-0.241513
-0.00460456 	0.000111048 	0.000967121 	-0.241513
-0.00450886 	0.000124124 	0.000992539 	-0.243883
-0.00450886 	0.000124124 	0.000992539 	-0.243883
-0.00441144 	0.000133315 	0.00101222 	-0.246127
-0.00441144 	0.000133315 	0.00101222 	-0.246127
-0.00431227 	0.000138993 	0.00102771 	-0.248178
-0.00431227 	0.000138993 	0.00102771 	-0.248178
-0.00421133 	0.000143294 	0.00104331 	-0.250078
-0.00421133 	0.000143294 	0.00104331 	-0.250078
-0.00410857 	0.000147692 	0.00106113 	-0.251921
-0.00410857 	0.000147692 	0.00106113 	-0.251921
-0.00400397 	0.000151593 	0.0010811 	-0.25377
-0.00400397 	0.000151593 	0.0010811 	-0.25377
-0.0038975 	0.000154925 	0.00109957 	-0.255627
-0.0038975 	0.000154925 	0.00109957 	-0.255627
-0.00378912 	0.000159117 	0.00111391 	-0.257482
-0.00378912 	0.000159117 	0.00111391 	-0.257482
-0.00367879 	0.000165095 	0.00112722 	-0.25933
-0.00367879 	0.000165095 	0.00112722 	-0.25933
-0.00356649 	0.000173226 	0.00114086 	-0.261167
-0.00356649 	0.000173226 	0.00114086 	-0.261167
-0.00345217 	0.000183855 	0.00115334 	-0.262984
-0.00345217 	0.000183855 	0.00115334 	-0.262984
-0.0033358 	0.000196942 	0.00116452 	-0.264775
-0.0033358 	0.000196942 	0.00116452 	-0.264775
-0.00321735 	0.000212035 	0.00117442 	-0.26653
-0.00321735 	0.000212035 	0.00117442 	-0.26653
-0.00309677 	0.000228513 	0.00118278 	-0.268244
-0.00309677 	0.000228513 	0.00118278 	-0.268244
-0.00297403 	0.000245989 	0.00118931 	-0.269915
-0.00297403 	0.000245989 	0.00118931 	-0.269915
-0.00284909 	0.000264593 	0.00119374 	-0.271547
-0.00284909 	0.000264593 	0.00119374 	-0.271547
-0.0027219 	0.000284745 	0.00119579 	-0.273144
-0.0027219 	0.000284745 	0.00119579 	-0.273144
-0.00259244 	0.000306721 	0.00119524 	-0.274707
-0.00259244 	0.000306721 	0.00119524 	-0.274707
-0.00246065 	0.000330496 	0.00119193 	-0.276234
-0.00246065 	0.000330496 	0.00119193 	-0.276234
-0.00232651 	0.000355933 	0.00118589 	-0.277718
-0.00232651 	0.000355933 	0.00118589 	-0.277718
-0.00218995 	0.000382906 	0.0011779 	-0.279145
-0.00218995 	0.000382906 	0.0011779 	-0.279145
-0.00205095 	0.000411129 	0.00116851 	-0.280494
-0.00205095 	0.000411129 	0.00116851 	-0.280494
-0.00190946 	0.000440142 	0.00115608 	-0.281753
-0.00190946 	0.000440142 	0.00115608 	-0.281753
-0.00176543 	0.000469699 	0.00113884 	-0.28291
-0.00176543 	0.000469699 	0.00113884 	-0.28291
-0.00161881 	0.000500203 	0.00111862 	-0.283954
-0.00161881 	0.000500203 	0.00111862 	-0.283954
-0.00146957 	0.000533182 	0.00109691 	-0.284858
-0.00146957 	0.000533182 	0.00109691 	-0.284858
-0.00131765 	0.000571339 	0.00107136 	-0.285589
-0.00131765 	0.000571339 	0.00107136 	-0.285589
-0.001163 	0.000616285 	0.00103974 	-0.28613
-0.001163 	0.000616285 	0.00103974 	-0.28613
-0.00100559 	0.000665248 	0.00100296 	-0.286491
-0.00100559 	0.000665248 	0.00100296 	-0.286491
-0.000845345 	0.00071526 	0.000965818 	-0.286694
-0.000845345 	0.00071526 	0.000965818 	-0.286694
-0.000682232 	0.000766752 	0.000925535 	-0.286742
-0.000682232 	0.000766752 	0.000925535 	-0.286742
-0.000516194 	0.000820505 	0.000878472 	-0.28663
-0.000516194 	0.000820505 	0.000878472 	-0.28663
-0.000347178 	0.000876748 	0.000829979 	-0.286354
-0.000347178 	0.000876748 	0.000829979 	-0.286354
-0.000175132 	0.000936177 	0.000770296 	-0.285925
-0.000175132 	0.000936177 	0.000770296 	-0.285925
0 	0.000999529 	0.000705153 	-0.285378
0 	0.000999529 	0.000705153 	-0.285378
0 	0.000999529 	0.000705153 	-0.285378
0 	0.000999529 	0.000705153 	-0.285378
0.000175132 	0.00106599 	0.000645219 	-0.284742
0.000175132 	0.000265225 	0.0011501 	-0.305038
0.000347178 	0.00113341 	0.000582429 	-0.284015
0.000347178 	5.56329e-05 	0.000991944 	-0.305469
0.000516194 	0.00119961 	0.000526479 	-0.283173
0.000516194 	-0.000171563 	0.000849695 	-0.30579
0.000682232 	0.00126344 	0.000476306 	-0.28221
0.000682232 	-0.000411185 	0.000719286 	-0.305957
0.000845345 	0.00132511 	0.000423961 	-0.28113
0.000845345 	-0.000662368 	0.00059593 	-0.305972
0.00100559 	0.00138621 	0.000373139 	-0.279922
0.00100559 	-0.000924085 	0.000480912 	-0.305832
0.001163 	0.00144675 	0.000326171 	-0.278588
0.001163 	-0.00119429 	0.00037506 	-0.305521
0.00131765 	0.00150265 	0.000284177 	-0.277183
0.00131765 	-0.00146997 	0.000277378 	-0.305018
0.00146957 	0.00155062 	0.000245324 	-0.275757
0.00146957 	-0.00174797 	0.000191049 	-0.304312
0.00161881 	0.00159094 	0.000207596 	-0.274309
0.00161881 	-0.00202691 	0.000112057 	-0.303422
0.00176543 	0.00162782 	0.000168576 	-0.272792
0.00176543 	-0.00228814 	1.22637e-05 	-0.30219
0.00190946 	0.00166765 	0.000136371 	-0.271093
0.00190946 	-0.00249218 	-7.85891e-05 	-0.300017
0.00205095 	0.00170595 	0.000121487 	-0.269099
0.00205095 	-0.00265407 	-9.14116e-05 	-0.296365
0.00218995 	0.00172813 	0.000110774 	-0.266904
0.00218995 	-0.0028469 	-8.86686e-05 	-0.292054
0.00232651 	0.00172837 	8.81267e-05 	-0.264829
0.00232651 	-0.00310348 	-0.000171911 	-0.289184
0.00246065 	0.00171443 	6.37296e-05 	-0.262967
0.00246065 	-0.00339005 	-0.000282153 	-0.288089
0.00259244 	0.00169851 	5.05659e-05 	-0.261137
0.00259244 	-0.00365042 	-0.000334651 	-0.287246
0.0027219 	0.00168724 	4.50262e-05 	-0.259259
0.0027219 	-0.00385912 	-0.000352772 	-0.285964
0.00284909 	0.00167995 	4.14175e-05 	-0.257361
0.00284909 	-0.0040289 	-0.000376481 	-0.284432
0.00297403 	0.00167404 	4.07816e-05 	-0.255463
0.00297403 	-0.00417517 	-0.000408511 	-0.282857
0.00309677 	0.00166774 	4.48487e-05 	-0.253565
0.00309677 	-0.00430123 	-0.000437802 	-0.28126
0.00321735 	0.00166048 	4.97374e-05 	-0.251662
0.00321735 	-0.00440588 	-0.000460957 	-0.279619
0.0033358 	0.00165462 	5.03376e-05 	-0.24972
0.0033358 	-0.00448787 	-0.000481159 	-0.277916
0.00345217 	0.00165538 	4.68652e-05 	-0.247647
0.00345217 	-0.00455076 	-0.000501654 	-0.276163
0.00356649 	0.00166577 	4.87585e-05 	-0.245377
0.00356649 	-0.00460835 	-0.00051319 	-0.274426
0.00367879 	0.0016815 	6.26564e-05 	-0.242991
0.00367879 	-0.00467466 	-0.000507065 	-0.27281
0.00378912 	-0.00474445 	-0.000491061 	-0.271319
0.00378912 	0.00169466 	8.06696e-05 	-0.240669
0.0038975 	0.00170248 	9.46008e-05 	-0.238493
0.0038975 	-0.00478177 	-0.000481121 	-0.269691
0.00400397 	0.00170734 	0.000103888 	-0.236418
0.00400397 	-0.00476748 	-0.000479452 	-0.267734
0.00410857 	0.00171196 	0.000112792 	-0.234375
0.00410857 	-0.0047262 	-0.000471949 	-0.265587
0.00421133 	0.00171784 	0.000124634 	-0.232329
0.00421133 	-0.00468092 	-0.0004553 	-0.263419
0.00431227 	0.00172524 	0.000136747 	-0.230268
0.00431227 	-0.00463476 	-0.000436968 	-0.261271
0.00441144 	0.00173392 	0.000147764 	-0.22819
0.00441144 	-0.00458208 	-0.000419508 	-0.259117
0.00450886 	0.00174359 	0.000158875 	-0.226095
0.00450886 	-0.00451962 	-0.000399055 	-0.256938
0.00460456 	0.00175399 	0.000168875 	-0.22398
0.00460456 	-0.00444798 	-0.00038198 	-0.254732
0.00469858 	0.00176575 	0.000176659 	-0.221832
0.00469858 	-0.00436221 	-0.000374701 	-0.252441
0.00479094 	0.00178079 	0.000184853 	-0.219623
0.00479094 	-0.00424789 	-0.000358014 	-0.249884
0.00488168 	0.00180031 	0.000195053 	-0.217312
0.00488168 	-0.00409528 	-0.000319931 	-0.246815
0.00497081 	0.00182243 	0.0002054 	-0.214898
0.00497081 	-0.00391617 	-0.000272256 	-0.243265
0.00505838 	0.00184184 	0.000212097 	-0.212458
0.00505838 	-0.00374668 	-0.000241176 	-0.239802
0.0051444 	0.00185441 	0.000213397 	-0.210064
0.0051444 	-0.00361391 	-0.000239551 	-0.236932
0.00522891 	0.00186154 	0.000213262 	-0.207697
0.00522891 	-0.00350643 	-0.000240612 	-0.234528
0.00531193 	-0.00339755 	-0.000224614 	-0.232191
0.00531193 	0.0018668 	0.000214599 	-0.205295
0.00539348 	0.00187193 	0.000216237 	-0.20282
0.00539348 	-0.00327417 	-0.000199958 	-0.2297
0.0054736 	0.00187662 	0.000216643 	-0.200262
0.0054736 	-0.00313795 	-0.000177792 	-0.227043
0.00555231 	0.00187983 	0.00021539 	-0.197619
0.00555231 	-0.00299496 	-0.000161748 	-0.224279
0.00562963 	0.00188069 	0.000212869 	-0.194888
0.00562963 	-0.00284879 	-0.000149241 	-0.221435
0.00570559 	0.00187858 	0.000209409 	-0.192057
0.00570559 	-0.00270038 	-0.000137688 	-0.218507
0.00578022 	0.00187294 	0.000205032 	-0.189116
0.00578022 	-0.00254999 	-0.000127075 	-0.215482
0.00585352 	0.00186317 	0.000199659 	-0.186052
0.00585352 	-0.00239795 	-0.000117924 	-0.212348
0.00592554 	0.00184856 	0.000193255 	-0.182849
0.00592554 	-0.00224462 	-0.000110256 	-0.20909
0.00599629 	0.00182838 	0.000185856 	-0.179489
0.00599629 	-0.00209029 	-0.000104001 	-0.205695
0.00606579 	-0.00193494 	-9.90109e-05 	-0.202139
0.00606579 	0.00180202 	0.000177551 	-0.175949
0.00613406 	0.00176914 	0.000168511 	-0.172203
0.00613406 	-0.00177827 	-9.50876e-05 	-0.198398
0.00620114 	0.00172975 	0.000158897 	-0.168224
0.00620114 	-0.00162012 	-9.20535e-05 	-0.194437
0.00626703 	0.00168398 	0.000148776 	-0.163986
0.00626703 	-0.00146077 	-8.98092e-05 	-0.190219
0.00633176 	0.00163205 	0.000138227 	-0.159462
0.00633176 	-0.00130103 	-8.82963e-05 	-0.185702
0.00639535 	0.00157416 	0.000127389 	-0.154625
0.00639535 	-0.0011421 	-8.7338e-05 	-0.18085
0.00645783 	0.00151052 	0.000116395 	-0.149451
0.00645783 	-0.000985445 	-8.67822e-05 	-0.175627
0.0065192 	0.00144136 	0.000105356 	-0.143916
0.0065192 	-0.000832629 	-8.65751e-05 	-0.169998
0.00657949 	0.00136689 	9.44156e-05 	-0.138
0.00657949 	-0.000685035 	-8.63779e-05 	-0.163927
0.00663871 	0.00128713 	8.37254e-05 	-0.131683
0.00663871 	-0.00054392 	-8.57183e-05 	-0.157369
0.0066969 	0.00120204 	7.33218e-05 	-0.124947
0.0066969 	-0.00041101 	-8.43661e-05 	-0.150279
0.00675406 	0.00111195 	6.32179e-05 	-0.117778
0.00675406 	-0.000289251 	-8.23845e-05 	-0.142633
0.00681021 	0.00101799 	5.35203e-05 	-0.110178
0.00681021 	-0.000182788 	-7.99586e-05 	-0.134435
0.00686537 	0.000922115 	4.43588e-05 	-0.102176
0.00686537 	-9.60809e-05 	-7.71083e-05 	-0.125707
0.00691956 	0.000826576 	3.58587e-05 	-0.0938342
0.00691956 	-3.30942e-05 	-7.37893e-05 	-0.116505
0.0069728 	0.000733623 	2.81147e-05 	-0.0852509
0.0069728 	3.22071e-06 	-7.00737e-05 	-0.106932
0.0070251 	0.000645337 	2.12287e-05 	-0.0765521
0.0070251 	1.17639e-05 	-6.60766e-05 	-0.0971294
0.00707647 	0.000563303 	1.53367e-05 	-0.0678758
0.00707647 	-5.66091e-06 	-6.17922e-05 	-0.0872557
0.00712695 	0.000488187 	1.05386e-05 	-0.0593477
0.00712695 	-4.36769e-05 	-5.7142e-05 	-0.0774503
0.00717653 	0.000419493 	6.88683e-06 	-0.0510592
0.00717653 	-9.33718e-05 	-5.19596e-05 	-0.0677979
0.00722524 	0.00035551 	4.38863e-06 	-0.0430556
0.00722524 	-0.000142748 	-4.57528e-05 	-0.0583045
0.00727309 	0.000293317 	2.92584e-06 	-0.0353374
0.00727309 	-0.000176549 	-3.85521e-05 	-0.0488884
0.0073201 	0.000228517 	2.16249e-06 	-0.0278672
0.0073201 	-0.000174279 	-3.16207e-05 	-0.0393711
0.00736628 	0.00015451 	2.37478e-06 	-0.0205645
0.00736628 	-0.000105726 	-1.88849e-05 	-0.0294413
0.00741165 	7.60021e-05 	1.74568e-06 	-0.0133861
0.00741165 	1.48432e-05 	-1.2474e-05 	-0.0190205
0.00745622 	1.86446e-05 	9.08154e-07 	-0.00647
0.00745622 	8.00839e-05 	-6.23269e-06 	-0.00885425
0.0075 	0 	0 	0
0.0075 	0 	0 	0
