0 	0 	0 	0
0 	-1.65945e-35 	-1.15436e-36 	1.85448e-31
5.01672e-05 	-1.43079e-06 	-1.53425e-07 	0.0173012
5.01672e-05 	-1.43079e-06 	-1.53425e-07 	0.0173012
0.000100334 	-1.8833e-06 	-7.06953e-07 	0.0332938
0.000150502 	-2.0973e-06 	-1.70241e-06 	0.0481318
0.000150502 	-2.0973e-06 	-1.70241e-06 	0.0481318
0.000200669 	-2.35803e-06 	-3.15382e-06 	0.0618991
0.000200669 	-2.35803e-06 	-3.15382e-06 	0.0618991
0.000250836 	-2.6452e-06 	-5.03389e-06 	0.0746762
0.000301003 	-2.91937e-06 	-7.33401e-06 	0.0865308
0.000301003 	-2.91937e-06 	-7.33401e-06 	0.0865308
0.000351171 	-3.16801e-06 	-1.00468e-05 	0.0975076
0.000401338 	-3.38662e-06 	-1.31782e-05 	0.107629
0.000451505 	-3.57402e-06 	-1.67512e-05 	0.11691
0.000451505 	-3.57402e-06 	-1.67512e-05 	0.11691
0.000501672 	-3.73099e-06 	-2.08017e-05 	0.125378
0.000551839 	-3.85951e-06 	-2.53678e-05 	0.133078
0.000551839 	-3.85951e-06 	-2.53678e-05 	0.133078
0.000602007 	-3.96203e-06 	-3.04798e-05 	0.14007
0.000602007 	-3.96203e-06 	-3.04798e-05 	0.14007
0.000652174 	-4.04103e-06 	-3.61587e-05 	0.146426
0.000652174 	-4.04103e-06 	-3.61587e-05 	0.146426
0.000702341 	-4.09876e-06 	-4.24209e-05 	0.152218
0.000702341 	-4.09876e-06 	-4.24209e-05 	0.152218
0.000752508 	-4.13709e-06 	-4.92808e-05 	0.157514
0.000802676 	-4.15733e-06 	-5.67518e-05 	0.16237
0.000852843 	-4.15834e-06 	-6.49298e-05 	0.166779
0.000852843 	-4.15834e-06 	-6.49298e-05 	0.166779
0.00090301 	-4.14466e-06 	-7.36878e-05 	0.170852
0.00090301 	-4.14466e-06 	-7.36878e-05 	0.170852
0.000953177 	-4.11815e-06 	-8.29759e-05 	0.174627
0.00100334 	-4.08047e-06 	-9.27424e-05 	0.178141
0.00100334 	-4.08047e-06 	-9.27424e-05 	0.178141
0.00105351 	-4.03301e-06 	-0.000102938 	0.181426
0.00105351 	-4.03301e-06 	-0.000102938 	0.181426
0.00110368 	-3.97675e-06 	-0.000113526 	0.184505
0.00115385 	-3.91067e-06 	-0.00012455 	0.187355
0.00120401 	-3.83813e-06 	-0.000135855 	0.190054
0.00120401 	-3.83813e-06 	-0.000135855 	0.190054
0.00130435 	-3.67646e-06 	-0.000159175 	0.195061
0.00130435 	-3.67646e-06 	-0.000159175 	0.195061
0.00135452 	-3.58726e-06 	-0.000171176 	0.197361
0.00135452 	-3.58726e-06 	-0.000171176 	0.197361
0.00140468 	-3.49391e-06 	-0.000183337 	0.199551
0.00145485 	-3.3976e-06 	-0.000195606 	0.201658
0.00145485 	-3.3976e-06 	-0.000195606 	0.201658
0.00150502 	-3.29874e-06 	-0.000207963 	0.203687
0.00150502 	-3.29874e-06 	-0.000207963 	0.203687
0.00155518 	-3.19682e-06 	-0.000220408 	0.205609
0.00155518 	-3.19682e-06 	-0.000220408 	0.205609
0.00160535 	-3.09331e-06 	-0.000232871 	0.20747
0.00160535 	-3.09331e-06 	-0.000232871 	0.20747
0.00165552 	-2.98838e-06 	-0.000245339 	0.209279
0.00165552 	-2.98838e-06 	-0.000245339 	0.209279
0.00170569 	-2.88145e-06 	-0.000257778 	0.211018
0.00170569 	-2.88145e-06 	-0.000257778 	0.211018
0.00175585 	-2.7728e-06 	-0.000270141 	0.2127
0.00175585 	-2.7728e-06 	-0.000270141 	0.2127
0.00180602 	-2.66295e-06 	-0.000282436 	0.214346
0.00180602 	-2.66295e-06 	-0.000282436 	0.214346
0.00185619 	-2.55132e-06 	-0.000294599 	0.215937
0.00185619 	-2.55132e-06 	-0.000294599 	0.215937
0.00190635 	-2.43814e-06 	-0.000306594 	0.217484
0.00190635 	-2.43814e-06 	-0.000306594 	0.217484
0.00195652 	-2.32397e-06 	-0.000318471 	0.219003
0.00195652 	-2.32397e-06 	-0.000318471 	0.219003
0.00200669 	-2.20809e-06 	-0.000330104 	0.220474
0.00200669 	-2.20809e-06 	-0.000330104 	0.220474
0.00205686 	-2.09098e-06 	-0.000341522 	0.221913
0.00210702 	-1.97304e-06 	-0.000352798 	0.22333
0.00210702 	-1.97304e-06 	-0.000352798 	0.22333
0.00215719 	-1.85309e-06 	-0.000363668 	0.224698
0.00220736 	-1.73233e-06 	-0.000374361 	0.226048
0.00225753 	-1.61029e-06 	-0.000384771 	0.22737
0.00225753 	-1.61029e-06 	-0.000384771 	0.22737
0.00230769 	-1.48666e-06 	-0.000394811 	0.22866
0.00230769 	-1.48666e-06 	-0.000394811 	0.22866
0.00235786 	-1.36233e-06 	-0.000404688 	0.229936
0.00235786 	-1.36233e-06 	-0.000404688 	0.229936
0.00240803 	-1.23577e-06 	-0.000414041 	0.231171
0.00240803 	-1.23577e-06 	-0.000414041 	0.231171
0.00245819 	-1.10838e-06 	-0.0004232 	0.232393
0.00245819 	-1.10838e-06 	-0.0004232 	0.232393
0.00250836 	-9.79295e-07 	-0.000431967 	0.233588
0.00250836 	-9.79295e-07 	-0.000431967 	0.233588
0.00255853 	-8.48592e-07 	-0.000440374 	0.23476
0.0026087 	-7.16741e-07 	-0.000448524 	0.235915
0.0026087 	-7.16741e-07 	-0.000448524 	0.235915
0.00265886 	-5.82462e-07 	-0.000456155 	0.237038
0.00270903 	-4.47607e-07 	-0.000463662 	0.238154
0.00270903 	-4.47607e-07 	-0.000463662 	0.238154
0.0027592 	-3.09532e-07 	-0.000470505 	0.239232
0.00280936 	-1.70914e-07 	-0.00047724 	0.240303
0.00280936 	-1.70914e-07 	-0.00047724 	0.240303
0.00285953 	-2.94232e-08 	-0.000483401 	0.241342
0.00285953 	-2.94232e-08 	-0.000483401 	0.241342
0.0029097 	1.13099e-07 	-0.000489367 	0.242369
0.0029097 	1.13099e-07 	-0.000489367 	0.242369
0.00295987 	2.58214e-07 	-0.000494841 	0.24337
0.00295987 	2.58214e-07 	-0.000494841 	0.24337
0.00301003 	4.04802e-07 	-0.00050006 	0.244356
0.0030602 	5.53827e-07 	-0.000504858 	0.245318
0.00311037 	7.04725e-07 	-0.000509374 	0.246263
0.00311037 	7.04725e-07 	-0.000509374 	0.246263
0.00316054 	8.58062e-07 	-0.000513522 	0.247188
0.00316054 	8.58062e-07 	-0.000513522 	0.247188
0.00326087 	1.17177e-06 	-0.000520934 	0.24898
0.00326087 	1.17177e-06 	-0.000520934 	0.24898
0.00331104 	1.33225e-06 	-0.000524228 	0.24985
0.0033612 	1.49562e-06 	-0.000527213 	0.250698
0.0033612 	1.49562e-06 	-0.000527213 	0.250698
0.00341137 	1.66097e-06 	-0.00053 	0.251531
0.00341137 	1.66097e-06 	-0.00053 	0.251531
0.00346154 	1.82932e-06 	-0.000532486 	0.252341
0.00346154 	1.82932e-06 	-0.000532486 	0.252341
0.00351171 	1.99894e-06 	-0.000534835 	0.253139
0.00356187 	2.17134e-06 	-0.000536883 	0.253912
0.00356187 	2.17134e-06 	-0.000536883 	0.253912
0.00361204 	2.34438e-06 	-0.000538857 	0.254677
0.00366221 	2.52009e-06 	-0.000540521 	0.255415
0.00366221 	2.52009e-06 	-0.000540521 	0.255415
0.00371237 	2.69591e-06 	-0.000542174 	0.256151
0.00371237 	2.69591e-06 	-0.000542174 	0.256151
0.00376254 	2.87514e-06 	-0.0005435 	0.256855
0.00376254 	2.87514e-06 	-0.0005435 	0.256855
0.00381271 	3.05437e-06 	-0.000544827 	0.257559
0.00381271 	3.05437e-06 	-0.000544827 	0.257559
0.00386288 	3.23723e-06 	-0.000545905 	0.258237
0.00391304 	3.42082e-06 	-0.000546934 	0.258909
0.00391304 	3.42082e-06 	-0.000546934 	0.258909
0.00396321 	3.60729e-06 	-0.000547806 	0.259562
0.00401338 	3.79575e-06 	-0.000548571 	0.260201
0.00401338 	3.79575e-06 	-0.000548571 	0.260201
0.00406355 	3.98569e-06 	-0.000549264 	0.260831
0.00406355 	3.98569e-06 	-0.000549264 	0.260831
0.00411371 	4.17887e-06 	-0.000549799 	0.261439
0.00411371 	4.17887e-06 	-0.000549799 	0.261439
0.00421405 	4.56952e-06 	-0.000550678 	0.262622
0.00421405 	4.56952e-06 	-0.000550678 	0.262622
0.00426421 	4.76702e-06 	-0.000551019 	0.263198
0.00426421 	4.76702e-06 	-0.000551019 	0.263198
0.00431438 	4.96694e-06 	-0.000551261 	0.263753
0.00431438 	4.96694e-06 	-0.000551261 	0.263753
0.00436455 	5.16826e-06 	-0.000551445 	0.264296
0.00436455 	5.16826e-06 	-0.000551445 	0.264296
0.00441472 	5.37033e-06 	-0.0005516 	0.264832
0.00441472 	5.37033e-06 	-0.0005516 	0.264832
0.00446488 	5.57491e-06 	-0.000551661 	0.265342
0.00446488 	5.57491e-06 	-0.000551661 	0.265342
0.00451505 	5.77949e-06 	-0.000551722 	0.265853
0.00451505 	5.77949e-06 	-0.000551722 	0.265853
0.00456522 	5.9861e-06 	-0.000551715 	0.266338
0.00456522 	5.9861e-06 	-0.000551715 	0.266338
0.00461538 	6.19327e-06 	-0.000551688 	0.266816
0.00461538 	6.19327e-06 	-0.000551688 	0.266816
0.00466555 	6.40099e-06 	-0.000551645 	0.267285
0.00471572 	6.61001e-06 	-0.000551564 	0.26773
0.00476589 	6.81904e-06 	-0.000551484 	0.268176
0.00476589 	6.81904e-06 	-0.000551484 	0.268176
0.00486622 	7.23895e-06 	-0.000551282 	0.26901
0.00486622 	7.23895e-06 	-0.000551282 	0.26901
0.00491639 	7.44907e-06 	-0.00055118 	0.269417
0.00496656 	7.65935e-06 	-0.000551082 	0.269798
0.00496656 	7.65935e-06 	-0.000551082 	0.269798
0.00501672 	7.86962e-06 	-0.000550984 	0.270178
0.00506689 	8.07945e-06 	-0.000550901 	0.270541
0.00511706 	8.28893e-06 	-0.000550832 	0.270889
0.00511706 	8.28893e-06 	-0.000550832 	0.270889
0.00521739 	8.70617e-06 	-0.000550734 	0.271558
0.00521739 	8.70617e-06 	-0.000550734 	0.271558
0.00526756 	8.91371e-06 	-0.000550711 	0.271874
0.00526756 	8.91371e-06 	-0.000550711 	0.271874
0.00531773 	9.12074e-06 	-0.000550698 	0.272185
0.00536789 	9.32502e-06 	-0.000550735 	0.272469
0.00536789 	9.32502e-06 	-0.000550735 	0.272469
0.00541806 	9.5293e-06 	-0.000550772 	0.272754
0.00546823 	9.73172e-06 	-0.000550835 	0.273026
0.00551839 	9.93113e-06 	-0.000550938 	0.273279
0.00551839 	9.93113e-06 	-0.000550938 	0.273279
0.00556856 	1.01305e-05 	-0.000551042 	0.273532
0.00556856 	1.01305e-05 	-0.000551042 	0.273532
0.0056689 	1.05188e-05 	-0.000551354 	0.273991
0.0056689 	1.05188e-05 	-0.000551354 	0.273991
0.00571906 	1.07114e-05 	-0.000551525 	0.274213
0.00576923 	1.08979e-05 	-0.000551739 	0.274415
0.00576923 	1.08979e-05 	-0.000551739 	0.274415
0.0058194 	1.10816e-05 	-0.000551971 	0.274608
0.0058194 	1.10816e-05 	-0.000551971 	0.274608
0.00591973 	1.14406e-05 	-0.000552475 	0.274971
0.00591973 	1.14406e-05 	-0.000552475 	0.274971
0.0059699 	1.16133e-05 	-0.000552757 	0.275135
0.0059699 	1.16133e-05 	-0.000552757 	0.275135
0.00602007 	1.1786e-05 	-0.000553039 	0.275299
0.00607023 	1.19484e-05 	-0.000553348 	0.275441
0.0061204 	1.21081e-05 	-0.000553664 	0.275577
0.0061204 	1.21081e-05 	-0.000553664 	0.275577
0.00617057 	1.22677e-05 	-0.00055398 	0.275713
0.00622074 	1.2416e-05 	-0.000554307 	0.275829
0.00622074 	1.2416e-05 	-0.000554307 	0.275829
0.0062709 	1.25607e-05 	-0.000554638 	0.275938
0.00632107 	1.27055e-05 	-0.000554968 	0.276048
0.00632107 	1.27055e-05 	-0.000554968 	0.276048
0.00637124 	1.28385e-05 	-0.000555295 	0.276139
0.00637124 	1.28385e-05 	-0.000555295 	0.276139
0.0064214 	1.29661e-05 	-0.00055562 	0.276222
0.0064214 	1.29661e-05 	-0.00055562 	0.276222
0.00647157 	1.30938e-05 	-0.000555944 	0.276305
0.00647157 	1.30938e-05 	-0.000555944 	0.276305
0.00652174 	1.32107e-05 	-0.000556266 	0.276375
0.00657191 	1.33188e-05 	-0.000556584 	0.276433
0.00657191 	1.33188e-05 	-0.000556584 	0.276433
0.00662207 	1.34268e-05 	-0.000556902 	0.276491
0.00667224 	1.3527e-05 	-0.000557206 	0.27654
0.00672241 	1.36125e-05 	-0.000557486 	0.276573
0.00672241 	1.36125e-05 	-0.000557486 	0.276573
0.00677258 	1.36981e-05 	-0.000557765 	0.276606
0.00682274 	1.37812e-05 	-0.000558036 	0.276636
0.00682274 	1.37812e-05 	-0.000558036 	0.276636
0.00687291 	1.38414e-05 	-0.000558238 	0.276645
0.00687291 	1.38414e-05 	-0.000558238 	0.276645
0.00692308 	1.39016e-05 	-0.000558439 	0.276653
0.00697324 	1.39618e-05 	-0.000558641 	0.276662
0.00702341 	1.39998e-05 	-0.000558789 	0.276651
0.00707358 	1.40319e-05 	-0.000558924 	0.276636
0.00707358 	1.40319e-05 	-0.000558924 	0.276636
0.00717391 	1.4084e-05 	-0.000559137 	0.276594
0.00717391 	1.4084e-05 	-0.000559137 	0.276594
0.00722408 	1.40874e-05 	-0.000559139 	0.276554
0.00722408 	1.40874e-05 	-0.000559139 	0.276554
0.00727425 	1.40908e-05 	-0.000559141 	0.276515
0.00727425 	1.40908e-05 	-0.000559141 	0.276515
0.00732441 	1.40941e-05 	-0.000559143 	0.276475
0.00732441 	1.40941e-05 	-0.000559143 	0.276475
0.00737458 	1.40705e-05 	-0.000559031 	0.276411
0.00737458 	1.40705e-05 	-0.000559031 	0.276411
0.00742475 	1.40467e-05 	-0.000558918 	0.276348
0.00747492 	1.40228e-05 	-0.000558805 	0.276284
0.00752508 	1.39854e-05 	-0.000558656 	0.276209
0.00752508 	1.39854e-05 	-0.000558656 	0.276209
0.00757525 	1.39345e-05 	-0.000558472 	0.276121
0.00762542 	1.38835e-05 	-0.000558287 	0.276034
0.00767559 	1.38323e-05 	-0.000558101 	0.275946
0.00767559 	1.38323e-05 	-0.000558101 	0.275946
0.00772575 	1.37548e-05 	-0.000557787 	0.275835
0.00777592 	1.36772e-05 	-0.000557473 	0.275724
0.00777592 	1.36772e-05 	-0.000557473 	0.275724
0.00782609 	1.35996e-05 	-0.00055716 	0.275612
0.00787625 	1.35068e-05 	-0.000556796 	0.275487
0.00787625 	1.35068e-05 	-0.000556796 	0.275487
0.00792642 	1.34031e-05 	-0.000556396 	0.275353
0.00797659 	1.32994e-05 	-0.000555997 	0.275218
0.00802676 	1.31903e-05 	-0.000555577 	0.275078
0.00802676 	1.31903e-05 	-0.000555577 	0.275078
0.00807692 	1.30614e-05 	-0.000555082 	0.274921
0.00807692 	1.30614e-05 	-0.000555082 	0.274921
0.00812709 	1.29325e-05 	-0.000554586 	0.274763
0.00817726 	1.28036e-05 	-0.000554091 	0.274605
0.00817726 	1.28036e-05 	-0.000554091 	0.274605
0.00822742 	1.26553e-05 	-0.000553468 	0.274427
0.00827759 	1.25049e-05 	-0.000552831 	0.274246
0.00827759 	1.25049e-05 	-0.000552831 	0.274246
0.00832776 	1.23544e-05 	-0.000552195 	0.274066
0.00832776 	1.23544e-05 	-0.000552195 	0.274066
0.00837793 	1.21923e-05 	-0.000551481 	0.273871
0.00842809 	1.20239e-05 	-0.000550727 	0.273668
0.00842809 	1.20239e-05 	-0.000550727 	0.273668
0.00847826 	1.18554e-05 	-0.000549973 	0.273465
0.00847826 	1.18554e-05 	-0.000549973 	0.273465
0.0085786 	1.1497e-05 	-0.000548295 	0.273026
0.0085786 	1.1497e-05 	-0.000548295 	0.273026
0.00862876 	1.13138e-05 	-0.000547425 	0.2728
0.00867893 	1.11268e-05 	-0.000546518 	0.272568
0.0087291 	1.09317e-05 	-0.000545533 	0.27232
0.00877926 	1.07366e-05 	-0.000544548 	0.272072
0.00882943 	1.05394e-05 	-0.000543536 	0.271818
0.0088796 	1.03351e-05 	-0.000542438 	0.271548
0.0088796 	1.03351e-05 	-0.000542438 	0.271548
0.00892977 	1.01308e-05 	-0.00054134 	0.271277
0.00892977 	1.01308e-05 	-0.00054134 	0.271277
0.00897993 	9.92505e-06 	-0.00054022 	0.271002
0.00897993 	9.92505e-06 	-0.00054022 	0.271002
0.0090301 	9.71384e-06 	-0.00053901 	0.270709
0.00908027 	9.50262e-06 	-0.000537801 	0.270416
0.00908027 	9.50262e-06 	-0.000537801 	0.270416
0.00913043 	9.29027e-06 	-0.000536566 	0.270118
0.0091806 	9.07417e-06 	-0.000535246 	0.269802
0.0091806 	9.07417e-06 	-0.000535246 	0.269802
0.00923077 	8.85807e-06 	-0.000533926 	0.269486
0.00928094 	8.641e-06 	-0.000532571 	0.269163
0.00928094 	8.641e-06 	-0.000532571 	0.269163
0.0093311 	8.42177e-06 	-0.00053114 	0.268825
0.00938127 	8.20254e-06 	-0.000529708 	0.268486
0.00938127 	8.20254e-06 	-0.000529708 	0.268486
0.00943144 	7.98259e-06 	-0.000528228 	0.268137
0.00943144 	7.98259e-06 	-0.000528228 	0.268137
0.00948161 	7.76173e-06 	-0.000526684 	0.267776
0.00948161 	7.76173e-06 	-0.000526684 	0.267776
0.00953177 	7.54087e-06 	-0.000525141 	0.267414
0.00953177 	7.54087e-06 	-0.000525141 	0.267414
0.00958194 	7.3198e-06 	-0.000523527 	0.267037
0.00958194 	7.3198e-06 	-0.000523527 	0.267037
0.00963211 	7.0986e-06 	-0.00052187 	0.266652
0.00968227 	6.8774e-06 	-0.000520213 	0.266267
0.00968227 	6.8774e-06 	-0.000520213 	0.266267
0.00973244 	6.65685e-06 	-0.000518458 	0.265861
0.00978261 	6.43641e-06 	-0.000516685 	0.265452
0.00978261 	6.43641e-06 	-0.000516685 	0.265452
0.00983278 	6.21619e-06 	-0.000514897 	0.26504
0.00983278 	6.21619e-06 	-0.000514897 	0.26504
0.00988294 	5.99745e-06 	-0.000513005 	0.264606
0.00993311 	5.77872e-06 	-0.000511113 	0.264173
0.00993311 	5.77872e-06 	-0.000511113 	0.264173
0.00998328 	5.56112e-06 	-0.000509165 	0.263728
0.0100334 	5.34491e-06 	-0.00050715 	0.263269
0.0100836 	5.1287e-06 	-0.000505135 	0.262811
0.0100836 	5.1287e-06 	-0.000505135 	0.262811
0.0101338 	4.91514e-06 	-0.000503015 	0.262332
0.0101839 	4.70214e-06 	-0.000500872 	0.261848
0.0101839 	4.70214e-06 	-0.000500872 	0.261848
0.0102341 	4.49007e-06 	-0.000498697 	0.261357
0.0102341 	4.49007e-06 	-0.000498697 	0.261357
0.0102843 	4.28086e-06 	-0.000496421 	0.260847
0.0103344 	4.07166e-06 	-0.000494146 	0.260338
0.0103344 	4.07166e-06 	-0.000494146 	0.260338
0.0103846 	3.86548e-06 	-0.000491771 	0.259809
0.0103846 	3.86548e-06 	-0.000491771 	0.259809
0.0104348 	3.66054e-06 	-0.000489356 	0.259272
0.0104348 	3.66054e-06 	-0.000489356 	0.259272
0.0104849 	3.45661e-06 	-0.000486908 	0.258729
0.0104849 	3.45661e-06 	-0.000486908 	0.258729
0.0105351 	3.25633e-06 	-0.000484347 	0.258165
0.0105853 	3.05604e-06 	-0.000481785 	0.2576
0.0105853 	3.05604e-06 	-0.000481785 	0.2576
0.0106856 	2.66429e-06 	-0.000476389 	0.256421
0.0106856 	2.66429e-06 	-0.000476389 	0.256421
0.0107358 	2.4709e-06 	-0.000473614 	0.255817
0.010786 	2.28084e-06 	-0.000470736 	0.255194
0.010786 	2.28084e-06 	-0.000470736 	0.255194
0.0108361 	2.09081e-06 	-0.000467858 	0.254571
0.0108863 	1.90623e-06 	-0.000464811 	0.253918
0.0108863 	1.90623e-06 	-0.000464811 	0.253918
0.0109365 	1.72164e-06 	-0.000461764 	0.253265
0.0109365 	1.72164e-06 	-0.000461764 	0.253265
0.0109866 	1.54096e-06 	-0.000458596 	0.25259
0.0110368 	1.36207e-06 	-0.000455371 	0.251904
0.0110368 	1.36207e-06 	-0.000455371 	0.251904
0.011087 	1.18556e-06 	-0.00045207 	0.251206
0.011087 	1.18556e-06 	-0.00045207 	0.251206
0.0111371 	1.01252e-06 	-0.000448656 	0.250487
0.0111873 	8.40495e-07 	-0.000445208 	0.249763
0.0111873 	8.40495e-07 	-0.000445208 	0.249763
0.0112375 	6.73435e-07 	-0.000441589 	0.249009
0.0112876 	5.06375e-07 	-0.000437971 	0.248256
0.0112876 	5.06375e-07 	-0.000437971 	0.248256
0.0113378 	3.45209e-07 	-0.000434137 	0.247467
0.0113378 	3.45209e-07 	-0.000434137 	0.247467
0.011388 	1.84225e-07 	-0.000430297 	0.246677
0.0114381 	2.81886e-08 	-0.000426254 	0.245856
0.0114381 	2.81886e-08 	-0.000426254 	0.245856
0.0114883 	-1.26686e-07 	-0.000422164 	0.245026
0.0115385 	-2.77561e-07 	-0.000417875 	0.244167
0.0115385 	-2.77561e-07 	-0.000417875 	0.244167
0.0115886 	-4.26619e-07 	-0.000413496 	0.243294
0.0116388 	-5.72584e-07 	-0.000408915 	0.242393
0.0116388 	-5.72584e-07 	-0.000408915 	0.242393
0.011689 	-7.16509e-07 	-0.0004042 	0.241473
0.0117391 	-8.57956e-07 	-0.000399272 	0.240523
0.0117893 	-9.97411e-07 	-0.000394171 	0.239551
0.0118395 	-1.13454e-06 	-0.000388837 	0.238547
0.0118395 	-1.13454e-06 	-0.000388837 	0.238547
0.0118896 	-1.26972e-06 	-0.000383305 	0.237516
0.0119398 	-1.40234e-06 	-0.000377513 	0.236451
0.0119398 	-1.40234e-06 	-0.000377513 	0.236451
0.01199 	-1.533e-06 	-0.000371521 	0.235358
0.0120401 	-1.66072e-06 	-0.000365233 	0.234224
0.0120401 	-1.66072e-06 	-0.000365233 	0.234224
0.0120903 	-1.78666e-06 	-0.000358765 	0.233064
0.0120903 	-1.78666e-06 	-0.000358765 	0.233064
0.0121906 	-2.03044e-06 	-0.000345003 	0.230622
0.0121906 	-2.03044e-06 	-0.000345003 	0.230622
0.0122408 	-2.14783e-06 	-0.000337646 	0.229326
0.012291 	-2.26449e-06 	-0.000330212 	0.228019
0.012291 	-2.26449e-06 	-0.000330212 	0.228019
0.0123411 	-2.37681e-06 	-0.000322295 	0.22663
0.0123913 	-2.48835e-06 	-0.000314286 	0.225225
0.0123913 	-2.48835e-06 	-0.000314286 	0.225225
0.0124415 	-2.59657e-06 	-0.000305893 	0.22375
0.0124415 	-2.59657e-06 	-0.000305893 	0.22375
0.0124916 	-2.70321e-06 	-0.000297308 	0.222237
0.0124916 	-2.70321e-06 	-0.000297308 	0.222237
0.0125418 	-2.80759e-06 	-0.000288454 	0.220671
0.012592 	-2.90958e-06 	-0.000279309 	0.21904
0.0126421 	-3.01037e-06 	-0.000270019 	0.217378
0.0126421 	-3.01037e-06 	-0.000270019 	0.217378
0.0126923 	-3.10798e-06 	-0.000260348 	0.215619
0.0127425 	-3.20459e-06 	-0.000250565 	0.213826
0.0127425 	-3.20459e-06 	-0.000250565 	0.213826
0.0127926 	-3.29893e-06 	-0.000240525 	0.211956
0.0128428 	-3.39148e-06 	-0.000230308 	0.210018
0.0128428 	-3.39148e-06 	-0.000230308 	0.210018
0.0129431 	-3.57161e-06 	-0.000209434 	0.205939
0.0129431 	-3.57161e-06 	-0.000209434 	0.205939
0.0129933 	-3.65926e-06 	-0.000198832 	0.203792
0.0130435 	-3.74531e-06 	-0.000188147 	0.201571
0.0130435 	-3.74531e-06 	-0.000188147 	0.201571
0.0131438 	-3.91201e-06 	-0.000166688 	0.196855
0.0131438 	-3.91201e-06 	-0.000166688 	0.196855
0.013194 	-3.99293e-06 	-0.000155985 	0.194369
0.0132441 	-4.07181e-06 	-0.000145377 	0.191773
0.0132441 	-4.07181e-06 	-0.000145377 	0.191773
0.0132943 	-4.14926e-06 	-0.000134857 	0.189101
0.0133445 	-4.22466e-06 	-0.000124489 	0.186321
0.0133445 	-4.22466e-06 	-0.000124489 	0.186321
0.0133946 	-4.29749e-06 	-0.000114362 	0.183409
0.0133946 	-4.29749e-06 	-0.000114362 	0.183409
0.0134448 	-4.3684e-06 	-0.00010443 	0.180402
0.0134448 	-4.3684e-06 	-0.00010443 	0.180402
0.013495 	-4.43715e-06 	-9.4725e-05 	0.17729
0.0135452 	-4.50213e-06 	-8.54474e-05 	0.174
0.0135452 	-4.50213e-06 	-8.54474e-05 	0.174
0.0135953 	-4.56451e-06 	-7.64772e-05 	0.17059
0.0135953 	-4.56451e-06 	-7.64772e-05 	0.17059
0.0136455 	-4.62404e-06 	-6.78414e-05 	0.167051
0.0136455 	-4.62404e-06 	-6.78414e-05 	0.167051
0.0136957 	-4.6798e-06 	-5.96378e-05 	0.163345
0.0136957 	-4.6798e-06 	-5.96378e-05 	0.163345
0.0137458 	-4.73016e-06 	-5.19773e-05 	0.159431
0.013796 	-4.77544e-06 	-4.47623e-05 	0.155344
0.013796 	-4.77544e-06 	-4.47623e-05 	0.155344
0.0138462 	-4.81478e-06 	-3.80227e-05 	0.151072
0.0138462 	-4.81478e-06 	-3.80227e-05 	0.151072
0.0138963 	-4.8472e-06 	-3.17892e-05 	0.146598
0.0139465 	-4.86863e-06 	-2.62516e-05 	0.141835
0.0139465 	-4.86863e-06 	-2.62516e-05 	0.141835
0.0139967 	-4.87975e-06 	-2.12683e-05 	0.136825
0.0139967 	-4.87975e-06 	-2.12683e-05 	0.136825
0.0140468 	-4.87919e-06 	-1.68384e-05 	0.131555
0.0140468 	-4.87919e-06 	-1.68384e-05 	0.131555
0.014097 	-4.86527e-06 	-1.297e-05 	0.126003
0.0141472 	-4.83627e-06 	-9.66303e-06 	0.120146
0.0141472 	-4.83627e-06 	-9.66303e-06 	0.120146
0.0141973 	-4.79047e-06 	-6.90327e-06 	0.113957
0.0142475 	-4.72187e-06 	-4.73276e-06 	0.107337
0.0142977 	-4.6283e-06 	-3.01938e-06 	0.100302
0.0142977 	-4.6283e-06 	-3.01938e-06 	0.100302
0.0143478 	-4.50349e-06 	-1.71797e-06 	0.0928419
0.014398 	-4.34052e-06 	-7.88555e-07 	0.0849766
0.014398 	-4.34052e-06 	-7.88555e-07 	0.0849766
0.0144482 	-4.13303e-06 	-1.82132e-07 	0.076764
0.0144983 	-3.8763e-06 	1.60773e-07 	0.0683088
0.0144983 	-3.8763e-06 	1.60773e-07 	0.0683088
0.0145485 	-3.56844e-06 	3.06618e-07 	0.0597608
0.0145485 	-3.56844e-06 	3.06618e-07 	0.0597608
0.0145987 	-3.21178e-06 	3.22322e-07 	0.0513003
0.0146488 	-2.81383e-06 	2.66992e-07 	0.0431082
0.014699 	-2.38722e-06 	1.84986e-07 	0.035332
0.014699 	-2.38722e-06 	1.84986e-07 	0.035332
0.0147492 	-1.94975e-06 	1.03482e-07 	0.0280668
0.0147993 	-1.52709e-06 	3.66295e-08 	0.0213563
0.0147993 	-1.52709e-06 	3.66295e-08 	0.0213563
0.0148495 	-1.16275e-06 	-1.2147e-08 	0.0152091
0.0148495 	-1.16275e-06 	-1.2147e-08 	0.0152091
0.0148997 	-8.81728e-07 	-3.152e-08 	0.00961489
0.0148997 	-8.81728e-07 	-3.152e-08 	0.00961489
0.0149498 	-5.69107e-07 	-2.49923e-08 	0.0045569
0.0149498 	-5.69107e-07 	-2.49923e-08 	0.0045569
0.015 	0 	0 	0
0.015 	0 	0 	0
