/*--------------------------------*- C++ -*----------------------------------*\
| =========                 |                                                 |
| \\      /  F ield         | OpenFOAM: The Open Source CFD Toolbox           |
|  \\    /   O peration     | Version:  v1912                                 |
|   \\  /    A nd           | Website:  www.openfoam.com                      |
|    \\/     M anipulation  |                                                 |
\*---------------------------------------------------------------------------*/
FoamFile
{
    version     2.0;
    format      ascii;
    class       volVectorField;
    location    "197.6";
    object      U;
}
// * * * * * * * * * * * * * * * * * * * * * * * * * * * * * * * * * * * * * //

dimensions      [0 1 -1 0 0 0 0];


internalField   nonuniform List<vector> 
10147
(
(3.28731e-07 6.03371e-07 0.00659872)
(-0.000233505 7.04707e-08 0.00754175)
(-8.51375e-05 -2.64274e-07 0.00823565)
(-2.95992e-05 -9.6441e-08 0.00804266)
(-1.45638e-05 -2.81438e-08 0.00795044)
(-7.08065e-06 7.18777e-11 0.00795351)
(-2.08947e-06 1.54392e-08 0.00793336)
(-7.83292e-07 2.38443e-08 0.00792832)
(2.62359e-07 2.56161e-08 0.00792332)
(1.25587e-06 2.445e-08 0.00792974)
(2.50492e-06 1.64932e-08 0.00793521)
(7.27531e-06 8.43071e-10 0.00795604)
(1.46671e-05 -2.78979e-08 0.00795267)
(2.96148e-05 -9.7052e-08 0.00804528)
(8.5198e-05 -2.63694e-07 0.00824032)
(0.000233696 7.00004e-08 0.00754779)
(1.27494e-06 6.97044e-06 0.0190417)
(-0.000673903 1.2263e-06 0.0217221)
(-0.000243151 -2.73376e-06 0.0237328)
(-8.61208e-05 -7.88941e-07 0.0231837)
(-4.22758e-05 -2.01729e-08 0.0229174)
(-2.01966e-05 3.87754e-07 0.0229233)
(-5.95681e-06 5.70591e-07 0.0228648)
(-2.33451e-06 6.92685e-07 0.0228495)
(4.55187e-07 7.02905e-07 0.0228353)
(3.12282e-06 6.91395e-07 0.0228538)
(6.71366e-06 5.65996e-07 0.0228706)
(2.0549e-05 3.81339e-07 0.0229312)
(4.26418e-05 -3.00449e-08 0.0229244)
(8.64325e-05 -8.00012e-07 0.0231916)
(0.000243749 -2.73909e-06 0.0237465)
(0.000675011 1.21077e-06 0.0217396)
(2.40577e-06 1.95214e-05 0.0308845)
(-0.00109194 3.46608e-06 0.035171)
(-0.00039081 -7.68832e-06 0.0384361)
(-0.000140687 -2.20569e-06 0.0375581)
(-6.90059e-05 -6.32031e-08 0.0371266)
(-3.2606e-05 1.11166e-06 0.0371322)
(-9.67652e-06 1.6213e-06 0.037037)
(-3.91496e-06 1.96916e-06 0.037011)
(4.06425e-07 1.99634e-06 0.0369884)
(4.58162e-06 1.96475e-06 0.0370183)
(1.04771e-05 1.60677e-06 0.0370469)
(3.30087e-05 1.09078e-06 0.0371455)
(6.96927e-05 -9.31224e-08 0.0371385)
(0.000141468 -2.23718e-06 0.0375713)
(0.000392199 -7.70506e-06 0.0384586)
(0.00109428 3.42172e-06 0.0351995)
(3.61956e-06 3.83261e-05 0.0421621)
(-0.00148686 6.80255e-06 0.0479218)
(-0.000528399 -1.50927e-05 0.0523729)
(-0.000193348 -4.29008e-06 0.0511942)
(-9.47395e-05 -1.40689e-07 0.050607)
(-4.4362e-05 2.20792e-06 0.0506091)
(-1.32463e-05 3.21361e-06 0.0504789)
(-5.45557e-06 3.90777e-06 0.0504418)
(2.39514e-07 3.95898e-06 0.0504114)
(5.7841e-06 3.89746e-06 0.050452)
(1.39403e-05 3.18045e-06 0.0504929)
(4.47658e-05 2.16094e-06 0.0506279)
(9.57823e-05 -2.05402e-07 0.0506237)
(0.000194691 -4.35454e-06 0.0512125)
(0.000530684 -1.51303e-05 0.0524038)
(0.00149056 6.71137e-06 0.0479606)
(4.90724e-06 6.30908e-05 0.0529039)
(-0.00185715 1.10958e-05 0.0600057)
(-0.000655911 -2.49083e-05 0.06557)
(-0.000243963 -7.07052e-06 0.0641176)
(-0.000119308 -3.28616e-07 0.0633846)
(-5.53929e-05 3.58475e-06 0.0633803)
(-1.66091e-05 5.24644e-06 0.0632167)
(-6.92368e-06 6.39885e-06 0.0631682)
(-2.96369e-08 6.48087e-06 0.0631307)
(6.72193e-06 6.37913e-06 0.0631812)
(1.7053e-05 5.18563e-06 0.0632347)
(5.57473e-05 3.49978e-06 0.0634044)
(0.00012074 -4.41944e-07 0.0634062)
(0.000245953 -7.18008e-06 0.0641409)
(0.000659183 -2.4975e-05 0.065609)
(0.0018623 1.09411e-05 0.0600543)
(6.27136e-06 9.35579e-05 0.0631337)
(-0.00220116 1.62537e-05 0.0714576)
(-0.000773416 -3.705e-05 0.0780617)
(-0.00029238 -1.05316e-05 0.0763582)
(-0.000142551 -6.68197e-07 0.0754893)
(-6.56314e-05 5.19137e-06 0.075476)
(-1.97168e-05 7.66612e-06 0.0752804)
(-8.30994e-06 9.38553e-06 0.0752204)
(-4.10991e-07 9.50516e-06 0.0751764)
(7.36905e-06 9.35265e-06 0.0752362)
(1.97568e-05 7.56777e-06 0.0753025)
(6.5886e-05 5.05526e-06 0.0755054)
(0.000144411 -8.45235e-07 0.0755157)
(0.000295112 -1.06989e-05 0.0763865)
(0.000777774 -3.7155e-05 0.0781083)
(0.00220788 1.60173e-05 0.0715154)
(7.69771e-06 0.000129518 0.0728724)
(-0.00251745 2.22056e-05 0.0823171)
(-0.00088115 -5.14634e-05 0.0898889)
(-0.000338491 -1.46824e-05 0.0879499)
(-0.00016434 -1.20766e-06 0.0869546)
(-7.50363e-05 6.97005e-06 0.0869301)
(-2.2529e-05 1.04113e-05 0.086704)
(-9.59902e-06 1.28022e-05 0.0866323)
(-8.96741e-07 1.29664e-05 0.0865823)
(7.7258e-06 1.2752e-05 0.0866507)
(2.20246e-05 1.02646e-05 0.0867302)
(7.51487e-05 6.7685e-06 0.0869647)
(0.00016667 -1.46428e-06 0.0869858)
(0.000342057 -1.49204e-05 0.0879829)
(0.000886681 -5.16161e-05 0.0899428)
(0.00252582 2.1869e-05 0.0823837)
(9.17025e-06 0.000170767 0.0821357)
(-0.00280457 2.89031e-05 0.0926167)
(-0.000979335 -6.80882e-05 0.101083)
(-0.000382164 -1.95387e-05 0.0989145)
(-0.000184555 -1.99608e-06 0.0978035)
(-8.35708e-05 8.85978e-06 0.0977657)
(-2.5009e-05 1.34162e-05 0.0975104)
(-1.07748e-05 1.65785e-05 0.097427)
(-1.47556e-06 1.67939e-05 0.0973715)
(7.79774e-06 1.65061e-05 0.097448)
(2.38353e-05 1.32096e-05 0.0975405)
(8.35062e-05 8.57758e-06 0.0978054)
(0.000187393 -2.34858e-06 0.0978394)
(0.000386645 -1.98602e-05 0.0989521)
(0.000986113 -6.82985e-05 0.101144)
(0.00281465 2.8447e-05 0.0926915)
(1.06724e-05 0.000217084 0.0909289)
(-0.00306083 3.63066e-05 0.102368)
(-0.00106805 -8.68443e-05 0.111652)
(-0.000423198 -2.5125e-05 0.109249)
(-0.000203064 -3.08922e-06 0.108035)
(-9.11971e-05 1.07855e-05 0.107981)
(-2.71245e-05 1.65985e-05 0.107698)
(-1.18222e-05 2.06251e-05 0.107603)
(-2.134e-06 2.08983e-05 0.107543)
(7.59512e-06 2.05256e-05 0.107627)
(2.51745e-05 1.63198e-05 0.107732)
(9.09274e-05 1.04068e-05 0.108026)
(0.000206445 -3.55415e-06 0.108075)
(0.000428661 -2.55428e-05 0.109291)
(0.00107614 -8.71221e-05 0.111719)
(0.00307268 3.57111e-05 0.10245)
(1.21858e-05 0.000268186 0.0992451)
(-0.00328453 4.43681e-05 0.11156)
(-0.0011473 -0.000107629 0.12158)
(-0.000461352 -3.14778e-05 0.118933)
(-0.000219749 -4.55558e-06 0.117629)
(-9.78882e-05 1.26507e-05 0.117557)
(-2.88547e-05 1.98514e-05 0.117248)
(-1.27295e-05 2.48263e-05 0.117141)
(-2.85556e-06 2.51635e-05 0.117076)
(7.13722e-06 2.46941e-05 0.117167)
(2.60424e-05 1.94882e-05 0.117285)
(9.73916e-05 1.21595e-05 0.117607)
(0.000223697 -5.14915e-06 0.117674)
(0.000467849 -3.2004e-05 0.118979)
(0.00115674 -0.000107985 0.121653)
(0.00329818 4.3613e-05 0.111649)
(1.36899e-05 0.000323708 0.107072)
(-0.00347448 5.30251e-05 0.120179)
(-0.00121716 -0.000130331 0.130855)
(-0.000496431 -3.86495e-05 0.127948)
(-0.000234541 -6.47785e-06 0.126569)
(-0.000103644 1.43402e-05 0.126475)
(-3.01964e-05 2.30477e-05 0.126141)
(-1.3491e-05 2.90447e-05 0.126022)
(-3.6211e-06 2.94518e-05 0.125953)
(6.45424e-06 2.88742e-05 0.12605)
(2.64607e-05 2.25877e-05 0.126182)
(0.000102907 1.37206e-05 0.126529)
(0.000239074 -7.21565e-06 0.126618)
(0.000503994 -3.92953e-05 0.127998)
(0.00122797 -0.000130774 0.130933)
(0.00348994 5.20905e-05 0.120274)
(1.5164e-05 0.000383199 0.114401)
(-0.00363045 6.22017e-05 0.128217)
(-0.00127788 -0.000154797 0.139476)
(-0.000528344 -4.67009e-05 0.136295)
(-0.000247449 -8.94625e-06 0.134854)
(-0.0001085 1.57309e-05 0.134733)
(-3.11661e-05 2.60528e-05 0.134374)
(-1.41081e-05 3.3136e-05 0.134244)
(-4.41063e-06 3.36185e-05 0.134171)
(5.58499e-06 3.29215e-05 0.134273)
(2.64715e-05 2.54838e-05 0.134419)
(0.000107515 1.49673e-05 0.134792)
(0.000252573 -9.84311e-06 0.134907)
(0.000536984 -4.74769e-05 0.136348)
(0.00129008 -0.000155336 0.139557)
(0.00364771 6.10681e-05 0.128318)
(1.6589e-05 0.000446124 0.121237)
(-0.00375318 7.18116e-05 0.135684)
(-0.00133003 -0.000180875 0.147476)
(-0.000557109 -5.56804e-05 0.143994)
(-0.000258549 -1.20457e-05 0.142502)
(-0.000112521 1.67038e-05 0.142349)
(-3.17955e-05 2.87371e-05 0.141966)
(-1.45883e-05 3.69614e-05 0.141823)
(-5.20505e-06 3.75252e-05 0.141747)
(4.57257e-06 3.66972e-05 0.141854)
(2.61319e-05 2.80473e-05 0.142014)
(0.00011129 1.57814e-05 0.142412)
(0.00026426 -1.31151e-05 0.142559)
(0.00056682 -5.65956e-05 0.144051)
(0.00134359 -0.000181521 0.147561)
(0.00377222 7.04599e-05 0.135791)
(1.79492e-05 0.000511901 0.127593)
(-0.00384422 8.17254e-05 0.142604)
(-0.00137428 -0.000208466 0.154916)
(-0.000582881 -6.56385e-05 0.151099)
(-0.000267979 -1.58516e-05 0.149559)
(-0.000115792 1.71534e-05 0.149363)
(-3.21268e-05 3.0983e-05 0.148953)
(-1.49436e-05 4.03936e-05 0.148794)
(-5.98773e-06 4.10442e-05 0.148716)
(3.46002e-06 4.00739e-05 0.148828)
(2.55058e-05 3.01612e-05 0.149005)
(0.000114322 1.6058e-05 0.149431)
(0.000274269 -1.71063e-05 0.149621)
(0.000593645 -6.67016e-05 0.151159)
(0.00138921 -0.000209228 0.155005)
(0.00386499 8.0137e-05 0.142716)
(1.92322e-05 0.000579923 0.133494)
(-0.00390573 9.18323e-05 0.149025)
(-0.00141122 -0.000237418 0.161842)
(-0.000605868 -7.66342e-05 0.157673)
(-0.000275907 -2.04468e-05 0.156087)
(-0.000118409 1.69774e-05 0.155836)
(-3.22058e-05 3.26824e-05 0.155395)
(-1.51892e-05 4.33217e-05 0.155219)
(-6.74711e-06 4.40644e-05 0.155137)
(2.28382e-06 4.29403e-05 0.155254)
(2.46547e-05 3.1717e-05 0.155451)
(0.000116714 1.56944e-05 0.155909)
(0.000282762 -2.18998e-05 0.156154)
(0.000617656 -7.78542e-05 0.157737)
(0.00142749 -0.000238305 0.161935)
(0.00392817 8.99904e-05 0.149142)
(2.04294e-05 0.000649569 0.138972)
(-0.00393997 0.000102018 0.154996)
(-0.00144128 -0.000267544 0.168282)
(-0.000626219 -8.87518e-05 0.163761)
(-0.000282485 -2.5949e-05 0.162135)
(-0.00012046 1.60341e-05 0.161819)
(-3.20777e-05 3.3688e-05 0.161346)
(-1.53402e-05 4.55941e-05 0.161149)
(-7.47379e-06 4.64343e-05 0.161065)
(1.07661e-06 4.51449e-05 0.161187)
(2.36361e-05 3.25676e-05 0.161406)
(0.000118556 1.45493e-05 0.161897)
(0.000289886 -2.76127e-05 0.162207)
(0.000638995 -9.01371e-05 0.163828)
(0.00145886 -0.000268566 0.168378)
(0.00396403 9.99069e-05 0.155119)
(2.1535e-05 0.000720222 0.144059)
(-0.00394908 0.000112161 0.160555)
(-0.00146489 -0.000298728 0.174265)
(-0.000644057 -0.000102057 0.169396)
(-0.000287848 -3.246e-05 0.167736)
(-0.000122025 1.41936e-05 0.167345)
(-3.17869e-05 3.38606e-05 0.166839)
(-1.5412e-05 4.7067e-05 0.166619)
(-8.15835e-06 4.80093e-05 0.166532)
(-1.29072e-07 4.65436e-05 0.166659)
(2.25071e-05 3.25738e-05 0.166903)
(0.000119932 1.24928e-05 0.167428)
(0.000295774 -3.43468e-05 0.167813)
(0.000657777 -0.000103616 0.169468)
(0.00148374 -0.000299894 0.174364)
(0.00397469 0.000109767 0.160682)
(2.25458e-05 0.000791269 0.148791)
(-0.00393525 0.000122159 0.165727)
(-0.00148249 -0.000330857 0.17982)
(-0.000659512 -0.000116646 0.174614)
(-0.000292131 -4.01016e-05 0.172921)
(-0.00012318 1.1312e-05 0.172446)
(-3.13768e-05 3.30503e-05 0.171904)
(-1.54198e-05 4.75854e-05 0.171661)
(-8.79299e-06 4.86347e-05 0.171571)
(-1.30358e-06 4.69819e-05 0.171703)
(2.13215e-05 3.15862e-05 0.171974)
(0.000120919 9.3815e-06 0.172536)
(0.000300555 -4.22229e-05 0.173005)
(0.000674125 -0.000118388 0.17469)
(0.00150256 -0.000332176 0.179922)
(0.00396232 0.00011947 0.16586)
(2.34607e-05 0.000862163 0.153201)
(-0.00390071 0.000131922 0.17054)
(-0.00149448 -0.000363844 0.184976)
(-0.000672721 -0.000132582 0.179445)
(-0.000295463 -4.89604e-05 0.177724)
(-0.000123995 7.28301e-06 0.177155)
(-3.0888e-05 3.1146e-05 0.176576)
(-1.53779e-05 4.70344e-05 0.176306)
(-9.37134e-06 4.81954e-05 0.176215)
(-2.42086e-06 4.63447e-05 0.176351)
(2.01283e-05 2.94941e-05 0.17665)
(0.000121592 5.10997e-06 0.177251)
(0.000304356 -5.13267e-05 0.177814)
(0.000688168 -0.000134514 0.179526)
(0.00151571 -0.000365326 0.185081)
(0.00392915 0.000128929 0.170678)
(2.428e-05 0.0009324 0.157322)
(-0.00384772 0.00014137 0.175019)
(-0.00150126 -0.000397579 0.189762)
(-0.00068382 -0.000149892 0.183922)
(-0.000297964 -5.90867e-05 0.182175)
(-0.000124535 2.04507e-06 0.181504)
(-3.03567e-05 2.80813e-05 0.180887)
(-1.52994e-05 4.53398e-05 0.180594)
(-9.88956e-06 4.66171e-05 0.180501)
(-3.46068e-06 4.45585e-05 0.18064)
(1.89701e-05 2.6232e-05 0.180966)
(0.000122017 -3.83155e-07 0.181606)
(0.000307296 -6.1708e-05 0.182271)
(0.000700043 -0.000152022 0.184008)
(0.0015236 -0.000399232 0.189871)
(0.00387744 0.000138063 0.175162)
(2.50054e-05 0.00100156 0.161182)
(-0.00377851 0.000150435 0.17919)
(-0.00150322 -0.000431936 0.194205)
(-0.000692951 -0.000168572 0.188076)
(-0.00029975 -7.04977e-05 0.186304)
(-0.000124857 -4.43832e-06 0.185535)
(-2.98103e-05 2.38063e-05 0.184887)
(-1.51951e-05 4.24457e-05 0.184573)
(-1.0347e-05 4.3844e-05 0.184478)
(-4.41132e-06 4.15674e-05 0.184621)
(1.78763e-05 2.17507e-05 0.18497)
(0.000122252 -7.13218e-06 0.185642)
(0.00030949 -7.33844e-05 0.186407)
(0.000709885 -0.000170907 0.188167)
(0.00152659 -0.000433767 0.194317)
(0.00380941 0.000146808 0.179338)
(2.56393e-05 0.00106925 0.164808)
(-0.00369525 0.000159057 0.183077)
(-0.00150071 -0.000466774 0.198331)
(-0.000700254 -0.00018857 0.191937)
(-0.00030092 -8.31721e-05 0.190145)
(-0.000125005 -1.22031e-05 0.189294)
(-2.92705e-05 1.82783e-05 0.188619)
(-1.5074e-05 3.83071e-05 0.188286)
(-1.0744e-05 3.98313e-05 0.188189)
(-5.26434e-06 3.73266e-05 0.188335)
(1.68685e-05 1.60084e-05 0.188706)
(0.000122343 -1.51722e-05 0.189406)
(0.000311038 -8.63304e-05 0.190254)
(0.000717837 -0.000191119 0.192034)
(0.00152506 -0.00046879 0.198446)
(0.00372721 0.000155106 0.183229)
(2.61844e-05 0.00113513 0.168224)
(-0.00359993 0.000167186 0.186707)
(-0.00149409 -0.000501944 0.202164)
(-0.000705864 -0.000209861 0.195547)
(-0.000301558 -9.71199e-05 0.193741)
(-0.000125014 -2.12702e-05 0.192818)
(-2.87576e-05 1.14747e-05 0.192116)
(-1.49448e-05 3.28936e-05 0.191762)
(-1.10804e-05 3.45487e-05 0.191664)
(-6.0115e-06 3.18061e-05 0.191813)
(1.59667e-05 8.98296e-06 0.192207)
(0.000122324 -2.45244e-05 0.192934)
(0.000312025 -0.000100555 0.193855)
(0.000724035 -0.000212628 0.195648)
(0.00151934 -0.000504151 0.202282)
(0.00363286 0.000162906 0.186863)
(2.66439e-05 0.00119889 0.171453)
(-0.00349409 0.000174799 0.190116)
(-0.00148369 -0.000537256 0.205729)
(-0.000709888 -0.000232436 0.198945)
(-0.000301729 -0.000112342 0.19713)
(-0.000124916 -3.1646e-05 0.196132)
(-2.82896e-05 3.37573e-06 0.195404)
(-1.4815e-05 2.61797e-05 0.195028)
(-1.13569e-05 2.79707e-05 0.194929)
(-6.64623e-06 2.49807e-05 0.195081)
(1.51884e-05 6.55684e-07 0.195499)
(0.000122228 -3.51933e-05 0.196253)
(0.00031252 -0.000116062 0.197249)
(0.00072859 -0.000235425 0.19905)
(0.00150977 -0.000539663 0.20585)
(0.00352791 0.000170188 0.190275)
(2.70214e-05 0.00126025 0.174514)
(-0.00337911 0.00018188 0.193334)
(-0.00146982 -0.000572517 0.209056)
(-0.000712405 -0.000256237 0.202158)
(-0.000301493 -0.0001288 0.200334)
(-0.00012474 -4.33385e-05 0.199261)
(-2.7881e-05 -6.03368e-06 0.198506)
(-1.46908e-05 1.81455e-05 0.198107)
(-1.15738e-05 2.00776e-05 0.198008)
(-7.1634e-06 1.68305e-05 0.198162)
(1.45479e-05 -8.98782e-06 0.198604)
(0.000122082 -4.71861e-05 0.199387)
(0.000312583 -0.00013281 0.200458)
(0.000731583 -0.000259453 0.202267)
(0.00149666 -0.000575125 0.209181)
(0.00341372 0.000176937 0.193496)
(2.73205e-05 0.00131898 0.177427)
(-0.00325641 0.000188399 0.196381)
(-0.00145269 -0.000607651 0.212186)
(-0.000713491 -0.000281203 0.205206)
(-0.000300902 -0.000146472 0.203373)
(-0.000124509 -5.63527e-05 0.202224)
(-2.75439e-05 -1.6765e-05 0.201442)
(-1.45774e-05 8.77445e-06 0.201021)
(-1.17322e-05 1.08528e-05 0.20092)
(-7.55946e-06 7.33942e-06 0.201077)
(1.40563e-05 -1.99585e-05 0.201544)
(0.000121909 -6.05073e-05 0.202355)
(0.000312266 -0.000150772 0.203503)
(0.000733092 -0.000284645 0.205319)
(0.00148021 -0.000610465 0.212313)
(0.00329173 0.000183124 0.196545)
(2.7545e-05 0.00137485 0.180207)
(-0.00312735 0.000194348 0.199274)
(-0.00143246 -0.000642534 0.215148)
(-0.000713222 -0.000307272 0.208107)
(-0.000299998 -0.000165323 0.206267)
(-0.000124241 -7.06814e-05 0.205041)
(-2.72875e-05 -2.88243e-05 0.204232)
(-1.44791e-05 -1.94584e-06 0.203788)
(-1.18329e-05 2.84323e-07 0.203686)
(-7.83222e-06 -3.5049e-06 0.203846)
(1.37218e-05 -3.22593e-05 0.204338)
(0.00012173 -7.51457e-05 0.205177)
(0.000311616 -0.000169912 0.206402)
(0.000733197 -0.00031094 0.208225)
(0.00146061 -0.000645558 0.215277)
(0.00316328 0.000188741 0.19944)
(2.76987e-05 0.00142767 0.182869)
(-0.00299315 0.000199724 0.202027)
(-0.00140933 -0.000676975 0.217957)
(-0.000711672 -0.000334366 0.210878)
(-0.00029882 -0.000185302 0.20903)
(-0.000123954 -8.6297e-05 0.207729)
(-2.71188e-05 -4.21917e-05 0.206892)
(-1.4399e-05 -1.40068e-05 0.206425)
(-1.18772e-05 -1.16192e-05 0.206322)
(-7.9805e-06 -1.56922e-05 0.206485)
(1.35503e-05 -4.58691e-05 0.207001)
(0.00012156 -9.10719e-05 0.207869)
(0.00031067 -0.000190176 0.20917)
(0.000731972 -0.000338256 0.211)
(0.00143804 -0.000680212 0.218088)
(0.00302961 0.000193788 0.202196)
(2.7785e-05 0.00147725 0.185425)
(-0.00285497 0.000204531 0.204654)
(-0.00138348 -0.000710862 0.220628)
(-0.00070891 -0.000362386 0.213532)
(-0.0002974 -0.000206341 0.211678)
(-0.000123661 -0.00010315 0.210301)
(-2.70432e-05 -5.683e-05 0.209437)
(-1.434e-05 -2.73783e-05 0.208947)
(-1.18663e-05 -2.48276e-05 0.208843)
(-8.00393e-06 -2.91916e-05 0.209008)
(1.3546e-05 -6.07476e-05 0.20955)
(0.000121415 -0.000108233 0.210445)
(0.000309464 -0.000211494 0.211823)
(0.000729487 -0.000366496 0.213659)
(0.00141269 -0.000714314 0.220761)
(0.00289186 0.000198269 0.204825)
(2.78074e-05 0.00152343 0.187889)
(-0.00271386 0.000208781 0.207169)
(-0.0013551 -0.000744082 0.223173)
(-0.000704999 -0.000391223 0.216083)
(-0.000295764 -0.000228354 0.214222)
(-0.000123374 -0.000121165 0.212771)
(-2.70641e-05 -7.26697e-05 0.21188)
(-1.43038e-05 -4.20006e-05 0.211368)
(-1.18013e-05 -3.92809e-05 0.211262)
(-7.9028e-06 -4.39414e-05 0.211431)
(1.37109e-05 -7.68243e-05 0.211997)
(0.000121303 -0.000126551 0.21292)
(0.000308023 -0.000233781 0.214373)
(0.000725809 -0.000395552 0.216214)
(0.00138474 -0.000747752 0.223309)
(0.00275111 0.000202197 0.207341)
(2.77692e-05 0.00156609 0.19027)
(-0.0025708 0.000212493 0.209581)
(-0.00132435 -0.000776518 0.225603)
(-0.0007 -0.000420757 0.218541)
(-0.000293935 -0.000251245 0.216676)
(-0.0001231 -0.000140251 0.215151)
(-2.71831e-05 -8.96221e-05 0.214234)
(-1.42919e-05 -5.77877e-05 0.213699)
(-1.16836e-05 -5.48936e-05 0.213592)
(-7.67824e-06 -5.98551e-05 0.213764)
(1.40454e-05 -9.40101e-05 0.214354)
(0.000121235 -0.000145935 0.215305)
(0.000306373 -0.00025694 0.216831)
(0.000720999 -0.000425303 0.218676)
(0.00135436 -0.000780408 0.225741)
(0.00260832 0.000205591 0.209754)
(2.76734e-05 0.00160511 0.192577)
(-0.00242668 0.000215691 0.2119)
(-0.00129141 -0.000808054 0.227929)
(-0.00069397 -0.000450854 0.220917)
(-0.000291929 -0.000274907 0.219047)
(-0.000122846 -0.000160302 0.217452)
(-2.74001e-05 -0.000107584 0.216508)
(-1.43047e-05 -7.46374e-05 0.215952)
(-1.15144e-05 -7.15636e-05 0.215843)
(-7.33217e-06 -7.68303e-05 0.216018)
(1.45476e-05 -0.000112202 0.216632)
(0.000121215 -0.000166279 0.21761)
(0.000304531 -0.000280865 0.219208)
(0.000715118 -0.000455614 0.221056)
(0.00132173 -0.000812164 0.228069)
(0.0024644 0.000208478 0.212075)
(2.75231e-05 0.00164043 0.194819)
(-0.00228233 0.000218409 0.214136)
(-0.00125646 -0.000838573 0.230158)
(-0.000686964 -0.000481371 0.223218)
(-0.000289762 -0.00029922 0.221346)
(-0.000122615 -0.000181201 0.219682)
(-2.7713e-05 -0.000126441 0.218714)
(-1.4342e-05 -9.24339e-05 0.218136)
(-1.12949e-05 -8.91754e-05 0.218026)
(-6.86722e-06 -9.47509e-05 0.218203)
(1.52143e-05 -0.000131283 0.218841)
(0.000121248 -0.000187465 0.219845)
(0.000302514 -0.000305436 0.221511)
(0.00070822 -0.000486343 0.223361)
(0.00128702 -0.000842906 0.230301)
(0.00232017 0.00021089 0.214312)
(2.73209e-05 0.001672 0.197004)
(-0.00213851 0.000220685 0.216297)
(-0.00121966 -0.000867963 0.2323)
(-0.000679032 -0.000512155 0.225453)
(-0.000287443 -0.000324058 0.223579)
(-0.00012241 -0.000202817 0.221851)
(-2.81184e-05 -0.000146064 0.220858)
(-1.44029e-05 -0.000111049 0.220259)
(-1.10265e-05 -0.000107601 0.220148)
(-6.28672e-06 -0.000113489 0.220328)
(1.60405e-05 -0.000151127 0.220988)
(0.000121335 -0.000209363 0.222017)
(0.000300333 -0.000330524 0.223749)
(0.00070036 -0.000517335 0.2256)
(0.0012504 -0.000872519 0.232444)
(0.00217639 0.000212867 0.216473)
(2.70695e-05 0.0016998 0.199137)
(-0.00199587 0.000222565 0.21839)
(-0.00118118 -0.000896116 0.23436)
(-0.000670225 -0.000543043 0.227628)
(-0.000284981 -0.000349282 0.225754)
(-0.000122229 -0.000225012 0.223964)
(-2.86113e-05 -0.000166314 0.222948)
(-1.4486e-05 -0.000130343 0.22233)
(-1.07105e-05 -0.000126701 0.222217)
(-5.59462e-06 -0.000132904 0.2224)
(1.70198e-05 -0.000171594 0.223081)
(0.000121476 -0.000231833 0.224134)
(0.000297997 -0.000355994 0.225929)
(0.000691587 -0.000548428 0.227779)
(0.00121204 -0.000900896 0.234506)
(0.00203373 0.000214454 0.218566)
(2.67713e-05 0.00172383 0.201226)
(-0.00185505 0.000224101 0.22042)
(-0.00114119 -0.00092293 0.236344)
(-0.000660588 -0.000573865 0.229748)
(-0.000282379 -0.000374747 0.227877)
(-0.000122071 -0.000247636 0.226028)
(-2.91856e-05 -0.000187044 0.22499)
(-1.45892e-05 -0.000150166 0.224353)
(-1.03481e-05 -0.000146325 0.224239)
(-4.79541e-06 -0.000152845 0.224424)
(1.81444e-05 -0.000192534 0.225126)
(0.000121668 -0.000254725 0.226202)
(0.000295511 -0.000381696 0.228055)
(0.000681949 -0.00057945 0.229903)
(0.00117211 -0.000927935 0.236492)
(0.0018928 0.000215704 0.220596)
(2.64285e-05 0.00174413 0.203275)
(-0.00171657 0.00022535 0.222393)
(-0.00109985 -0.000948311 0.238258)
(-0.000650164 -0.000604446 0.231819)
(-0.00027964 -0.0004003 0.229952)
(-0.000121933 -0.000270532 0.228049)
(-2.98338e-05 -0.000208096 0.22699)
(-1.47101e-05 -0.000170358 0.226335)
(-9.94072e-06 -0.000166315 0.22622)
(-3.89413e-06 -0.000173154 0.226408)
(1.94053e-05 -0.00021379 0.227128)
(0.000121907 -0.00027788 0.228226)
(0.00029288 -0.000407479 0.230134)
(0.000671492 -0.000610223 0.231977)
(0.00113077 -0.000953541 0.238407)
(0.00175416 0.000216676 0.22257)
(2.60432e-05 0.00176073 0.205288)
(-0.00158093 0.000226378 0.224315)
(-0.00105733 -0.000972176 0.240106)
(-0.000638993 -0.000634605 0.233844)
(-0.000276765 -0.000425783 0.231982)
(-0.000121808 -0.000293535 0.230031)
(-3.05473e-05 -0.000229304 0.228952)
(-1.48454e-05 -0.000190752 0.228281)
(-9.48963e-06 -0.000186503 0.228164)
(-2.8963e-06 -0.000193662 0.228355)
(2.07924e-05 -0.000235198 0.229093)
(0.000122189 -0.000301135 0.23021)
(0.000290106 -0.000433182 0.232168)
(0.000660255 -0.000640566 0.234005)
(0.00108819 -0.000977629 0.240257)
(0.00161828 0.000217434 0.224491)
(2.56173e-05 0.00177372 0.20727)
(-0.00144855 0.000227259 0.226189)
(-0.00101379 -0.000994449 0.241891)
(-0.000627113 -0.000664161 0.235825)
(-0.00027375 -0.000451034 0.233973)
(-0.000121691 -0.000316477 0.231977)
(-3.13167e-05 -0.0002505 0.230881)
(-1.49919e-05 -0.000211175 0.230194)
(-8.99619e-06 -0.000206716 0.230076)
(-1.80791e-06 -0.000214196 0.230269)
(2.22946e-05 -0.000256587 0.231023)
(0.000122507 -0.000324322 0.232159)
(0.000287186 -0.000458641 0.234162)
(0.000648279 -0.000670298 0.23599)
(0.00104453 -0.00100013 0.242044)
(0.0014856 0.000218053 0.226364)
(2.51526e-05 0.00178318 0.209224)
(-0.00131978 0.000228074 0.228019)
(-0.000969388 -0.00101507 0.243618)
(-0.000614556 -0.000692938 0.237767)
(-0.000270594 -0.00047589 0.235925)
(-0.000121572 -0.000339189 0.23389)
(-3.21313e-05 -0.00027151 0.232778)
(-1.51456e-05 -0.000231449 0.232078)
(-8.46174e-06 -0.000226776 0.231958)
(-6.35392e-07 -0.000234578 0.232153)
(2.38998e-05 -0.000277784 0.232923)
(0.000122851 -0.000347269 0.234075)
(0.000284119 -0.000483693 0.236117)
(0.000635597 -0.000699243 0.237934)
(0.000999952 -0.00102097 0.243771)
(0.00135646 0.000218614 0.228193)
(2.46508e-05 0.00178924 0.211154)
(-0.00119494 0.0002289 0.229807)
(-0.000924272 -0.00103399 0.245288)
(-0.000601353 -0.00072077 0.239669)
(-0.000267288 -0.000500191 0.237841)
(-0.000121443 -0.000361499 0.235772)
(-3.29798e-05 -0.00029216 0.234647)
(-1.53022e-05 -0.000251395 0.233934)
(-7.88767e-06 -0.000246505 0.233813)
(6.14365e-07 -0.000254628 0.23401)
(2.55946e-05 -0.000298614 0.234793)
(0.000123213 -0.000369805 0.23596)
(0.000280899 -0.000508177 0.238036)
(0.00062224 -0.000727232 0.239839)
(0.000954601 -0.00104011 0.245442)
(0.0012312 0.000219195 0.22998)
(2.41134e-05 0.00179203 0.213061)
(-0.00107429 0.000229776 0.231556)
(-0.000878593 -0.00105117 0.246904)
(-0.000587526 -0.000747501 0.241533)
(-0.000263825 -0.000523783 0.239721)
(-0.000121292 -0.000383236 0.237626)
(-3.38498e-05 -0.000312274 0.236488)
(-1.54572e-05 -0.000270829 0.235765)
(-7.2754e-06 -0.000265721 0.235643)
(1.93403e-06 -0.000274164 0.235842)
(2.73652e-05 -0.000318902 0.236636)
(0.000123579 -0.000391761 0.237815)
(0.000277519 -0.00053194 0.239919)
(0.000608233 -0.000754114 0.241705)
(0.000908629 -0.00105751 0.247059)
(0.00111005 0.000219835 0.231727)
(2.35418e-05 0.0017917 0.214948)
(-0.00095803 0.0002307 0.233267)
(-0.00083249 -0.00106661 0.248469)
(-0.000573094 -0.000772994 0.24336)
(-0.000260193 -0.00054652 0.241567)
(-0.000121105 -0.000404231 0.239451)
(-3.47285e-05 -0.000331676 0.238303)
(-1.56055e-05 -0.00028957 0.237571)
(-6.62642e-06 -0.000284241 0.237448)
(3.31583e-06 -0.000293002 0.237649)
(2.91965e-05 -0.000338473 0.238452)
(0.000123938 -0.000412967 0.239641)
(0.000273968 -0.000554835 0.241766)
(0.000593593 -0.000779749 0.243534)
(0.000862178 -0.00107316 0.248624)
(0.000993238 0.000220531 0.233436)
(2.29375e-05 0.00178844 0.216816)
(-0.000846359 0.000231621 0.234942)
(-0.000786092 -0.00108028 0.249983)
(-0.000558069 -0.000797123 0.245149)
(-0.000256377 -0.000568261 0.243379)
(-0.000120869 -0.000424313 0.241247)
(-3.56019e-05 -0.00035019 0.240092)
(-1.57419e-05 -0.000307432 0.239353)
(-5.94225e-06 -0.00030188 0.239229)
(4.75157e-06 -0.000310958 0.239431)
(3.10728e-05 -0.000357148 0.240242)
(0.000124273 -0.000433252 0.241439)
(0.000270232 -0.000576725 0.24358)
(0.000578336 -0.000804014 0.245325)
(0.000815377 -0.00108705 0.250138)
(0.000880951 0.000221236 0.235109)
(2.23017e-05 0.00178243 0.218666)
(-0.000739421 0.00023248 0.236581)
(-0.000739517 -0.00109222 0.251448)
(-0.000542458 -0.000819766 0.246901)
(-0.00025236 -0.000588868 0.245155)
(-0.000120565 -0.000443319 0.243015)
(-3.64557e-05 -0.000367651 0.241855)
(-1.58607e-05 -0.000324248 0.24111)
(-5.22443e-06 -0.000318472 0.240985)
(6.23273e-06 -0.000327863 0.241189)
(3.29775e-05 -0.000374765 0.242006)
(0.000124567 -0.000452451 0.243208)
(0.000266295 -0.000597472 0.245357)
(0.000562469 -0.000826789 0.247078)
(0.000768345 -0.00109919 0.251604)
(0.000773339 0.000221887 0.236747)
(2.16352e-05 0.00177388 0.2205)
(-0.000637333 0.00023324 0.238188)
(-0.000692866 -0.00110243 0.252865)
(-0.000526264 -0.000840803 0.248615)
(-0.000248121 -0.000608211 0.246896)
(-0.000120175 -0.000461124 0.244753)
(-3.72751e-05 -0.000383948 0.243591)
(-1.59563e-05 -0.000339909 0.242842)
(-4.47453e-06 -0.000333908 0.242717)
(7.75058e-06 -0.000343608 0.242921)
(3.48939e-05 -0.000391207 0.243742)
(0.0001248 -0.000470438 0.244946)
(0.000262136 -0.000616947 0.247099)
(0.000545995 -0.000847956 0.248792)
(0.000721186 -0.00110961 0.253021)
(0.000670516 0.000222448 0.238351)
(2.0938e-05 0.00176303 0.222319)
(-0.000540171 0.000233881 0.239761)
(-0.000646234 -0.00111094 0.254236)
(-0.000509483 -0.000860122 0.250288)
(-0.000243637 -0.0006262 0.2486)
(-0.00011968 -0.000477672 0.24646)
(-3.80459e-05 -0.000399029 0.245298)
(-1.6023e-05 -0.000354365 0.244548)
(-3.694e-06 -0.000348139 0.244422)
(9.29681e-06 -0.000358142 0.244627)
(3.68058e-05 -0.000406424 0.245449)
(0.000124953 -0.000487155 0.246654)
(0.000257733 -0.000635057 0.248803)
(0.000528912 -0.000867401 0.250466)
(0.000673995 -0.00111832 0.254392)
(0.000572561 0.000222897 0.239922)
(2.02074e-05 0.00175012 0.224134)
(-0.000447978 0.000234399 0.241303)
(-0.000599702 -0.00111779 0.255562)
(-0.000492105 -0.000877658 0.251921)
(-0.000238891 -0.000642812 0.250265)
(-0.000119063 -0.000492966 0.248135)
(-3.87549e-05 -0.000412909 0.246976)
(-1.60556e-05 -0.000367635 0.246227)
(-2.88428e-06 -0.000361182 0.2461)
(1.08636e-05 -0.000371483 0.246306)
(3.8698e-05 -0.000420426 0.247127)
(0.000125006 -0.000502602 0.248328)
(0.000253069 -0.000651779 0.250468)
(0.000511211 -0.00088506 0.252098)
(0.000626854 -0.00112537 0.255717)
(0.000479517 0.000223231 0.241461)
(1.94407e-05 0.00173533 0.225956)
(-0.000360759 0.000234793 0.242813)
(-0.000553342 -0.00112301 0.256843)
(-0.000474118 -0.000893401 0.253509)
(-0.000233865 -0.000658083 0.251889)
(-0.000118306 -0.000507074 0.249776)
(-3.93893e-05 -0.000425654 0.248622)
(-1.60493e-05 -0.000379781 0.247876)
(-2.04675e-06 -0.000373099 0.24775)
(1.24433e-05 -0.000383695 0.247955)
(4.05561e-05 -0.000433282 0.248773)
(0.000124942 -0.000516849 0.249969)
(0.000248125 -0.000667149 0.252091)
(0.000492881 -0.000900923 0.253687)
(0.000579837 -0.00113077 0.256997)
(0.00039139 0.00022345 0.242967)
(1.86379e-05 0.0017189 0.227791)
(-0.000278492 0.000235052 0.24429)
(-0.000507224 -0.00112662 0.25808)
(-0.000455512 -0.000907414 0.255052)
(-0.000228543 -0.000672126 0.25347)
(-0.000117396 -0.000520097 0.251382)
(-3.9937e-05 -0.000437357 0.250237)
(-1.59991e-05 -0.000390892 0.249496)
(-1.18276e-06 -0.000383979 0.24937)
(1.40287e-05 -0.000394865 0.249575)
(4.23663e-05 -0.000445086 0.250387)
(0.000124747 -0.000529997 0.251573)
(0.000242887 -0.000681281 0.253671)
(0.000473911 -0.000915052 0.255229)
(0.000533014 -0.00113457 0.258233)
(0.000308159 0.000223542 0.244442)
(1.77998e-05 0.00170103 0.229639)
(-0.000201126 0.000235159 0.245736)
(-0.000461413 -0.00112865 0.259273)
(-0.000436286 -0.000919823 0.256548)
(-0.000222915 -0.000685087 0.255007)
(-0.000116317 -0.000532157 0.252951)
(-4.03866e-05 -0.000448132 0.251818)
(-1.59006e-05 -0.000401073 0.251085)
(-2.93611e-07 -0.000393925 0.250959)
(1.56128e-05 -0.000405101 0.251163)
(4.41155e-05 -0.000455953 0.251967)
(0.000124405 -0.000542169 0.253141)
(0.000237342 -0.000694325 0.255206)
(0.000454303 -0.000927572 0.256724)
(0.000486452 -0.00113677 0.259424)