0 	0 	0 	0
0 	-1.28214e-35 	-1.59115e-36 	1.85671e-31
5.01672e-05 	-1.141e-06 	-1.95002e-07 	0.0173205
5.01672e-05 	-1.141e-06 	-1.95002e-07 	0.0173205
0.000100334 	-1.80205e-06 	-7.93329e-07 	0.0333202
0.000150502 	-2.38381e-06 	-1.82667e-06 	0.0481637
0.000150502 	-2.38381e-06 	-1.82667e-06 	0.0481637
0.000200669 	-2.99221e-06 	-3.29831e-06 	0.0619354
0.000200669 	-2.99221e-06 	-3.29831e-06 	0.0619354
0.000250836 	-3.58274e-06 	-5.18765e-06 	0.074715
0.000301003 	-4.12104e-06 	-7.4851e-06 	0.0865704
0.000301003 	-4.12104e-06 	-7.4851e-06 	0.0865704
0.000351171 	-4.59711e-06 	-1.01843e-05 	0.097547
0.000401338 	-5.00958e-06 	-1.32921e-05 	0.107668
0.000451505 	-5.36034e-06 	-1.68324e-05 	0.116949
0.000451505 	-5.36034e-06 	-1.68324e-05 	0.116949
0.000501672 	-5.65275e-06 	-2.08421e-05 	0.125417
0.000551839 	-5.89094e-06 	-2.53601e-05 	0.133118
0.000551839 	-5.89094e-06 	-2.53601e-05 	0.133118
0.000602007 	-6.07949e-06 	-3.04171e-05 	0.140111
0.000602007 	-6.07949e-06 	-3.04171e-05 	0.140111
0.000652174 	-6.22314e-06 	-3.60346e-05 	0.146468
0.000652174 	-6.22314e-06 	-3.60346e-05 	0.146468
0.000702341 	-6.32658e-06 	-4.22298e-05 	0.152261
0.000702341 	-6.32658e-06 	-4.22298e-05 	0.152261
0.000752508 	-6.39421e-06 	-4.9018e-05 	0.157558
0.000802676 	-6.42953e-06 	-5.64137e-05 	0.162414
0.000852843 	-6.43172e-06 	-6.45138e-05 	0.166824
0.000852843 	-6.43172e-06 	-6.45138e-05 	0.166824
0.00090301 	-6.40906e-06 	-7.31929e-05 	0.170897
0.00090301 	-6.40906e-06 	-7.31929e-05 	0.170897
0.000953177 	-6.36472e-06 	-8.24011e-05 	0.174673
0.00100334 	-6.30153e-06 	-9.20864e-05 	0.178187
0.00100334 	-6.30153e-06 	-9.20864e-05 	0.178187
0.00105351 	-6.22194e-06 	-0.000102199 	0.181472
0.00105351 	-6.22194e-06 	-0.000102199 	0.181472
0.00110368 	-6.12774e-06 	-0.000112702 	0.18455
0.00115385 	-6.01759e-06 	-0.000123639 	0.1874
0.00120401 	-5.89716e-06 	-0.000134856 	0.190099
0.00120401 	-5.89716e-06 	-0.000134856 	0.190099
0.00130435 	-5.63017e-06 	-0.000157995 	0.195105
0.00130435 	-5.63017e-06 	-0.000157995 	0.195105
0.00135452 	-5.4836e-06 	-0.000169905 	0.197404
0.00135452 	-5.4836e-06 	-0.000169905 	0.197404
0.00140468 	-5.33039e-06 	-0.000181974 	0.199594
0.00145485 	-5.17231e-06 	-0.000194149 	0.201699
0.00145485 	-5.17231e-06 	-0.000194149 	0.201699
0.00150502 	-5.0099e-06 	-0.000206414 	0.203727
0.00150502 	-5.0099e-06 	-0.000206414 	0.203727
0.00155518 	-4.84182e-06 	-0.000218766 	0.205648
0.00155518 	-4.84182e-06 	-0.000218766 	0.205648
0.00160535 	-4.6707e-06 	-0.000231137 	0.207508
0.00160535 	-4.6707e-06 	-0.000231137 	0.207508
0.00165552 	-4.49693e-06 	-0.000243515 	0.209315
0.00165552 	-4.49693e-06 	-0.000243515 	0.209315
0.00170569 	-4.31964e-06 	-0.000255867 	0.211051
0.00170569 	-4.31964e-06 	-0.000255867 	0.211051
0.00175585 	-4.13963e-06 	-0.000268146 	0.212732
0.00175585 	-4.13963e-06 	-0.000268146 	0.212732
0.00180602 	-3.95782e-06 	-0.000280358 	0.214375
0.00180602 	-3.95782e-06 	-0.000280358 	0.214375
0.00185619 	-3.77352e-06 	-0.000292441 	0.215965
0.00185619 	-3.77352e-06 	-0.000292441 	0.215965
0.00190635 	-3.58725e-06 	-0.00030436 	0.21751
0.00190635 	-3.58725e-06 	-0.00030436 	0.21751
0.00195652 	-3.3998e-06 	-0.000316162 	0.219027
0.00195652 	-3.3998e-06 	-0.000316162 	0.219027
0.00200669 	-3.21046e-06 	-0.000327725 	0.220496
0.00200669 	-3.21046e-06 	-0.000327725 	0.220496
0.00205686 	-3.01997e-06 	-0.000339075 	0.221934
0.00210702 	-2.82872e-06 	-0.000350285 	0.223349
0.00210702 	-2.82872e-06 	-0.000350285 	0.223349
0.00215719 	-2.63591e-06 	-0.000361094 	0.224716
0.00220736 	-2.44262e-06 	-0.000371728 	0.226065
0.00225753 	-2.24854e-06 	-0.000382081 	0.227386
0.00225753 	-2.24854e-06 	-0.000382081 	0.227386
0.00230769 	-2.05369e-06 	-0.000392068 	0.228674
0.00230769 	-2.05369e-06 	-0.000392068 	0.228674
0.00235786 	-1.85851e-06 	-0.000401893 	0.229949
0.00235786 	-1.85851e-06 	-0.000401893 	0.229949
0.00240803 	-1.66251e-06 	-0.000411199 	0.231183
0.00240803 	-1.66251e-06 	-0.000411199 	0.231183
0.00245819 	-1.46626e-06 	-0.000420312 	0.232404
0.00245819 	-1.46626e-06 	-0.000420312 	0.232404
0.00250836 	-1.26952e-06 	-0.000429036 	0.233599
0.00250836 	-1.26952e-06 	-0.000429036 	0.233599
0.00255853 	-1.07239e-06 	-0.000437401 	0.234769
0.0026087 	-8.74975e-07 	-0.000445512 	0.235924
0.0026087 	-8.74975e-07 	-0.000445512 	0.235924
0.00265886 	-6.77057e-07 	-0.000453106 	0.237047
0.00270903 	-4.7902e-07 	-0.000460577 	0.238163
0.00270903 	-4.7902e-07 	-0.000460577 	0.238163
0.0027592 	-2.80368e-07 	-0.000467387 	0.23924
0.00280936 	-8.16138e-08 	-0.000474088 	0.24031
0.00280936 	-8.16138e-08 	-0.000474088 	0.24031
0.00285953 	1.17677e-07 	-0.000480218 	0.241349
0.00285953 	1.17677e-07 	-0.000480218 	0.241349
0.0029097 	3.17173e-07 	-0.000486153 	0.242377
0.0029097 	3.17173e-07 	-0.000486153 	0.242377
0.00295987 	5.17187e-07 	-0.000491597 	0.243377
0.00295987 	5.17187e-07 	-0.000491597 	0.243377
0.00301003 	7.1754e-07 	-0.000496786 	0.244363
0.0030602 	9.18455e-07 	-0.000501555 	0.245326
0.00311037 	1.11989e-06 	-0.000506041 	0.246271
0.00311037 	1.11989e-06 	-0.000506041 	0.246271
0.00316054 	1.32199e-06 	-0.00051016 	0.247196
0.00316054 	1.32199e-06 	-0.00051016 	0.247196
0.00326087 	1.72848e-06 	-0.000517512 	0.24899
0.00326087 	1.72848e-06 	-0.000517512 	0.24899
0.00331104 	1.93299e-06 	-0.000520775 	0.249859
0.0033612 	2.13855e-06 	-0.000523731 	0.250708
0.0033612 	2.13855e-06 	-0.000523731 	0.250708
0.00341137 	2.34485e-06 	-0.000526488 	0.251541
0.00341137 	2.34485e-06 	-0.000526488 	0.251541
0.00346154 	2.55226e-06 	-0.000528945 	0.252351
0.00346154 	2.55226e-06 	-0.000528945 	0.252351
0.00351171 	2.76013e-06 	-0.000531265 	0.25315
0.00356187 	2.96901e-06 	-0.000533283 	0.253924
0.00356187 	2.96901e-06 	-0.000533283 	0.253924
0.00361204 	3.17811e-06 	-0.000535229 	0.25469
0.00366221 	3.38811e-06 	-0.000536863 	0.255428
0.00366221 	3.38811e-06 	-0.000536863 	0.255428
0.00371237 	3.59816e-06 	-0.000538487 	0.256166
0.00371237 	3.59816e-06 	-0.000538487 	0.256166
0.00376254 	3.80933e-06 	-0.000539784 	0.256871
0.00376254 	3.80933e-06 	-0.000539784 	0.256871
0.00381271 	4.02049e-06 	-0.00054108 	0.257576
0.00381271 	4.02049e-06 	-0.00054108 	0.257576
0.00386288 	4.23277e-06 	-0.000542128 	0.258255
0.00391304 	4.44527e-06 	-0.000543125 	0.258928
0.00391304 	4.44527e-06 	-0.000543125 	0.258928
0.00396321 	4.65846e-06 	-0.000543966 	0.259583
0.00401338 	4.87213e-06 	-0.000544699 	0.260224
0.00401338 	4.87213e-06 	-0.000544699 	0.260224
0.00406355 	5.086e-06 	-0.000545361 	0.260855
0.00406355 	5.086e-06 	-0.000545361 	0.260855
0.00411371 	5.30032e-06 	-0.000545866 	0.261464
0.00411371 	5.30032e-06 	-0.000545866 	0.261464
0.00421405 	5.72894e-06 	-0.000546685 	0.262649
0.00421405 	5.72894e-06 	-0.000546685 	0.262649
0.00426421 	5.94325e-06 	-0.000546998 	0.263226
0.00426421 	5.94325e-06 	-0.000546998 	0.263226
0.00431438 	6.1571e-06 	-0.000547213 	0.263782
0.00431438 	6.1571e-06 	-0.000547213 	0.263782
0.00436455 	6.37068e-06 	-0.00054737 	0.264326
0.00436455 	6.37068e-06 	-0.00054737 	0.264326
0.00441472 	6.58391e-06 	-0.0005475 	0.264863
0.00441472 	6.58391e-06 	-0.0005475 	0.264863
0.00446488 	6.796e-06 	-0.000547539 	0.265375
0.00446488 	6.796e-06 	-0.000547539 	0.265375
0.00451505 	7.00808e-06 	-0.000547578 	0.265887
0.00451505 	7.00808e-06 	-0.000547578 	0.265887
0.00456522 	7.21834e-06 	-0.000547552 	0.266373
0.00456522 	7.21834e-06 	-0.000547552 	0.266373
0.00461538 	7.42808e-06 	-0.000547508 	0.266852
0.00461538 	7.42808e-06 	-0.000547508 	0.266852
0.00466555 	7.6369e-06 	-0.000547451 	0.267322
0.00471572 	7.84343e-06 	-0.000547359 	0.267768
0.00476589 	8.04997e-06 	-0.000547267 	0.268215
0.00476589 	8.04997e-06 	-0.000547267 	0.268215
0.00486622 	8.45587e-06 	-0.000547054 	0.269051
0.00486622 	8.45587e-06 	-0.000547054 	0.269051
0.00491639 	8.65745e-06 	-0.000546948 	0.269459
0.00496656 	8.85494e-06 	-0.000546852 	0.26984
0.00496656 	8.85494e-06 	-0.000546852 	0.26984
0.00501672 	9.05243e-06 	-0.000546756 	0.270222
0.00506689 	9.24671e-06 	-0.00054668 	0.270585
0.00511706 	9.43835e-06 	-0.000546621 	0.270935
0.00511706 	9.43835e-06 	-0.000546621 	0.270935
0.00521739 	9.81571e-06 	-0.000546551 	0.271605
0.00521739 	9.81571e-06 	-0.000546551 	0.271605
0.00526756 	1.00006e-05 	-0.000546547 	0.271922
0.00526756 	1.00006e-05 	-0.000546547 	0.271922
0.00531773 	1.01843e-05 	-0.000546554 	0.272234
0.00536789 	1.03615e-05 	-0.000546618 	0.272519
0.00536789 	1.03615e-05 	-0.000546618 	0.272519
0.00541806 	1.05387e-05 	-0.000546683 	0.272804
0.00546823 	1.07126e-05 	-0.000546777 	0.273077
0.00551839 	1.08811e-05 	-0.000546918 	0.273331
0.00551839 	1.08811e-05 	-0.000546918 	0.273331
0.00556856 	1.10496e-05 	-0.000547059 	0.273585
0.00556856 	1.10496e-05 	-0.000547059 	0.273585
0.0056689 	1.13711e-05 	-0.000547461 	0.274044
0.0056689 	1.13711e-05 	-0.000547461 	0.274044
0.00571906 	1.15297e-05 	-0.000547679 	0.274268
0.00576923 	1.16804e-05 	-0.000547946 	0.27447
0.00576923 	1.16804e-05 	-0.000547946 	0.27447
0.0058194 	1.18276e-05 	-0.000548235 	0.274663
0.0058194 	1.18276e-05 	-0.000548235 	0.274663
0.00591973 	1.2112e-05 	-0.00054886 	0.275028
0.00591973 	1.2112e-05 	-0.00054886 	0.275028
0.0059699 	1.22462e-05 	-0.000549209 	0.275192
0.0059699 	1.22462e-05 	-0.000549209 	0.275192
0.00602007 	1.23805e-05 	-0.000549558 	0.275357
0.00607023 	1.25031e-05 	-0.000549942 	0.275499
0.0061204 	1.26228e-05 	-0.000550334 	0.275636
0.0061204 	1.26228e-05 	-0.000550334 	0.275636
0.00617057 	1.27425e-05 	-0.000550726 	0.275772
0.00622074 	1.28499e-05 	-0.000551136 	0.275888
0.00622074 	1.28499e-05 	-0.000551136 	0.275888
0.0062709 	1.29534e-05 	-0.000551552 	0.275998
0.00632107 	1.30569e-05 	-0.000551968 	0.276108
0.00632107 	1.30569e-05 	-0.000551968 	0.276108
0.00637124 	1.31481e-05 	-0.000552385 	0.2762
0.00637124 	1.31481e-05 	-0.000552385 	0.2762
0.0064214 	1.32336e-05 	-0.000552803 	0.276283
0.0064214 	1.32336e-05 	-0.000552803 	0.276283
0.00647157 	1.33191e-05 	-0.000553221 	0.276367
0.00647157 	1.33191e-05 	-0.000553221 	0.276367
0.00652174 	1.33935e-05 	-0.000553635 	0.276436
0.00657191 	1.34587e-05 	-0.000554045 	0.276495
0.00657191 	1.34587e-05 	-0.000554045 	0.276495
0.00662207 	1.35239e-05 	-0.000554456 	0.276553
0.00667224 	1.3581e-05 	-0.000554854 	0.276602
0.00672241 	1.36231e-05 	-0.00055523 	0.276636
0.00672241 	1.36231e-05 	-0.00055523 	0.276636
0.00677258 	1.36652e-05 	-0.000555605 	0.276669
0.00682274 	1.37047e-05 	-0.000555975 	0.2767
0.00682274 	1.37047e-05 	-0.000555975 	0.2767
0.00687291 	1.37205e-05 	-0.000556286 	0.276709
0.00687291 	1.37205e-05 	-0.000556286 	0.276709
0.00692308 	1.37363e-05 	-0.000556598 	0.276719
0.00697324 	1.37521e-05 	-0.00055691 	0.276728
0.00702341 	1.37446e-05 	-0.000557172 	0.276718
0.00707358 	1.37308e-05 	-0.00055742 	0.276703
0.00707358 	1.37308e-05 	-0.00055742 	0.276703
0.00717391 	1.36896e-05 	-0.000557872 	0.276662
0.00717391 	1.36896e-05 	-0.000557872 	0.276662
0.00722408 	1.36436e-05 	-0.000558014 	0.276623
0.00722408 	1.36436e-05 	-0.000558014 	0.276623
0.00727425 	1.35976e-05 	-0.000558155 	0.276584
0.00727425 	1.35976e-05 	-0.000558155 	0.276584
0.00732441 	1.35516e-05 	-0.000558297 	0.276545
0.00732441 	1.35516e-05 	-0.000558297 	0.276545
0.00737458 	1.34729e-05 	-0.000558335 	0.276483
0.00737458 	1.34729e-05 	-0.000558335 	0.276483
0.00742475 	1.33939e-05 	-0.000558373 	0.27642
0.00747492 	1.33149e-05 	-0.00055841 	0.276358
0.00752508 	1.3219e-05 	-0.000558404 	0.276283
0.00752508 	1.3219e-05 	-0.000558404 	0.276283
0.00757525 	1.31063e-05 	-0.000558354 	0.276197
0.00762542 	1.29936e-05 	-0.000558305 	0.276111
0.00767559 	1.28806e-05 	-0.000558254 	0.276024
0.00767559 	1.28806e-05 	-0.000558254 	0.276024
0.00772575 	1.27354e-05 	-0.000558078 	0.275914
0.00777592 	1.25901e-05 	-0.000557902 	0.275804
0.00777592 	1.25901e-05 	-0.000557902 	0.275804
0.00782609 	1.24448e-05 	-0.000557727 	0.275693
0.00787625 	1.22825e-05 	-0.00055749 	0.27557
0.00787625 	1.22825e-05 	-0.00055749 	0.27557
0.00792642 	1.21079e-05 	-0.000557211 	0.275436
0.00797659 	1.19332e-05 	-0.000556931 	0.275303
0.00802676 	1.17531e-05 	-0.000556629 	0.275165
0.00802676 	1.17531e-05 	-0.000556629 	0.275165
0.00807692 	1.15524e-05 	-0.000556241 	0.275008
0.00807692 	1.15524e-05 	-0.000556241 	0.275008
0.00812709 	1.13517e-05 	-0.000555854 	0.274852
0.00817726 	1.1151e-05 	-0.000555466 	0.274696
0.00817726 	1.1151e-05 	-0.000555466 	0.274696
0.00822742 	1.09306e-05 	-0.000554959 	0.274519
0.00827759 	1.07081e-05 	-0.000554438 	0.27434
0.00827759 	1.07081e-05 	-0.000554438 	0.27434
0.00832776 	1.04856e-05 	-0.000553918 	0.274161
0.00832776 	1.04856e-05 	-0.000553918 	0.274161
0.00837793 	1.02514e-05 	-0.000553319 	0.273968
0.00842809 	1.00109e-05 	-0.000552678 	0.273766
0.00842809 	1.00109e-05 	-0.000552678 	0.273766
0.00847826 	9.77043e-06 	-0.000552037 	0.273565
0.00847826 	9.77043e-06 	-0.000552037 	0.273565
0.0085786 	9.26834e-06 	-0.000550582 	0.273129
0.0085786 	9.26834e-06 	-0.000550582 	0.273129
0.00862876 	9.01333e-06 	-0.000549821 	0.272905
0.00867893 	8.75467e-06 	-0.000549023 	0.272674
0.0087291 	8.48814e-06 	-0.000548145 	0.272427
0.00877926 	8.22161e-06 	-0.000547266 	0.272181
0.00882943 	7.953e-06 	-0.00054636 	0.271929
0.0088796 	7.67761e-06 	-0.000545364 	0.27166
0.0088796 	7.67761e-06 	-0.000545364 	0.27166
0.00892977 	7.40221e-06 	-0.000544368 	0.271391
0.00892977 	7.40221e-06 	-0.000544368 	0.271391
0.00897993 	7.12546e-06 	-0.000543348 	0.271117
0.00897993 	7.12546e-06 	-0.000543348 	0.271117
0.0090301 	6.84352e-06 	-0.000542236 	0.270826
0.00908027 	6.56157e-06 	-0.000541124 	0.270534
0.00908027 	6.56157e-06 	-0.000541124 	0.270534
0.00913043 	6.27858e-06 	-0.000539986 	0.270237
0.0091806 	5.99209e-06 	-0.000538758 	0.269923
0.0091806 	5.99209e-06 	-0.000538758 	0.269923
0.00923077 	5.70561e-06 	-0.00053753 	0.269609
0.00928094 	5.41825e-06 	-0.000536266 	0.269287
0.00928094 	5.41825e-06 	-0.000536266 	0.269287
0.0093311 	5.12895e-06 	-0.000534921 	0.26895
0.00938127 	4.83966e-06 	-0.000533577 	0.268613
0.00938127 	4.83966e-06 	-0.000533577 	0.268613
0.00943144 	4.54977e-06 	-0.000532181 	0.268265
0.00943144 	4.54977e-06 	-0.000532181 	0.268265
0.00948161 	4.25912e-06 	-0.000530719 	0.267904
0.00948161 	4.25912e-06 	-0.000530719 	0.267904
0.00953177 	3.96848e-06 	-0.000529257 	0.267544
0.00953177 	3.96848e-06 	-0.000529257 	0.267544
0.00958194 	3.67779e-06 	-0.000527722 	0.267169
0.00958194 	3.67779e-06 	-0.000527722 	0.267169
0.00963211 	3.38708e-06 	-0.00052614 	0.266785
0.00968227 	3.09636e-06 	-0.000524559 	0.2664
0.00968227 	3.09636e-06 	-0.000524559 	0.2664
0.00973244 	2.80652e-06 	-0.000522875 	0.265996
0.00978261 	2.51684e-06 	-0.000521172 	0.265588
0.00978261 	2.51684e-06 	-0.000521172 	0.265588
0.00983278 	2.2274e-06 	-0.000519453 	0.265177
0.00983278 	2.2274e-06 	-0.000519453 	0.265177
0.00988294 	1.93968e-06 	-0.000517625 	0.264744
0.00993311 	1.65197e-06 	-0.000515797 	0.264312
0.00993311 	1.65197e-06 	-0.000515797 	0.264312
0.00998328 	1.3655e-06 	-0.000513911 	0.263868
0.0100334 	1.08056e-06 	-0.000511955 	0.26341
0.0100836 	7.95615e-07 	-0.000509998 	0.262953
0.0100836 	7.95615e-07 	-0.000509998 	0.262953
0.0101338 	5.13519e-07 	-0.000507931 	0.262474
0.0101839 	2.32032e-07 	-0.000505841 	0.261991
0.0101839 	2.32032e-07 	-0.000505841 	0.261991
0.0102341 	-4.84729e-08 	-0.000503717 	0.261502
0.0102341 	-4.84729e-08 	-0.000503717 	0.261502
0.0102843 	-3.25924e-07 	-0.000501487 	0.260993
0.0103344 	-6.03374e-07 	-0.000499258 	0.260483
0.0103344 	-6.03374e-07 	-0.000499258 	0.260483
0.0103846 	-8.77618e-07 	-0.000496925 	0.259955
0.0103846 	-8.77618e-07 	-0.000496925 	0.259955
0.0104348 	-1.15054e-06 	-0.00049455 	0.259419
0.0104348 	-1.15054e-06 	-0.00049455 	0.259419
0.0104849 	-1.42238e-06 	-0.000492142 	0.258877
0.0104849 	-1.42238e-06 	-0.000492142 	0.258877
0.0105351 	-1.69036e-06 	-0.000489614 	0.258313
0.0105853 	-1.95833e-06 	-0.000487086 	0.257749
0.0105853 	-1.95833e-06 	-0.000487086 	0.257749
0.0106856 	-2.48487e-06 	-0.000481746 	0.25657
0.0106856 	-2.48487e-06 	-0.000481746 	0.25657
0.0107358 	-2.74547e-06 	-0.000478996 	0.255966
0.010786 	-3.0025e-06 	-0.000476139 	0.255344
0.010786 	-3.0025e-06 	-0.000476139 	0.255344
0.0108361 	-3.25949e-06 	-0.000473282 	0.254721
0.0108863 	-3.51057e-06 	-0.000470249 	0.254068
0.0108863 	-3.51057e-06 	-0.000470249 	0.254068
0.0109365 	-3.76166e-06 	-0.000467216 	0.253414
0.0109365 	-3.76166e-06 	-0.000467216 	0.253414
0.0109866 	-4.00846e-06 	-0.000464057 	0.252739
0.0110368 	-4.25331e-06 	-0.000460839 	0.252053
0.0110368 	-4.25331e-06 	-0.000460839 	0.252053
0.011087 	-4.49549e-06 	-0.000457541 	0.251354
0.011087 	-4.49549e-06 	-0.000457541 	0.251354
0.0111371 	-4.73379e-06 	-0.000454127 	0.250635
0.0111873 	-4.97093e-06 	-0.000450677 	0.24991
0.0111873 	-4.97093e-06 	-0.000450677 	0.24991
0.0112375 	-5.20237e-06 	-0.00044705 	0.249156
0.0112876 	-5.43381e-06 	-0.000443422 	0.248402
0.0112876 	-5.43381e-06 	-0.000443422 	0.248402
0.0113378 	-5.65828e-06 	-0.000439571 	0.247613
0.0113378 	-5.65828e-06 	-0.000439571 	0.247613
0.011388 	-5.88253e-06 	-0.000435713 	0.246822
0.0114381 	-6.10077e-06 	-0.000431645 	0.245999
0.0114381 	-6.10077e-06 	-0.000431645 	0.245999
0.0114883 	-6.3176e-06 	-0.000427529 	0.245168
0.0115385 	-6.52933e-06 	-0.000423206 	0.244307
0.0115385 	-6.52933e-06 	-0.000423206 	0.244307
0.0115886 	-6.73874e-06 	-0.00041879 	0.243433
0.0116388 	-6.94387e-06 	-0.000414166 	0.24253
0.0116388 	-6.94387e-06 	-0.000414166 	0.24253
0.011689 	-7.14619e-06 	-0.000409404 	0.241608
0.0117391 	-7.34481e-06 	-0.000404423 	0.240656
0.0117893 	-7.54046e-06 	-0.000399264 	0.239681
0.0118395 	-7.73259e-06 	-0.000393867 	0.238675
0.0118395 	-7.73259e-06 	-0.000393867 	0.238675
0.0118896 	-7.92175e-06 	-0.000388267 	0.237642
0.0119398 	-8.10712e-06 	-0.000382403 	0.236574
0.0119398 	-8.10712e-06 	-0.000382403 	0.236574
0.01199 	-8.28957e-06 	-0.000376336 	0.235479
0.0120401 	-8.46761e-06 	-0.000369968 	0.234341
0.0120401 	-8.46761e-06 	-0.000369968 	0.234341
0.0120903 	-8.64297e-06 	-0.000363418 	0.233179
0.0120903 	-8.64297e-06 	-0.000363418 	0.233179
0.0121906 	-8.98101e-06 	-0.000349485 	0.23073
0.0121906 	-8.98101e-06 	-0.000349485 	0.23073
0.0122408 	-9.14252e-06 	-0.000342037 	0.22943
0.012291 	-9.3028e-06 	-0.000334513 	0.228119
0.012291 	-9.3028e-06 	-0.000334513 	0.228119
0.0123411 	-9.45507e-06 	-0.000326502 	0.226726
0.0123913 	-9.60574e-06 	-0.000318399 	0.225317
0.0123913 	-9.60574e-06 	-0.000318399 	0.225317
0.0124415 	-9.74962e-06 	-0.00030991 	0.223838
0.0124415 	-9.74962e-06 	-0.00030991 	0.223838
0.0124916 	-9.88981e-06 	-0.000301228 	0.222321
0.0124916 	-9.88981e-06 	-0.000301228 	0.222321
0.0125418 	-1.00248e-05 	-0.000292275 	0.22075
0.012592 	-1.01535e-05 	-0.00028303 	0.219115
0.0126421 	-1.02791e-05 	-0.00027364 	0.217448
0.0126421 	-1.02791e-05 	-0.00027364 	0.217448
0.0126923 	-1.03951e-05 	-0.000263868 	0.215684
0.0127425 	-1.05077e-05 	-0.000253983 	0.213887
0.0127425 	-1.05077e-05 	-0.000253983 	0.213887
0.0127926 	-1.06124e-05 	-0.000243842 	0.212012
0.0128428 	-1.071e-05 	-0.000233524 	0.210068
0.0128428 	-1.071e-05 	-0.000233524 	0.210068
0.0129431 	-1.08838e-05 	-0.000212449 	0.205979
0.0129431 	-1.08838e-05 	-0.000212449 	0.205979
0.0129933 	-1.0959e-05 	-0.000201748 	0.203827
0.0130435 	-1.10261e-05 	-0.000190963 	0.2016
0.0130435 	-1.10261e-05 	-0.000190963 	0.2016
0.0131438 	-1.1129e-05 	-0.000169313 	0.196874
0.0131438 	-1.1129e-05 	-0.000169313 	0.196874
0.013194 	-1.11655e-05 	-0.000158515 	0.194382
0.0132441 	-1.1189e-05 	-0.000147816 	0.191781
0.0132441 	-1.1189e-05 	-0.000147816 	0.191781
0.0132943 	-1.12033e-05 	-0.000137206 	0.189104
0.0133445 	-1.12043e-05 	-0.000126749 	0.186318
0.0133445 	-1.12043e-05 	-0.000126749 	0.186318
0.0133946 	-1.11889e-05 	-0.000116536 	0.1834
0.0133946 	-1.11889e-05 	-0.000116536 	0.1834
0.0134448 	-1.11617e-05 	-0.000106519 	0.180388
0.0134448 	-1.11617e-05 	-0.000106519 	0.180388
0.013495 	-1.11213e-05 	-9.67308e-05 	0.17727
0.0135452 	-1.10585e-05 	-8.73724e-05 	0.173975
0.0135452 	-1.10585e-05 	-8.73724e-05 	0.173975
0.0135953 	-1.09806e-05 	-7.83226e-05 	0.170559
0.0135953 	-1.09806e-05 	-7.83226e-05 	0.170559
0.0136455 	-1.08866e-05 	-6.96084e-05 	0.167014
0.0136455 	-1.08866e-05 	-6.96084e-05 	0.167014
0.0136957 	-1.07724e-05 	-6.13276e-05 	0.163303
0.0136957 	-1.07724e-05 	-6.13276e-05 	0.163303
0.0137458 	-1.0633e-05 	-5.35911e-05 	0.159383
0.013796 	-1.04732e-05 	-4.63008e-05 	0.155291
0.013796 	-1.04732e-05 	-4.63008e-05 	0.155291
0.0138462 	-1.02914e-05 	-3.94864e-05 	0.151013
0.0138462 	-1.02914e-05 	-3.94864e-05 	0.151013
0.0138963 	-1.00863e-05 	-3.31783e-05 	0.146534
0.0139465 	-9.84841e-06 	-2.75657e-05 	0.141766
0.0139465 	-9.84841e-06 	-2.75657e-05 	0.141766
0.0139967 	-9.58362e-06 	-2.25064e-05 	0.136751
0.0139967 	-9.58362e-06 	-2.25064e-05 	0.136751
0.0140468 	-9.29124e-06 	-1.79993e-05 	0.131477
0.0140468 	-9.29124e-06 	-1.79993e-05 	0.131477
0.014097 	-8.97013e-06 	-1.40524e-05 	0.125921
0.0141472 	-8.6194e-06 	-1.06653e-05 	0.12006
0.0141472 	-8.6194e-06 	-1.06653e-05 	0.12006
0.0141973 	-8.23852e-06 	-7.82346e-06 	0.113869
0.0142475 	-7.82197e-06 	-5.56852e-06 	0.107247
0.0142977 	-7.37363e-06 	-3.76903e-06 	0.100212
0.0142977 	-7.37363e-06 	-3.76903e-06 	0.100212
0.0143478 	-6.89396e-06 	-2.38061e-06 	0.0927539
0.014398 	-6.38502e-06 	-1.36451e-06 	0.0848927
0.014398 	-6.38502e-06 	-1.36451e-06 	0.0848927
0.0144482 	-5.85085e-06 	-6.72939e-07 	0.0766872
0.0144983 	-5.29713e-06 	-2.4767e-07 	0.0682418
0.0144983 	-5.29713e-06 	-2.4767e-07 	0.0682418
0.0145485 	-4.73046e-06 	-2.35958e-08 	0.0597064
0.0145485 	-4.73046e-06 	-2.35958e-08 	0.0597064
0.0145987 	-4.15745e-06 	6.49102e-08 	0.0512599
0.0146488 	-3.58405e-06 	7.57999e-08 	0.0430816
0.014699 	-3.01542e-06 	5.24483e-08 	0.0353178
0.014699 	-3.01542e-06 	5.24483e-08 	0.0353178
0.0147492 	-2.45726e-06 	2.14569e-08 	0.0280622
0.0147993 	-1.91949e-06 	-3.83272e-09 	0.0213582
0.0147993 	-1.91949e-06 	-3.83272e-09 	0.0213582
0.0148495 	-1.42451e-06 	-2.15041e-08 	0.0152145
0.0148495 	-1.42451e-06 	-2.15041e-08 	0.0152145
0.0148997 	-9.90226e-07 	-2.48221e-08 	0.00962161
0.0148997 	-9.90226e-07 	-2.48221e-08 	0.00962161
0.0149498 	-5.58224e-07 	-1.6588e-08 	0.00456293
0.0149498 	-5.58224e-07 	-1.6588e-08 	0.00456293
0.015 	0 	0 	0
0.015 	0 	0 	0
