0 	0 	0 	0
0 	0 	0 	0
0.00752508 	0.000364581 	0.0015617 	-0.273622
0.00752508 	0.000364581 	0.0015617 	-0.273622
0.00757525 	0.000349203 	0.00155791 	-0.27384
0.00762542 	0.000333825 	0.00155411 	-0.274059
0.00762542 	0.000333825 	0.00155411 	-0.274059
0.00767559 	0.00031847 	0.00155032 	-0.274276
0.00772575 	0.000305493 	0.00154608 	-0.274435
0.00777592 	0.000292515 	0.00154184 	-0.274593
0.00782609 	0.000279538 	0.00153761 	-0.274751
0.00782609 	0.000279538 	0.00153761 	-0.274751
0.00787625 	0.000267101 	0.00153274 	-0.274878
0.00792642 	0.000255056 	0.00152741 	-0.274984
0.00797659 	0.00024301 	0.00152208 	-0.275089
0.00802676 	0.000230765 	0.00151664 	-0.275187
0.00802676 	0.000230765 	0.00151664 	-0.275187
0.00807692 	0.000217772 	0.00151079 	-0.275259
0.00812709 	0.00020478 	0.00150494 	-0.275331
0.00812709 	0.00020478 	0.00150494 	-0.275331
0.00817726 	0.000191787 	0.00149909 	-0.275402
0.00822742 	0.000177731 	0.00149321 	-0.275451
0.00822742 	0.000177731 	0.00149321 	-0.275451
0.00827759 	0.000163557 	0.00148733 	-0.275496
0.00832776 	0.000149384 	0.00148145 	-0.275542
0.00832776 	0.000149384 	0.00148145 	-0.275542
0.00837793 	0.000134533 	0.00147511 	-0.27557
0.00842809 	0.000119316 	0.00146853 	-0.27559
0.00842809 	0.000119316 	0.00146853 	-0.27559
0.00847826 	0.0001041 	0.00146194 	-0.27561
0.00847826 	0.0001041 	0.00146194 	-0.27561
0.00852843 	8.84507e-05 	0.00145502 	-0.275617
0.00852843 	8.84507e-05 	0.00145502 	-0.275617
0.0085786 	7.22847e-05 	0.0014477 	-0.275608
0.0085786 	7.22847e-05 	0.0014477 	-0.275608
0.00862876 	5.61187e-05 	0.00144038 	-0.2756
0.00867893 	3.96999e-05 	0.00143283 	-0.275582
0.00867893 	3.96999e-05 	0.00143283 	-0.275582
0.0087291 	2.27375e-05 	0.00142478 	-0.275543
0.00877926 	5.77517e-06 	0.00141674 	-0.275505
0.00877926 	5.77517e-06 	0.00141674 	-0.275505
0.00882943 	-1.13295e-05 	0.00140853 	-0.275459
0.0088796 	-2.88976e-05 	0.0013998 	-0.275389
0.0088796 	-2.88976e-05 	0.0013998 	-0.275389
0.00897993 	-6.4118e-05 	0.0013822 	-0.275242
0.00897993 	-6.4118e-05 	0.0013822 	-0.275242
0.0090301 	-8.20928e-05 	0.00137286 	-0.275138
0.00908027 	-0.000100068 	0.00136352 	-0.275034
0.00908027 	-0.000100068 	0.00136352 	-0.275034
0.00913043 	-0.000118091 	0.00135406 	-0.274923
0.0091806 	-0.000136274 	0.00134422 	-0.274784
0.0091806 	-0.000136274 	0.00134422 	-0.274784
0.00923077 	-0.000154457 	0.00133437 	-0.274645
0.00928094 	-0.000172643 	0.0013244 	-0.274495
0.00928094 	-0.000172643 	0.0013244 	-0.274495
0.0093311 	-0.000190834 	0.00131414 	-0.27432
0.00938127 	-0.000209026 	0.00130389 	-0.274145
0.00938127 	-0.000209026 	0.00130389 	-0.274145
0.00943144 	-0.000227131 	0.00129351 	-0.273953
0.00943144 	-0.000227131 	0.00129351 	-0.273953
0.00948161 	-0.000245125 	0.00128297 	-0.27374
0.00948161 	-0.000245125 	0.00128297 	-0.27374
0.00953177 	-0.000263118 	0.00127244 	-0.273526
0.00953177 	-0.000263118 	0.00127244 	-0.273526
0.00958194 	-0.000280886 	0.00126193 	-0.273289
0.00958194 	-0.000280886 	0.00126193 	-0.273289
0.00963211 	-0.000298515 	0.00125144 	-0.273037
0.00963211 	-0.000298515 	0.00125144 	-0.273037
0.00968227 	-0.000316144 	0.00124095 	-0.272784
0.00968227 	-0.000316144 	0.00124095 	-0.272784
0.00973244 	-0.000333434 	0.00123053 	-0.272499
0.00978261 	-0.000350662 	0.00122013 	-0.272209
0.00983278 	-0.000367859 	0.00120965 	-0.271913
0.00988294 	-0.000384842 	0.00119868 	-0.271583
0.00988294 	-0.000384842 	0.00119868 	-0.271583
0.00993311 	-0.000401825 	0.0011877 	-0.271252
0.00998328 	-0.000418843 	0.00117619 	-0.270897
0.00998328 	-0.000418843 	0.00117619 	-0.270897
0.0100334 	-0.000435904 	0.00116403 	-0.270512
0.0100334 	-0.000435904 	0.00116403 	-0.270512
0.0100836 	-0.000452965 	0.00115186 	-0.270127
0.0101338 	-0.000469957 	0.00113955 	-0.26968
0.0101338 	-0.000469957 	0.00113955 	-0.26968
0.0102341 	-0.000503618 	0.00111525 	-0.268745
0.0102341 	-0.000503618 	0.00111525 	-0.268745
0.0102843 	-0.00051939 	0.00110447 	-0.268225
0.0103344 	-0.000535161 	0.0010937 	-0.267706
0.0103344 	-0.000535161 	0.0010937 	-0.267706
0.0103846 	-0.00054961 	0.0010836 	-0.267178
0.0103846 	-0.00054961 	0.0010836 	-0.267178
0.0104348 	-0.000563516 	0.00107378 	-0.266647
0.0104849 	-0.000577168 	0.00106378 	-0.266117
0.0104849 	-0.000577168 	0.00106378 	-0.266117
0.0105351 	-0.00058991 	0.00105313 	-0.265592
0.0105853 	-0.000602652 	0.00104248 	-0.265067
0.0105853 	-0.000602652 	0.00104248 	-0.265067
0.0106355 	-0.000615069 	0.00103099 	-0.264535
0.0106856 	-0.000627389 	0.00101925 	-0.264002
0.0106856 	-0.000627389 	0.00101925 	-0.264002
0.0107358 	-0.000639496 	0.00100751 	-0.263459
0.0107358 	-0.000639496 	0.00100751 	-0.263459
0.010786 	-0.000651238 	0.000995794 	-0.262902
0.010786 	-0.000651238 	0.000995794 	-0.262902
0.0108361 	-0.000662973 	0.000984081 	-0.262344
0.0108361 	-0.000662973 	0.000984081 	-0.262344
0.0108863 	-0.000673638 	0.000973083 	-0.261756
0.0109365 	-0.000684304 	0.000962086 	-0.261168
0.0109365 	-0.000684304 	0.000962086 	-0.261168
0.0109866 	-0.000694087 	0.000951346 	-0.260555
0.0109866 	-0.000694087 	0.000951346 	-0.260555
0.0110368 	-0.000703468 	0.000940724 	-0.259931
0.011087 	-0.000712367 	0.000930192 	-0.25929
0.011087 	-0.000712367 	0.000930192 	-0.25929
0.0111371 	-0.000720567 	0.00091979 	-0.258625
0.0111873 	-0.000728616 	0.000909386 	-0.257953
0.0111873 	-0.000728616 	0.000909386 	-0.257953
0.0112375 	-0.000735924 	0.00089897 	-0.257245
0.0112876 	-0.000743233 	0.000888555 	-0.256537
0.0112876 	-0.000743233 	0.000888555 	-0.256537
0.0113378 	-0.000749904 	0.000877792 	-0.255782
0.011388 	-0.000756556 	0.000867019 	-0.255026
0.011388 	-0.000756556 	0.000867019 	-0.255026
0.0114883 	-0.000768603 	0.000844886 	-0.253413
0.0114883 	-0.000768603 	0.000844886 	-0.253413
0.0115385 	-0.000773928 	0.000833916 	-0.252562
0.0115886 	-0.000778966 	0.000823003 	-0.251694
0.0115886 	-0.000778966 	0.000823003 	-0.251694
0.0116388 	-0.000783421 	0.000812482 	-0.250797
0.011689 	-0.000787493 	0.000802219 	-0.249882
0.011689 	-0.000787493 	0.000802219 	-0.249882
0.0117391 	-0.000791186 	0.000792102 	-0.248948
0.0117893 	-0.000794576 	0.000782104 	-0.247998
0.0117893 	-0.000794576 	0.000782104 	-0.247998
0.0118395 	-0.000797767 	0.000771919 	-0.247031
0.0118896 	-0.000800791 	0.000761576 	-0.246049
0.0118896 	-0.000800791 	0.000761576 	-0.246049
0.0119398 	-0.000803633 	0.000750924 	-0.245043
0.0119398 	-0.000803633 	0.000750924 	-0.245043
0.01199 	-0.000806334 	0.000740033 	-0.24402
0.01199 	-0.000806334 	0.000740033 	-0.24402
0.0120401 	-0.000808672 	0.000728894 	-0.242962
0.0120401 	-0.000808672 	0.000728894 	-0.242962
0.0120903 	-0.000810791 	0.000717604 	-0.241883
0.0120903 	-0.000810791 	0.000717604 	-0.241883
0.0121405 	-0.000812198 	0.000706235 	-0.240755
0.0121405 	-0.000812198 	0.000706235 	-0.240755
0.0121906 	-0.000813322 	0.000694835 	-0.239608
0.0121906 	-0.000813322 	0.000694835 	-0.239608
0.0122408 	-0.00081331 	0.000683494 	-0.238397
0.0122408 	-0.00081331 	0.000683494 	-0.238397
0.012291 	-0.000813084 	0.000672166 	-0.237175
0.012291 	-0.000813084 	0.000672166 	-0.237175
0.0123411 	-0.000811395 	0.000660931 	-0.235882
0.0123411 	-0.000811395 	0.000660931 	-0.235882
0.0123913 	-0.00080945 	0.000649693 	-0.234576
0.0123913 	-0.00080945 	0.000649693 	-0.234576
0.0124415 	-0.000806427 	0.000638444 	-0.233219
0.0124916 	-0.000802932 	0.000627115 	-0.231839
0.0124916 	-0.000802932 	0.000627115 	-0.231839
0.012592 	-0.000793899 	0.000603998 	-0.228976
0.012592 	-0.000793899 	0.000603998 	-0.228976
0.0126421 	-0.000788673 	0.000592209 	-0.227506
0.0126923 	-0.000782321 	0.000580027 	-0.225975
0.0126923 	-0.000782321 	0.000580027 	-0.225975
0.0127425 	-0.000775529 	0.000567723 	-0.22442
0.0127425 	-0.000775529 	0.000567723 	-0.22442
0.0127926 	-0.000767693 	0.000555142 	-0.222809
0.0128428 	-0.000758804 	0.000542374 	-0.221144
0.0128428 	-0.000758804 	0.000542374 	-0.221144
0.012893 	-0.000749255 	0.00052949 	-0.219444
0.0129431 	-0.000737793 	0.000516348 	-0.217648
0.0129431 	-0.000737793 	0.000516348 	-0.217648
0.0129933 	-0.000725505 	0.000503094 	-0.21581
0.0130435 	-0.00071197 	0.000489669 	-0.213909
0.0130435 	-0.00071197 	0.000489669 	-0.213909
0.0130936 	-0.000696715 	0.000475967 	-0.211918
0.0131438 	-0.000680501 	0.000462098 	-0.209876
0.0131438 	-0.000680501 	0.000462098 	-0.209876
0.013194 	-0.000662784 	0.000447954 	-0.207752
0.0132441 	-0.000643432 	0.00043351 	-0.205534
0.0132441 	-0.000643432 	0.00043351 	-0.205534
0.0132943 	-0.000622968 	0.00041887 	-0.203251
0.0133445 	-0.000600913 	0.00040396 	-0.200872
0.0133445 	-0.000600913 	0.00040396 	-0.200872
0.0133946 	-0.000576958 	0.000388754 	-0.198373
0.0134448 	-0.000551674 	0.000373363 	-0.195784
0.0134448 	-0.000551674 	0.000373363 	-0.195784
0.013495 	-0.000524932 	0.000357779 	-0.193094
0.0135452 	-0.000495904 	0.00034195 	-0.190226
0.0135452 	-0.000495904 	0.00034195 	-0.190226
0.0136455 	-0.000433467 	0.000309912 	-0.184104
0.0136455 	-0.000433467 	0.000309912 	-0.184104
0.0136957 	-0.000399667 	0.000293707 	-0.1808
0.0137458 	-0.000363772 	0.000277408 	-0.177272
0.0137458 	-0.000363772 	0.000277408 	-0.177272
0.013796 	-0.00032634 	0.000261076 	-0.173558
0.0138462 	-0.000287414 	0.00024474 	-0.16964
0.0138462 	-0.000287414 	0.00024474 	-0.16964
0.0138963 	-0.000247073 	0.000228437 	-0.165498
0.0138963 	-0.000247073 	0.000228437 	-0.165498
0.0139465 	-0.000205205 	0.000212262 	-0.161031
0.0139967 	-0.000162493 	0.000196264 	-0.156282
0.0139967 	-0.000162493 	0.000196264 	-0.156282
0.0140468 	-0.000119261 	0.000180494 	-0.151231
0.0140468 	-0.000119261 	0.000180494 	-0.151231
0.014097 	-7.59196e-05 	0.000165012 	-0.145848
0.0141472 	-3.30228e-05 	0.000149873 	-0.140101
0.0141973 	8.70031e-06 	0.000135126 	-0.133953
0.0141973 	8.70031e-06 	0.000135126 	-0.133953
0.0142475 	4.78494e-05 	0.000120919 	-0.127298
0.0142977 	8.3713e-05 	0.000107267 	-0.120179
0.0143478 	0.000115457 	9.42126e-05 	-0.112579
0.0143478 	0.000115457 	9.42126e-05 	-0.112579
0.014398 	0.000142197 	8.17945e-05 	-0.104494
0.014398 	0.000142197 	8.17945e-05 	-0.104494
0.0144482 	0.000163007 	7.00608e-05 	-0.0959518
0.0144983 	0.000177033 	5.90528e-05 	-0.0870193
0.0144983 	0.000177033 	5.90528e-05 	-0.0870193
0.0145485 	0.000183761 	4.87949e-05 	-0.0778027
0.0145987 	0.00018327 	3.93072e-05 	-0.0684385
0.0145987 	0.00018327 	3.93072e-05 	-0.0684385
0.0146488 	0.000176243 	3.06256e-05 	-0.0590748
0.014699 	0.00016368 	2.2815e-05 	-0.0498441
0.014699 	0.00016368 	2.2815e-05 	-0.0498441
0.0147492 	0.000146419 	1.59756e-05 	-0.0408409
0.0147993 	0.000124639 	1.01991e-05 	-0.0321157
0.0147993 	0.000124639 	1.01991e-05 	-0.0321157
0.0148495 	9.72663e-05 	5.63184e-06 	-0.0236816
0.0148495 	9.72663e-05 	5.63184e-06 	-0.0236816
0.0148997 	6.34463e-05 	2.34262e-06 	-0.0155283
0.0148997 	6.34463e-05 	2.34262e-06 	-0.0155283
0.0149498 	2.78871e-05 	4.77633e-07 	-0.00764649
0.0149498 	2.78871e-05 	4.77633e-07 	-0.00764649
0.015 	0 	0 	0
