/*--------------------------------*- C++ -*----------------------------------*\
| =========                 |                                                 |
| \\      /  F ield         | OpenFOAM: The Open Source CFD Toolbox           |
|  \\    /   O peration     | Version:  v1912                                 |
|   \\  /    A nd           | Website:  www.openfoam.com                      |
|    \\/     M anipulation  |                                                 |
\*---------------------------------------------------------------------------*/
FoamFile
{
    version     2.0;
    format      ascii;
    class       volScalarField;
    location    "197.2";
    object      alphat;
}
// * * * * * * * * * * * * * * * * * * * * * * * * * * * * * * * * * * * * * //

dimensions      [1 -1 -1 0 0 0 0];


internalField   nonuniform List<scalar> 
10077
(
1.22807e-08
6.24053e-09
1.88581e-09
5.27171e-09
5.1593e-09
6.08658e-09
6.27288e-09
6.51474e-09
6.4941e-09
6.50343e-09
6.24417e-09
6.04646e-09
5.11397e-09
5.23281e-09
1.87108e-09
6.20337e-09
1.90878e-08
1.39621e-08
1.7855e-08
1.9653e-08
1.94023e-08
2.01879e-08
2.04344e-08
2.08899e-08
2.08171e-08
2.08645e-08
2.03987e-08
2.01564e-08
1.937e-08
1.96263e-08
1.78826e-08
1.39478e-08
2.11738e-07
1.7442e-07
3.25693e-07
3.07453e-07
3.04003e-07
3.0432e-07
3.06117e-07
3.11193e-07
3.10059e-07
3.1088e-07
3.05893e-07
3.04374e-07
3.04125e-07
3.0758e-07
3.26497e-07
1.74753e-07
1.67312e-06
1.21896e-06
2.36162e-06
2.23301e-06
2.20647e-06
2.20516e-06
2.21726e-06
2.25311e-06
2.24479e-06
2.25094e-06
2.21585e-06
2.20584e-06
2.20767e-06
2.2342e-06
2.36756e-06
1.22148e-06
8.03624e-06
5.13053e-06
1.00587e-05
9.64511e-06
9.52378e-06
9.52914e-06
9.582e-06
9.73745e-06
9.70107e-06
9.72831e-06
9.57608e-06
9.53215e-06
9.52887e-06
9.65018e-06
1.00835e-05
5.1408e-06
2.80136e-05
1.56763e-05
3.0599e-05
3.00657e-05
2.96649e-05
2.97811e-05
2.99601e-05
3.04619e-05
3.03464e-05
3.04332e-05
2.994e-05
2.97877e-05
2.96767e-05
3.0078e-05
3.06704e-05
1.57048e-05
7.80476e-05
3.82257e-05
7.28532e-05
7.426e-05
7.31957e-05
7.39368e-05
7.44534e-05
7.57872e-05
7.5494e-05
7.57126e-05
7.43925e-05
7.39368e-05
7.32038e-05
7.42718e-05
7.30079e-05
3.82833e-05
0.000181975
7.80632e-05
0.00014259
0.000152297
0.000149897
0.000152753
0.00015404
0.000157072
0.000156449
0.000156906
0.000153878
0.0001527
0.000149851
0.000152264
0.000142856
7.81496e-05
0.000362871
0.000137537
0.000237762
0.000267121
0.000262418
0.000270153
0.000272882
0.000278824
0.000277687
0.000278503
0.000272512
0.000269948
0.00026221
0.000266951
0.000238144
0.00013763
0.000629309
0.000214433
0.000348986
0.000411556
0.000403441
0.000419519
0.000424449
0.000434597
0.000432773
0.000434056
0.000423745
0.00041903
0.000402943
0.000411124
0.000349475
0.000214491
0.000969514
0.000302164
0.000437737
0.000572294
0.000559705
0.000587334
0.000595112
0.00061054
0.000607899
0.000609727
0.000593957
0.000586434
0.000558802
0.000571489
0.000438197
0.000301947
0.00136044
0.000368673
0.000512238
0.000709626
0.000687926
0.00074366
0.000757198
0.000783275
0.000779189
0.000781926
0.000755044
0.000741681
0.000686057
0.000707909
0.000512781
0.000368428
0.00177963
0.000437568
0.000583289
0.000814242
0.000788471
0.000853275
0.000868739
0.000898634
0.000893932
0.000897105
0.00086626
0.000851004
0.000786347
0.000812282
0.00058392
0.000437312
0.0022031
0.00051014
0.000651131
0.000913445
0.000884199
0.000956269
0.000973268
0.00100617
0.00100095
0.00100451
0.000970542
0.00095379
0.000881899
0.00091132
0.000651851
0.000509881
0.00251645
0.000586934
0.000715789
0.00100968
0.000977057
0.00105654
0.00107511
0.00111097
0.00110525
0.00110919
0.00107214
0.00105386
0.000974595
0.0010074
0.000716597
0.000586682
0.00281422
0.000668812
0.00077773
0.00110369
0.00106773
0.00115493
0.0011751
0.00121394
0.0012077
0.00121204
0.0011719
0.00115205
0.00106511
0.00110127
0.000778628
0.000668577
0.00312573
0.000757035
0.000837887
0.00119774
0.00115825
0.00125371
0.00127541
0.00131722
0.00131042
0.00131521
0.00127199
0.00125064
0.00115549
0.00119518
0.000838876
0.000756829
0.00347339
0.000853375
0.000897616
0.00129637
0.0012527
0.00135781
0.00138082
0.00142572
0.00141827
0.0014236
0.00137723
0.00135454
0.00124975
0.00129365
0.000898698
0.000853204
0.00387296
0.000960003
0.000958577
0.00140591
0.00135663
0.00147456
0.00149852
0.00154693
0.00153861
0.0015447
0.00149483
0.00147108
0.00135342
0.00140295
0.000959755
0.000959866
0.0043383
0.00107927
0.00102257
0.00153286
0.00147602
0.00161172
0.00163583
0.00168749
0.0016782
0.00168517
0.00163215
0.00160796
0.0014724
0.00152954
0.00102384
0.00107916
0.00486031
0.00121359
0.0010914
0.00167991
0.00161555
0.00177017
0.00179094
0.00183761
0.00182879
0.00183557
0.00178799
0.00176617
0.00161148
0.0016762
0.00109278
0.00121348
0.00539988
0.00136518
0.00116686
0.0018245
0.0017702
0.00190588
0.00192532
0.00197574
0.00196595
0.00197361
0.00192237
0.00190257
0.00176681
0.00182145
0.00116834
0.00136504
0.00592714
0.00153618
0.00125072
0.0019507
0.0018952
0.00203924
0.00205942
0.0021151
0.00210411
0.00211281
0.00205641
0.00203592
0.00189168
0.00194762
0.00125231
0.00153598
0.00642756
0.00172807
0.00134473
0.00207198
0.00201666
0.00216733
0.0021877
0.00224768
0.00223565
0.00224525
0.00218482
0.0021641
0.00201313
0.00206902
0.00134642
0.0017278
0.00689732
0.00193598
0.00145055
0.00218546
0.00213473
0.00228264
0.00230183
0.00236399
0.00235119
0.00236143
0.00229933
0.00227979
0.00213159
0.00218299
0.00145235
0.00193614
0.00733996
0.00212392
0.00156976
0.00228753
0.00224627
0.00238046
0.00239685
0.00245854
0.00244533
0.00245587
0.00239502
0.00237835
0.00224397
0.00228595
0.00157168
0.00212442
0.00776058
0.00232437
0.00170382
0.00237653
0.00234957
0.00245955
0.00247158
0.00253009
0.00251689
0.00252742
0.00247072
0.00245854
0.00234858
0.00237624
0.00170585
0.00232522
0.00816422
0.00254524
0.00185387
0.00245305
0.00244479
0.00252147
0.00252786
0.00258066
0.00256789
0.00257813
0.00252821
0.00252185
0.00244556
0.0024544
0.001856
0.00254641
0.00855428
0.00278955
0.00201918
0.00252162
0.00253399
0.00257022
0.00257007
0.00261495
0.00260299
0.00261272
0.00257182
0.00257223
0.00253688
0.00252478
0.0020214
0.00279106
0.00893132
0.00305886
0.00218822
0.00259057
0.00262262
0.00261468
0.00260735
0.00264187
0.00263113
0.00264008
0.00261057
0.00261846
0.00262771
0.00259554
0.00219044
0.00306071
0.00929411
0.00335421
0.00236512
0.00266582
0.00271784
0.00266646
0.0026519
0.00267428
0.00266512
0.00267305
0.00265659
0.00267204
0.00272502
0.00267254
0.00236747
0.00335639
0.00964399
0.00367606
0.00255994
0.00274922
0.00282392
0.00273292
0.00271203
0.00272214
0.00271473
0.00272153
0.00271812
0.00274028
0.00283305
0.00275763
0.00256243
0.00367855
0.0100006
0.0040242
0.00277563
0.00284196
0.00294282
0.00281767
0.00279208
0.00279063
0.00278512
0.00279067
0.00279945
0.00282672
0.00295375
0.00285198
0.00277822
0.00402691
0.010412
0.00439802
0.00301365
0.00294625
0.0030766
0.0029231
0.00289471
0.00288289
0.0028794
0.00288356
0.00290326
0.00293372
0.00308917
0.00295781
0.0030163
0.00440085
0.0109373
0.00479654
0.00327504
0.00306575
0.00322843
0.00305221
0.00302275
0.00300155
0.00300025
0.00300284
0.00303241
0.00306433
0.00324242
0.00307877
0.00327768
0.00479935
0.0116205
0.00521759
0.00355891
0.00320504
0.00340236
0.00320967
0.00318088
0.00315104
0.00315216
0.00315296
0.0031916
0.00322317
0.00341755
0.0032194
0.00356143
0.00522017
0.0124448
0.00565571
0.00385431
0.00336958
0.0036035
0.00340145
0.00337555
0.00333813
0.00334191
0.00334068
0.00338722
0.00341617
0.00361965
0.0033851
0.00385653
0.00565782
0.0132369
0.0060952
0.00411107
0.00356628
0.00383894
0.0036346
0.00361454
0.00357145
0.00357809
0.00357462
0.00362693
0.00365026
0.0038559
0.00358274
0.00411239
0.00609647
0.013357
0.0065177
0.00434479
0.00380339
0.00411901
0.00391707
0.00390617
0.00386008
0.00386965
0.0038638
0.00391899
0.00393335
0.00413682
0.00382059
0.00434582
0.00651791
0.0134426
0.00692543
0.00458508
0.00408931
0.0044554
0.00425529
0.00425707
0.00421092
0.00422349
0.00421505
0.00426998
0.00427191
0.00447407
0.00410721
0.00458578
0.00692474
0.013501
0.00732243
0.00483183
0.00442191
0.00483789
0.00464414
0.00466236
0.00462036
0.00463615
0.0046246
0.0046747
0.00466057
0.00485747
0.00444055
0.00483218
0.00732119
0.013539
0.00770257
0.00508505
0.00473472
0.00517819
0.00500758
0.00504407
0.00502533
0.00504149
0.00502823
0.00505362
0.00502198
0.00520046
0.00475454
0.00508502
0.00770075
0.0135636
0.00808746
0.00534478
0.00501005
0.00547878
0.00531975
0.00536634
0.00534905
0.0053674
0.0053521
0.00537569
0.00533374
0.00550034
0.00502955
0.00534435
0.00808494
0.0135818
0.00847791
0.0056111
0.00530684
0.00579642
0.00565505
0.00571175
0.00569458
0.00571562
0.00569778
0.00572084
0.00566864
0.00581688
0.00532572
0.00561024
0.00847456
0.0136008
0.00887367
0.00588401
0.00562097
0.00612682
0.00600858
0.00607558
0.00606099
0.00608417
0.00606422
0.00608427
0.00602158
0.00614591
0.00563905
0.00588272
0.00886933
0.0136282
0.00927457
0.00616342
0.00594821
0.0064657
0.00637434
0.0064513
0.00644108
0.00646588
0.00644425
0.00645951
0.00638666
0.00648323
0.00596521
0.00616168
0.00926903
0.0136702
0.0096777
0.00644906
0.00628412
0.00680896
0.00674736
0.00683355
0.00682859
0.00685458
0.00683166
0.00684128
0.00675902
0.00682484
0.00629986
0.00644689
0.00967141
0.0137323
0.0100806
0.00674044
0.00662449
0.00715273
0.00712432
0.00721957
0.00722032
0.00724731
0.00722331
0.00722687
0.00713525
0.007167
0.00663886
0.00673786
0.0100738
0.0138203
0.0104819
0.00703686
0.00696529
0.00749577
0.00750295
0.0076079
0.00761605
0.0076438
0.00761889
0.00761474
0.00751311
0.00750856
0.00697826
0.00703389
0.0104748
0.0139401
0.0108808
0.00733822
0.00730449
0.00783762
0.00788178
0.00799624
0.00801288
0.00804106
0.00801552
0.00800257
0.00789112
0.00784898
0.00731612
0.00733487
0.0108735
0.0140953
0.0112767
0.00764551
0.00764138
0.00817571
0.00825773
0.00838128
0.00840717
0.00843551
0.00840958
0.00838712
0.00826625
0.00818575
0.00765176
0.00764177
0.0112693
0.0142873
0.0116693
0.00795897
0.00797394
0.0085076
0.0086283
0.00876034
0.00879599
0.00882421
0.00879817
0.0087657
0.00863603
0.00851643
0.00798314
0.00795488
0.0116618
0.014516
0.0120584
0.00827773
0.00829958
0.00883091
0.00899136
0.00913109
0.00917696
0.00920476
0.00917889
0.00913604
0.00899837
0.00883867
0.0083077
0.00827332
0.0120509
0.0147804
0.0124445
0.00860082
0.00861769
0.00914539
0.00934496
0.00949142
0.00954807
0.00957507
0.00954977
0.00949603
0.00935134
0.0091522
0.00862478
0.00859614
0.012437
0.015078
0.012828
0.00892734
0.00893051
0.00945322
0.0096874
0.00983934
0.00990749
0.00993322
0.00990896
0.00984371
0.00969326
0.0094592
0.00893661
0.00892243
0.0128205
0.0152493
0.0132085
0.00925638
0.0092389
0.00975541
0.0100177
0.0101761
0.0102536
0.0102786
0.0102549
0.0101802
0.010023
0.00976065
0.0092441
0.00925129
0.013201
0.0153433
0.013585
0.0095871
0.0095431
0.0100523
0.0103382
0.0105032
0.0105883
0.0106133
0.0105894
0.0105069
0.010343
0.0100569
0.00954748
0.00958189
0.0135775
0.015564
0.0139564
0.00991867
0.00984306
0.0103438
0.0106497
0.0108212
0.0109127
0.0109379
0.0109137
0.0108245
0.0106541
0.0103479
0.00984672
0.00991338
0.0139488
0.0159794
0.0143213
0.0102503
0.0101386
0.0106299
0.0109527
0.0111299
0.0112271
0.0112526
0.0112279
0.0111329
0.0109567
0.0106336
0.0101416
0.010245
0.0143138
0.0166213
0.0146785
0.0105811
0.0104292
0.0109103
0.0112471
0.0114293
0.0115313
0.0115571
0.011532
0.011432
0.0112507
0.0109136
0.0104317
0.0105759
0.0146711
0.0172909
0.0150267
0.0109104
0.0107145
0.0111843
0.0115323
0.0117186
0.0118248
0.0118509
0.0118254
0.0117212
0.0115357
0.0111872
0.0107166
0.0109053
0.0150194
0.0176798
0.0153643
0.0112375
0.0109941
0.0114512
0.0118076
0.0119971
0.0121066
0.012133
0.0121072
0.0119994
0.0118107
0.011454
0.0109958
0.0112326
0.015357
0.0180588
0.0156895
0.0115616
0.0112679
0.0117107
0.0120722
0.0122638
0.0123754
0.0124022
0.0123759
0.0122659
0.0120751
0.0117134
0.0112695
0.011557
0.0156824
0.0184205
0.0160005
0.0118819
0.0115364
0.0119629
0.012326
0.0125181
0.0126299
0.0126576
0.0126303
0.0125201
0.0123288
0.0119656
0.011538
0.0118777
0.0159937
0.0187592
0.0162953
0.0121976
0.0118005
0.0122085
0.0125691
0.0127601
0.0128702
0.0128983
0.0128706
0.0127621
0.012572
0.0122113
0.0118022
0.012194
0.0162886
0.0190699
0.0165714
0.012508
0.0120614
0.0124486
0.0128023
0.01299
0.0130967
0.0131249
0.0130971
0.012992
0.0128052
0.0124517
0.0120635
0.012505
0.0165649
0.0193484
0.0168263
0.0128118
0.01232
0.0126842
0.0130256
0.0132076
0.0133099
0.0133378
0.0133103
0.0132097
0.0130287
0.0126878
0.0123225
0.0128097
0.0168202
0.019591
0.0170575
0.0131079
0.0125767
0.0129161
0.0132392
0.0134133
0.0135101
0.0135374
0.0135107
0.0134156
0.0132425
0.0129203
0.0125798
0.0131066
0.0170516
0.0197946
0.0172619
0.0133949
0.0128309
0.0131441
0.0134434
0.0136076
0.0136978
0.0137241
0.0136985
0.0136101
0.0134471
0.0131488
0.0128348
0.0133945
0.0172563
0.019957
0.0174369
0.013671
0.013081
0.0133664
0.0136386
0.0137906
0.013873
0.0138979
0.0138739
0.0137934
0.0136427
0.0133717
0.0130858
0.0136716
0.0174316
0.0200759
0.0175795
0.0139346
0.0133244
0.0135811
0.0138245
0.0139623
0.0140357
0.0140587
0.0140367
0.0139654
0.0138292
0.0135871
0.0133301
0.0139361
0.0175746
0.0201494
0.0176869
0.0141834
0.0135602
0.0137879
0.0140011
0.0141226
0.0141856
0.0142065
0.0141868
0.014126
0.0140063
0.0137947
0.013567
0.0141861
0.0176825
0.0201755
0.0177568
0.0144129
0.0137873
0.0139862
0.0141679
0.0142712
0.0143227
0.014341
0.0143241
0.014275
0.0141737
0.0139938
0.0137951
0.0144169
0.0177529
0.0201515
0.017787
0.0146217
0.0140042
0.014175
0.0143242
0.0144076
0.0144465
0.0144619
0.0144481
0.0144118
0.0143306
0.0141835
0.0140132
0.014627
0.0177837
0.0200731
0.0177759
0.014808
0.0142091
0.0143532
0.0144691
0.0145312
0.0145565
0.0145688
0.0145584
0.0145358
0.0144762
0.0143625
0.0142193
0.0148146
0.0177732
0.0199355
0.0177222
0.0149702
0.0144
0.0145191
0.0146016
0.0146413
0.0146524
0.0146612
0.0146545
0.0146464
0.0146093
0.0145293
0.0144115
0.0149782
0.0177202
0.0197371
0.0176246
0.015107
0.0145748
0.014671
0.0147203
0.014737
0.0147335
0.0147386
0.0147358
0.0147426
0.0147286
0.0146821
0.0145875
0.0151165
0.0176234
0.0194802
0.0174835
0.0152175
0.0147313
0.0148072
0.014824
0.0148176
0.0147992
0.0148006
0.0148018
0.0148236
0.0148329
0.0148192
0.0147451
0.0152284
0.0174833
1.09134e-08
7.65734e-09
5.17662e-09
5.01286e-09
5.22021e-09
5.31592e-09
5.36767e-09
5.40511e-09
5.41298e-09
5.4114e-09
5.38211e-09
5.3369e-09
5.24247e-09
5.03239e-09
5.19478e-09
7.67284e-09
8.40296e-08
2.29736e-08
2.11059e-08
2.60761e-08
2.62384e-08
2.82226e-08
2.8839e-08
2.95985e-08
2.95544e-08
2.95922e-08
2.88229e-08
2.82257e-08
2.62269e-08
2.60685e-08
2.11538e-08
2.29737e-08
1.43929e-06
3.25763e-07
3.36759e-07
4.37305e-07
4.36053e-07
4.73272e-07
4.84262e-07
4.98426e-07
4.9737e-07
4.98195e-07
4.83695e-07
4.72971e-07
4.35445e-07
4.36821e-07
3.37413e-07
3.25514e-07
9.93177e-06
2.28818e-06
2.42779e-06
3.14828e-06
3.13001e-06
3.3935e-06
3.46952e-06
3.5692e-06
3.56117e-06
3.56745e-06
3.46524e-06
3.39105e-06
3.12536e-06
3.14454e-06
2.4324e-06
2.28635e-06
4.02965e-05
9.55793e-06
1.03331e-05
1.33714e-05
1.32597e-05
1.43577e-05
1.46674e-05
1.50799e-05
1.50445e-05
1.50722e-05
1.46484e-05
1.43461e-05
1.32389e-05
1.33546e-05
1.03521e-05
9.55028e-06
0.000117635
2.88188e-05
3.15929e-05
4.09058e-05
4.04687e-05
4.37847e-05
4.46985e-05
4.59334e-05
4.58219e-05
4.59083e-05
4.46373e-05
4.37441e-05
4.04003e-05
4.08502e-05
3.16477e-05
2.8795e-05
0.00027219
6.93189e-05
7.66475e-05
9.95727e-05
9.82937e-05
0.000106322
0.000108482
0.000111435
0.000111158
0.000111369
0.000108322
0.000106207
9.81116e-05
9.94238e-05
7.67696e-05
6.92578e-05
0.000526973
0.00014036
0.000155736
0.00020345
0.00020041
0.00021674
0.000221037
0.000226976
0.000226404
0.00022683
0.000220682
0.000216463
0.0002
0.000203113
0.000155958
0.000140225
0.000887491
0.000247263
0.000274119
0.00036055
0.000354432
0.000383384
0.000390845
0.00040124
0.00040022
0.000400957
0.000390159
0.000382811
0.000353633
0.000359891
0.00027446
0.000247
0.00134137
0.000388472
0.000428962
0.000568332
0.000557601
0.000603548
0.000615187
0.000631482
0.00062987
0.000630997
0.000614012
0.000602512
0.00055623
0.000567197
0.000429422
0.000388022
0.00186489
0.00055605
0.000611143
0.000814608
0.000797777
0.000864529
0.000881246
0.000904684
0.000902363
0.000903928
0.000879424
0.00086286
0.000795657
0.000812851
0.000611713
0.000555364
0.00243045
0.000739864
0.000808982
0.00108233
0.00105814
0.00114856
0.00117108
0.0012026
0.0011995
0.00120152
0.00116847
0.00114611
0.00105514
0.00107984
0.000809649
0.000738925
0.00301197
0.000930198
0.00101169
0.00135442
0.00132209
0.0014378
0.00146661
0.00150683
0.0015029
0.00150537
0.00146311
0.00143446
0.00131815
0.00135113
0.00101244
0.00092901
0.00358766
0.00111964
0.00121142
0.00162096
0.00157991
0.00171949
0.00175436
0.00180281
0.00179815
0.00180098
0.00174995
0.00171527
0.00157503
0.00161684
0.00121227
0.00111822
0.00414215
0.00129257
0.00138263
0.001875
0.00182487
0.00198747
0.00202831
0.00208477
0.00207941
0.00208256
0.00202299
0.00198237
0.00181907
0.00187009
0.00138343
0.00129033
0.00466564
0.0014384
0.00152366
0.00211338
0.00205392
0.00223822
0.00228478
0.00234884
0.00234285
0.00234627
0.00227857
0.00223228
0.00204724
0.00210771
0.00152455
0.00143603
0.00515285
0.0015757
0.00165483
0.00233563
0.00226658
0.00247108
0.00252302
0.00259418
0.0025876
0.00259125
0.00251596
0.00246434
0.00225908
0.00232925
0.00165585
0.00157338
0.00560171
0.00170958
0.00178175
0.00253924
0.00244107
0.00268718
0.00274406
0.00282178
0.00281467
0.00281852
0.00273621
0.0026797
0.00243062
0.00253017
0.00178291
0.00170741
0.00601219
0.00184286
0.00190747
0.0026756
0.0025683
0.00286158
0.00293235
0.00303358
0.00302597
0.00302999
0.00292197
0.00285108
0.00255727
0.00266602
0.00190877
0.0018409
0.00638523
0.00197825
0.00203485
0.00279782
0.00268638
0.00298669
0.00305906
0.00316662
0.00315667
0.00316175
0.00304832
0.00297573
0.00267539
0.00278836
0.00203632
0.00197654
0.00672193
0.00211866
0.00216687
0.00291832
0.00280391
0.00310128
0.00317193
0.00327888
0.00326832
0.00327379
0.00316142
0.00309051
0.00279314
0.00290904
0.00216851
0.00211723
0.00702328
0.00226664
0.00230578
0.00304237
0.00292367
0.00321765
0.00328592
0.00339096
0.00338021
0.00338593
0.00327571
0.00320718
0.00291301
0.00303323
0.00230759
0.00226552
0.00730217
0.00242201
0.00244963
0.00317133
0.00304725
0.00333908
0.00340504
0.00350843
0.0034975
0.0035035
0.00339511
0.00332885
0.00303661
0.00316227
0.00245161
0.00242131
0.00758257
0.0025754
0.00259917
0.00330586
0.0031754
0.00346647
0.00353033
0.00363259
0.00362141
0.00362773
0.00352061
0.00345641
0.00316473
0.00329683
0.00260137
0.00257515
0.00786419
0.00273343
0.00275889
0.00344705
0.00330926
0.00360071
0.00366257
0.00376411
0.00375262
0.0037593
0.00365301
0.00359074
0.00329849
0.00343802
0.00276134
0.00273369
0.00814702
0.00289818
0.00293128
0.00359694
0.00345058
0.00374358
0.00380349
0.00390449
0.00389265
0.00389971
0.00379405
0.00373364
0.00343967
0.00358784
0.00293402
0.00289902
0.00843109
0.00307092
0.00311807
0.00375833
0.00360189
0.00389759
0.00395545
0.00405585
0.00404364
0.00405109
0.0039461
0.00388762
0.00359074
0.0037491
0.00312111
0.00307243
0.00871647
0.00325296
0.00332038
0.00393312
0.00376525
0.00406304
0.00411829
0.00421749
0.00420496
0.00421275
0.00410909
0.00405309
0.00375381
0.00392373
0.00332375
0.00325518
0.00900317
0.0034455
0.00353872
0.00411921
0.00393986
0.00423386
0.00428474
0.00438077
0.00436812
0.0043761
0.00427594
0.00422419
0.00392822
0.00410979
0.00354244
0.00344848
0.009291
0.00364958
0.00377312
0.00431075
0.00412147
0.00439956
0.00444311
0.00453236
0.00451995
0.00452786
0.00443516
0.00439069
0.00410995
0.00430165
0.0037772
0.00365334
0.00957925
0.00386595
0.00402334
0.00450146
0.0043048
0.00455121
0.00458392
0.00466199
0.00465024
0.00465784
0.00457732
0.00454374
0.00429388
0.00449314
0.00402779
0.00387049
0.00986574
0.0040951
0.00428887
0.00468716
0.00448589
0.00468455
0.00470323
0.00476601
0.00475531
0.00476237
0.00469842
0.00467904
0.00447611
0.00468012
0.00429368
0.00410041
0.0101438
0.00433711
0.0045687
0.00486656
0.00466313
0.00480051
0.00480295
0.00484738
0.00483805
0.00484442
0.00480023
0.00479737
0.00465503
0.00486126
0.00457383
0.00434314
0.0104023
0.00459157
0.00486109
0.00504107
0.00483743
0.00490545
0.00489137
0.004916
0.00490832
0.00491384
0.00489079
0.00490485
0.00483143
0.00503788
0.0048665
0.00459823
0.01063
0.00485758
0.00516343
0.00521477
0.00501228
0.00501155
0.00498233
0.00498759
0.00498171
0.00498631
0.00498375
0.00501339
0.0050086
0.00521381
0.00516904
0.00486474
0.0108197
0.00513378
0.00547227
0.00539508
0.00519413
0.00513112
0.00508848
0.00507602
0.00507185
0.00507558
0.00509166
0.00513513
0.00519272
0.00539624
0.00547798
0.00514128
0.0109665
0.00541853
0.00578365
0.00559017
0.00539011
0.00527216
0.0052178
0.00518957
0.00518695
0.00518992
0.00522247
0.00527803
0.00539078
0.0055932
0.00578934
0.00542618
0.011059
0.00571011
0.00609426
0.00580583
0.00560567
0.00544033
0.00537585
0.0053339
0.00533265
0.00533495
0.00538174
0.0054477
0.00560819
0.00581044
0.00609984
0.00571768
0.0110897
0.00600686
0.00640282
0.00604567
0.00584439
0.0056391
0.00556617
0.00551271
0.00551259
0.00551436
0.00557298
0.00564761
0.00584849
0.00605154
0.00640825
0.00601425
0.0110607
0.00630582
0.00671031
0.00631051
0.00610719
0.00586968
0.00579018
0.0057278
0.0057285
0.00572994
0.00579758
0.00587893
0.00611259
0.00631732
0.00671556
0.00631317
0.0109778
0.00659315
0.00701894
0.00659788
0.00639185
0.00613079
0.00604695
0.00597883
0.00597996
0.00598132
0.00605456
0.00614034
0.00639829
0.00660537
0.00702403
0.00660109
0.0108479
0.00684345
0.00733082
0.00690282
0.00669424
0.00641947
0.00633382
0.0062635
0.00626462
0.0062662
0.00634127
0.00642887
0.00670145
0.00691072
0.00733579
0.00685432
0.0106782
0.00705718
0.00764666
0.00722019
0.00701091
0.00673298
0.00664809
0.00657901
0.00657961
0.00658182
0.00665508
0.00674182
0.00701867
0.00722824
0.00765152
0.0070684
0.0104759
0.0072669
0.00796495
0.00754666
0.00734094
0.00706988
0.00698802
0.0069225
0.00692217
0.00692536
0.00699434
0.00707783
0.00734902
0.00755464
0.00796972
0.0072784
0.0102483
0.00747281
0.00828239
0.00788139
0.00768463
0.00742915
0.00735134
0.00728743
0.00728634
0.00729037
0.00735689
0.00743606
0.00769262
0.00788917
0.00828706
0.00748456
0.0100023
0.00767591
0.00859519
0.00822625
0.00804205
0.00780786
0.00773121
0.00765394
0.00765433
0.00765713
0.00773619
0.00781407
0.00804927
0.00823349
0.00859977
0.00768787
0.00974476
0.0078771
0.00890027
0.00858523
0.00841361
0.00819505
0.00810683
0.00796563
0.00797576
0.00796963
0.00811209
0.00820206
0.00841939
0.00859139
0.00890478
0.00788923
0.00948248
0.00807648
0.00919622
0.00896428
0.00880002
0.00854941
0.00841352
0.00827076
0.00827999
0.0082747
0.00842138
0.00856166
0.00880395
0.00896883
0.0092007
0.00808877
0.00922227
0.00827428
0.00948429
0.0093694
0.00919835
0.00884831
0.00871172
0.00857437
0.00858197
0.00857806
0.00871922
0.00885952
0.00920063
0.00937209
0.00948882
0.0082867
0.00897087
0.00847079
0.00976956
0.00979966
0.00958977
0.00914211
0.00900503
0.00887263
0.00887876
0.00887607
0.00901213
0.00915235
0.00959208
0.00980098
0.00977426
0.00848331
0.00873473
0.00866634
0.0100622
0.0102337
0.00990778
0.00942865
0.00929139
0.00916368
0.00916845
0.00916687
0.00929805
0.00943794
0.0099151
0.0102358
0.0100672
0.00867894
0.00852047
0.00886127
0.0103788
0.0105971
0.0101695
0.00970569
0.00956876
0.00944561
0.00944913
0.00944854
0.00957494
0.00971404
0.0101761
0.0106058
0.0103842
0.0088739
0.00833511
0.00905589
0.0107405
0.0108635
0.0104266
0.00997232
0.00983522
0.00971653
0.00971895
0.00971919
0.00984085
0.0099799
0.0104327
0.0108717
0.0107464
0.0090685
0.00818544
0.0092505
0.0111674
0.011125
0.0106784
0.0102295
0.0100915
0.00997577
0.0099774
0.00997822
0.0100967
0.0102364
0.010684
0.0111328
0.0111739
0.00926306
0.00807746
0.00944538
0.0116639
0.0113795
0.0109229
0.0104785
0.0103394
0.0102248
0.0102261
0.0102271
0.0103441
0.010485
0.0109282
0.0113871
0.0116711
0.00945784
0.00801504
0.00964074
0.0121804
0.0116268
0.0111598
0.0107205
0.010578
0.0104655
0.0104658
0.0104677
0.0105826
0.0107267
0.011165
0.0116344
0.0121887
0.00965305
0.00799813
0.00983668
0.0125699
0.0118669
0.0113892
0.0109536
0.0108066
0.0106962
0.0106951
0.0106983
0.010811
0.0109597
0.0113944
0.0118745
0.0125806
0.00984881
0.00802547
0.0100334
0.0127986
0.0121003
0.0116115
0.0111777
0.0110254
0.0109168
0.0109142
0.0109188
0.0110299
0.0111838
0.0116168
0.012108
0.0128096
0.0100453
0.00809503
0.0102313
0.0130215
0.0123273
0.0118273
0.0113934
0.0112356
0.0111281
0.0111241
0.0111301
0.0112402
0.0113995
0.0118328
0.0123351
0.0130328
0.0102429
0.00820476
0.0104307
0.0132374
0.0125486
0.0120374
0.0116016
0.0114383
0.0113314
0.0113261
0.0113334
0.011443
0.0116079
0.0120431
0.0125566
0.013249
0.0104421
0.00835394
0.0106325
0.0134457
0.0127648
0.0122425
0.0118039
0.0116351
0.0115283
0.0115218
0.0115303
0.0116399
0.0118104
0.0122486
0.0127731
0.0134575
0.0106437
0.00854417
0.0108375
0.0136458
0.0129764
0.0124436
0.0120015
0.0118274
0.0117204
0.0117129
0.0117226
0.0118325
0.0120084
0.0124501
0.0129851
0.0136578
0.0108483
0.00878179
0.0110467
0.0138379
0.0131838
0.0126414
0.0121958
0.0120169
0.0119098
0.0119011
0.0119121
0.0120223
0.0122031
0.0126484
0.0131928
0.0138499
0.0110572
0.00906416
0.011261
0.014022
0.0133868
0.0128362
0.0123877
0.0122046
0.0120982
0.0120881
0.0121006
0.0122103
0.0123954
0.0128436
0.013396
0.0140341
0.0112711
0.00936969
0.0114815
0.0141988
0.0135851
0.0130279
0.0125776
0.0123911
0.012286
0.0122749
0.0122886
0.0123971
0.0125856
0.0130357
0.0135946
0.0142109
0.0114913
0.00968732
0.0117096
0.0143689
0.0137783
0.0132163
0.0127657
0.0125769
0.0124738
0.012462
0.0124766
0.0125832
0.0127742
0.0132246
0.0137881
0.0143808
0.0117189
0.0100201
0.0119464
0.0145333
0.0139659
0.0134011
0.0129527
0.012763
0.012662
0.0126497
0.012665
0.0127697
0.0129616
0.0134098
0.013976
0.0145448
0.0119553
0.0103703
0.0121931
0.0146927
0.0141477
0.0135823
0.0131392
0.0129498
0.0128512
0.0128385
0.0128544
0.0129569
0.0131487
0.0135914
0.014158
0.0147035
0.0122015
0.010739
0.0124505
0.0148468
0.0143237
0.01376
0.0133253
0.0131375
0.0130418
0.0130291
0.0130452
0.0131451
0.0133353
0.0137696
0.0143343
0.014857
0.0124584
0.0111269
0.0127192
0.0149955
0.0144945
0.0139353
0.0135111
0.0133264
0.0132342
0.0132216
0.0132378
0.0133343
0.0135214
0.0139454
0.0145053
0.015005
0.0127265
0.011534
0.0129993
0.0151379
0.0146607
0.0141087
0.0136961
0.0135163
0.0134285
0.0134163
0.0134324
0.0135246
0.0137069
0.0141192
0.0146715
0.0151469
0.0130058
0.0119592
0.0132902
0.0152738
0.0148211
0.0142788
0.01388
0.0137069
0.0136245
0.0136129
0.0136286
0.0137156
0.0138911
0.0142897
0.014832
0.015282
0.013296
0.0124007
0.0135908
0.0154047
0.0149734
0.0144444
0.014062
0.0138976
0.0138217
0.0138109
0.0138259
0.0139065
0.0140734
0.0144555
0.0149841
0.0154121
0.0135958
0.0128555
0.0138991
0.0155294
0.0151157
0.0146038
0.0142408
0.0140872
0.0140188
0.0140092
0.0140233
0.0140963
0.0142524
0.014615
0.015126
0.015536
0.0139031
0.0133193
0.0142122
0.0156466
0.0152467
0.0147554
0.0144149
0.014274
0.0142144
0.0142061
0.014219
0.0142834
0.0144267
0.0147666
0.0152565
0.0156523
0.0142152
0.0137868
0.0145263
0.0157547
0.0153647
0.0148971
0.0145823
0.014456
0.0144062
0.0143996
0.0144109
0.0144655
0.0145941
0.0149083
0.0153739
0.0157594
0.0145281
0.0142519
0.0148368
0.015852
0.0154676
0.0150269
0.0147407
0.0146307
0.0145915
0.0145868
0.0145963
0.0146402
0.0147524
0.0150379
0.0154761
0.0158557
0.0148374
0.0147082
0.0151386
0.0159312
0.0155497
0.0151402
0.0148847
0.014794
0.0147672
0.0147645
0.014772
0.014803
0.0148963
0.015151
0.0155577
0.0159342
0.0151379
0.0151486
0.0154251
0.0159966
0.0156167
1.0198e-08
9.68922e-09
1.15006e-08
1.03771e-08
9.98401e-09
9.67689e-09
9.52998e-09
9.42226e-09
9.42652e-09
9.43264e-09
9.55034e-09
9.70619e-09
1.00108e-08
1.03988e-08
1.1526e-08
9.71615e-09
3.11851e-08
2.06312e-08
2.35717e-08
2.65346e-08
2.53811e-08
2.60649e-08
2.59346e-08
2.61067e-08
2.60273e-08
2.61137e-08
2.59397e-08
2.6087e-08
2.53858e-08
2.65384e-08
2.36202e-08
2.06561e-08
4.537e-07
2.47879e-07
2.76034e-07
3.53717e-07
3.37433e-07
3.55874e-07
3.55741e-07
3.6086e-07
3.59228e-07
3.60826e-07
3.55506e-07
3.55826e-07
3.37087e-07
3.53442e-07
2.76578e-07
2.47925e-07
3.22386e-06
1.72525e-06
1.91481e-06
2.4812e-06
2.36781e-06
2.50082e-06
2.50104e-06
2.53791e-06
2.52628e-06
2.53758e-06
2.4992e-06
2.50025e-06
2.36516e-06
2.47912e-06
1.91856e-06
1.72538e-06
1.35584e-05
7.18801e-06
7.94397e-06
1.03381e-05
9.87519e-06
1.04332e-05
1.04383e-05
1.05928e-05
1.05446e-05
1.05912e-05
1.04302e-05
1.04301e-05
9.86361e-06
1.03291e-05
7.95922e-06
7.18793e-06
4.10497e-05
2.1615e-05
2.37152e-05
3.0999e-05
2.96546e-05
3.13497e-05
3.13844e-05
3.18548e-05
3.17124e-05
3.18489e-05
3.13577e-05
3.13371e-05
2.96174e-05
3.09703e-05
2.37589e-05
2.16122e-05
9.9303e-05
5.20265e-05
5.64748e-05
7.42218e-05
7.11387e-05
7.52785e-05
7.54255e-05
7.6583e-05
7.62491e-05
7.65652e-05
7.53546e-05
7.52379e-05
7.10413e-05
7.41465e-05
5.65721e-05
5.20115e-05
0.000203668
0.0001063
0.000113811
0.000150467
0.000144544
0.000153191
0.000153655
0.000156085
0.000155429
0.00015604
0.000153493
0.000153083
0.000144326
0.000150297
0.00011399
0.00010625
0.0003673
0.000191099
0.000201351
0.000267819
0.000257911
0.000273793
0.000274955
0.00027945
0.000278326
0.000279351
0.000274631
0.000273551
0.000257481
0.000267483
0.000201634
0.00019097
0.000597712
0.000309779
0.00032085
0.00042934
0.000414463
0.000440724
0.000443153
0.000450642
0.000448926
0.000450453
0.000442574
0.000440253
0.000413705
0.000428745
0.000321245
0.00030951
0.000895382
0.000461725
0.000469798
0.000632458
0.000611892
0.000651748
0.000656157
0.000667612
0.000665213
0.000667288
0.000655215
0.000650934
0.000610677
0.000631498
0.000470299
0.00046124
0.00125456
0.000642817
0.000642529
0.000870338
0.00084363
0.000900059
0.000907222
0.000923566
0.000920432
0.000923058
0.000905806
0.000898782
0.000841828
0.00086891
0.000643119
0.000642038
0.00166509
0.000846898