/*--------------------------------*- C++ -*----------------------------------*\
| =========                 |                                                 |
| \\      /  F ield         | OpenFOAM: The Open Source CFD Toolbox           |
|  \\    /   O peration     | Version:  v1912                                 |
|   \\  /    A nd           | Website:  www.openfoam.com                      |
|    \\/     M anipulation  |                                                 |
\*---------------------------------------------------------------------------*/
FoamFile
{
    version     2.0;
    format      ascii;
    class       volSymmTensorField;
    location    "197.2";
    object      UPrime2Mean;
}
// * * * * * * * * * * * * * * * * * * * * * * * * * * * * * * * * * * * * * //

dimensions      [0 2 -2 0 0 0 0];


internalField   nonuniform List<symmTensor> 
10077
(
(1.76521e-09 -1.76058e-10 4.8225e-09 6.64118e-08 -2.48375e-07 1.88431e-06)
(1.20123e-05 1.68805e-07 3.81185e-07 2.42418e-09 6.98762e-09 1.44165e-07)
(2.87466e-07 2.94564e-09 3.64708e-08 3.11193e-11 4.94699e-11 1.94195e-07)
(3.7056e-08 8.79045e-11 1.27732e-08 3.28708e-13 2.65639e-11 5.96013e-08)
(2.32516e-08 1.4572e-10 7.85367e-09 9.77871e-13 2.66515e-11 7.6045e-08)
(4.23101e-09 2.46305e-11 1.1303e-09 1.68219e-13 4.28455e-13 7.11955e-08)
(1.04922e-09 6.63149e-12 1.03288e-10 5.53858e-14 -5.59236e-12 7.1721e-08)
(4.99818e-10 1.4518e-12 -2.74156e-09 2.77484e-14 3.83343e-13 7.53023e-08)
(7.00418e-10 -6.67148e-13 -5.36254e-09 3.29609e-14 -1.29817e-12 8.35557e-08)
(8.94791e-10 -2.64826e-12 -6.4677e-09 2.98026e-14 2.24667e-12 8.64484e-08)
(1.86557e-09 -6.71082e-12 -7.15673e-09 5.88992e-14 -4.17061e-12 9.13928e-08)
(5.01348e-09 -2.66914e-11 -8.34498e-09 1.80025e-13 8.61943e-12 8.98206e-08)
(2.40987e-08 -1.45771e-10 -1.46078e-08 1.00919e-12 1.59067e-11 1.01634e-07)
(3.66729e-08 -8.31307e-11 -8.95568e-09 2.71646e-13 1.45684e-12 9.38805e-08)
(2.84456e-07 -2.93305e-09 -2.85648e-08 3.10677e-11 -2.77821e-11 2.97078e-07)
(1.20252e-05 -1.69088e-07 -3.48242e-07 2.43069e-09 6.88466e-09 1.76185e-07)
(1.08477e-08 3.30933e-09 4.64132e-08 6.13945e-07 -1.65906e-06 6.61441e-06)
(2.87761e-05 7.17646e-07 6.78808e-07 1.9449e-08 4.48074e-08 1.14319e-06)
(1.24779e-06 -5.18913e-10 1.61313e-07 5.36897e-11 -7.03335e-09 1.62691e-06)
(8.72742e-08 4.01898e-10 3.88213e-08 2.87973e-12 7.78638e-11 4.56428e-07)
(5.04149e-08 4.37158e-10 3.09934e-08 4.77998e-12 8.19605e-11 6.09561e-07)
(1.02488e-08 7.36206e-11 -8.86567e-11 9.51844e-13 -4.69721e-11 5.81875e-07)
(3.38399e-09 3.71616e-11 -3.67625e-09 8.46638e-13 -7.0485e-11 5.8531e-07)
(3.08062e-09 1.71832e-12 -2.2969e-08 9.03206e-13 3.1943e-11 6.13732e-07)
(4.64995e-09 -5.62235e-13 -3.98856e-08 5.88073e-13 -1.06759e-10 6.77159e-07)
(5.18248e-09 -9.92387e-12 -4.65259e-08 6.18373e-13 -1.51044e-10 7.00188e-07)
(8.67567e-09 -1.92932e-11 -4.96153e-08 5.91901e-13 -2.45599e-10 7.39231e-07)
(1.47511e-08 -5.70109e-11 -5.45754e-08 6.21461e-13 -1.00701e-10 7.24504e-07)
(5.43676e-08 -3.72758e-10 -8.30757e-08 4.99932e-12 -4.13934e-10 8.16135e-07)
(8.44682e-08 -3.95136e-10 -8.38801e-09 2.94754e-12 -3.78385e-10 7.43858e-07)
(1.2361e-06 4.05693e-10 -1.02819e-07 5.77003e-11 -9.44315e-09 2.5173e-06)
(2.88418e-05 -7.18622e-07 -4.33232e-07 1.94917e-08 4.4166e-08 1.43071e-06)
(2.46752e-08 -5.08534e-09 1.23866e-07 5.62461e-07 -1.5656e-06 9.23267e-06)
(2.33798e-05 1.07183e-06 -9.51173e-07 6.2533e-08 8.4655e-08 2.84597e-06)
(1.33976e-06 2.27625e-09 2.95925e-07 3.98381e-10 -3.16867e-08 4.29805e-06)
(7.89145e-08 1.17189e-09 5.80532e-08 3.43102e-11 2.13493e-10 1.13963e-06)
(4.21636e-08 6.62642e-10 5.57007e-08 1.93613e-11 -4.6185e-12 1.5505e-06)
(1.05975e-08 1.56617e-10 -7.30477e-09 4.62199e-12 -3.65471e-10 1.49676e-06)
(5.4455e-09 9.78368e-11 -1.39597e-08 4.22125e-12 -4.24917e-10 1.50301e-06)
(7.27049e-09 1.48541e-12 -5.8795e-08 4.52319e-12 -6.50311e-11 1.57416e-06)
(1.06922e-08 1.71613e-12 -9.5623e-08 3.38414e-12 -4.48749e-10 1.72914e-06)
(1.10769e-08 -1.70962e-11 -1.10186e-07 3.29388e-12 -7.03984e-10 1.78787e-06)
(1.68226e-08 -3.07348e-11 -1.15725e-07 3.05171e-12 -1.00866e-09 1.88538e-06)
(1.98514e-08 -9.11171e-11 -1.25792e-07 3.05983e-12 -4.55341e-10 1.84524e-06)
(5.01435e-08 -4.4127e-10 -1.83052e-07 2.13712e-11 -1.98744e-09 2.08353e-06)
(7.28749e-08 -1.16802e-09 1.89696e-08 3.42757e-11 -1.59891e-09 1.8951e-06)
(1.32151e-06 -2.81833e-09 -1.64237e-07 4.22728e-10 -4.23914e-08 6.70465e-06)
(2.34873e-05 -1.07329e-06 1.53955e-06 6.26716e-08 8.18339e-08 3.63777e-06)
(4.14967e-08 3.68675e-09 2.23977e-07 1.53176e-06 -3.13785e-06 1.36509e-05)
(2.04418e-05 1.27407e-06 -2.99048e-06 1.31942e-07 1.24526e-07 5.09266e-06)
(1.18901e-06 -3.46705e-09 4.64421e-07 1.35121e-09 -8.32055e-08 8.00205e-06)
(8.35315e-08 1.32557e-09 8.35954e-08 8.95054e-11 8.74251e-11 2.01282e-06)
(3.91565e-08 6.86759e-10 8.26846e-08 4.082e-11 -9.27697e-11 2.77182e-06)
(1.16959e-08 2.27511e-10 -1.82931e-08 1.29343e-11 -8.96461e-10 2.69812e-06)
(7.86922e-09 1.75293e-10 -3.01501e-08 1.25887e-11 -9.89915e-10 2.70378e-06)
(1.2673e-08 -1.15898e-11 -1.04824e-07 1.38377e-11 -2.15363e-10 2.8282e-06)
(1.76649e-08 1.42021e-11 -1.61256e-07 9.73163e-12 -1.09514e-09 3.0936e-06)
(1.72308e-08 -9.34859e-12 -1.84802e-07 9.9069e-12 -1.78586e-09 3.19997e-06)
(2.49559e-08 -2.87132e-11 -1.92089e-07 8.5523e-12 -2.39055e-09 3.37159e-06)
(2.53735e-08 -8.50125e-11 -2.08994e-07 6.99745e-12 -1.08578e-09 3.29742e-06)
(5.18414e-08 -2.29082e-10 -2.97976e-07 4.58147e-11 -4.83794e-09 3.75185e-06)
(7.37187e-08 -1.37356e-09 5.70452e-08 9.00503e-11 -3.7221e-09 3.40889e-06)
(1.16414e-06 2.15244e-09 -2.53553e-07 1.42602e-09 -1.1051e-07 1.25845e-05)
(2.05601e-05 -1.27555e-06 3.99676e-06 1.32215e-07 1.19193e-07 6.6072e-06)
(5.9726e-08 -4.20598e-09 3.37899e-07 1.90925e-06 -3.41479e-06 2.07994e-05)
(2.17748e-05 1.55866e-06 -4.84053e-06 2.24819e-07 1.73849e-07 7.66945e-06)
(1.14921e-06 -1.32939e-08 6.2166e-07 3.38294e-09 -1.66564e-07 1.24972e-05)
(1.04975e-07 1.43621e-09 1.10072e-07 1.89286e-10 -2.86641e-10 2.97836e-06)
(3.99169e-08 7.10771e-10 1.06524e-07 7.26481e-11 -6.8324e-10 4.14378e-06)
(1.30651e-08 2.86039e-10 -3.06608e-08 2.82567e-11 -1.95765e-09 4.06048e-06)
(1.01009e-08 2.5659e-10 -5.01343e-08 2.81209e-11 -2.03656e-09 4.05917e-06)
(1.87069e-08 -3.45045e-11 -1.54994e-07 3.10697e-11 -6.60221e-10 4.23966e-06)
(2.47332e-08 3.58627e-11 -2.27362e-07 2.24519e-11 -2.003e-09 4.61856e-06)
(2.26396e-08 1.44841e-11 -2.60143e-07 2.31298e-11 -3.31237e-09 4.78149e-06)
(3.12581e-08 -2.32057e-11 -2.67713e-07 1.92848e-11 -4.28847e-09 5.03572e-06)
(3.00062e-08 -7.56179e-11 -2.91917e-07 1.46806e-11 -1.89325e-09 4.92437e-06)
(5.75241e-08 -6.4683e-12 -4.05564e-07 8.31274e-11 -9.34401e-09 5.67105e-06)
(9.08516e-08 -1.56319e-09 1.08923e-07 1.89757e-10 -6.72562e-09 5.13968e-06)
(1.11905e-06 1.10839e-08 -3.32926e-07 3.54535e-09 -2.20677e-07 1.98231e-05)
(2.18598e-05 -1.5601e-06 6.29345e-06 2.25275e-07 1.64447e-07 1.00737e-05)
(7.80051e-08 -3.57753e-09 4.59165e-07 3.04297e-06 -4.59813e-06 2.99954e-05)
(2.40013e-05 1.90685e-06 -6.49798e-06 3.43991e-07 2.37936e-07 1.03226e-05)
(1.12907e-06 -2.25965e-08 7.13449e-07 6.84448e-09 -2.82539e-07 1.75001e-05)
(1.33315e-07 1.28685e-09 1.31346e-07 3.3189e-10 -1.15497e-09 3.94549e-06)
(3.84427e-08 7.03232e-10 1.23354e-07 1.16993e-10 -1.69145e-09 5.5419e-06)
(1.37732e-08 2.75085e-10 -4.12228e-08 5.15677e-11 -3.52745e-09 5.45863e-06)
(1.17846e-08 2.96905e-10 -7.06564e-08 5.09989e-11 -3.55898e-09 5.44142e-06)
(2.48734e-08 -8.07315e-11 -2.03243e-07 5.58447e-11 -1.53318e-09 5.67311e-06)
(3.1333e-08 8.60364e-11 -2.86503e-07 3.98004e-11 -3.38373e-09 6.15492e-06)
(2.67914e-08 9.40018e-11 -3.28291e-07 4.2156e-11 -5.46046e-09 6.38022e-06)
(3.47847e-08 4.17649e-11 -3.34158e-07 3.47591e-11 -6.82885e-09 6.72003e-06)
(3.25871e-08 -4.11304e-12 -3.64731e-07 2.57147e-11 -3.10904e-09 6.57468e-06)
(6.0665e-08 2.35901e-10 -4.87841e-07 1.36256e-10 -1.56342e-08 7.69435e-06)
(1.14284e-07 -1.57595e-09 1.771e-07 3.32113e-10 -1.04512e-08 6.94344e-06)
(1.09637e-06 1.95968e-08 -3.54381e-07 7.14288e-09 -3.73973e-07 2.80044e-05)
(2.40042e-05 -1.90812e-06 8.38604e-06 3.44665e-07 2.2384e-07 1.37206e-05)
(9.52799e-08 -7.40544e-09 5.82692e-07 4.1526e-06 -5.41444e-06 4.03814e-05)
(2.60423e-05 2.28346e-06 -7.91266e-06 4.8821e-07 3.15876e-07 1.28554e-05)
(1.10187e-06 -2.96539e-08 6.99687e-07 1.19962e-08 -4.29416e-07 2.26838e-05)
(1.65372e-07 8.14287e-10 1.44476e-07 5.32828e-10 -2.00262e-09 4.834e-06)
(3.42342e-08 6.69438e-10 1.31922e-07 1.75353e-10 -2.66423e-09 6.85195e-06)
(1.40745e-08 1.56407e-10 -4.68488e-08 8.18013e-11 -5.43923e-09 6.77747e-06)
(1.29509e-08 2.68536e-10 -8.83989e-08 7.9838e-11 -5.41474e-09 6.73457e-06)
(3.08106e-08 -1.52151e-10 -2.44591e-07 8.59402e-11 -2.83229e-09 7.00709e-06)
(3.71391e-08 1.63543e-10 -3.33491e-07 6.0623e-11 -5.06049e-09 7.57186e-06)
(2.96222e-08 2.39758e-10 -3.83622e-07 6.59322e-11 -8.02226e-09 7.8619e-06)
(3.55777e-08 1.78927e-10 -3.85504e-07 5.46691e-11 -9.70536e-09 8.28591e-06)
(3.36556e-08 1.37722e-10 -4.20393e-07 4.0347e-11 -4.49011e-09 8.11571e-06)
(6.02895e-08 4.29915e-10 -5.33012e-07 2.05237e-10 -2.2705e-08 9.68268e-06)
(1.40617e-07 -1.33365e-09 2.60391e-07 5.29536e-10 -1.39542e-08 8.68816e-06)
(1.06919e-06 2.62327e-08 -2.80213e-07 1.24531e-08 -5.67624e-07 3.66185e-05)
(2.59191e-05 -2.28424e-06 1.01875e-05 4.89124e-07 2.9686e-07 1.72866e-05)
(1.10809e-07 -1.1953e-08 7.0376e-07 5.44138e-06 -6.01797e-06 5.0714e-05)
(2.7365e-05 2.65208e-06 -9.08044e-06 6.56219e-07 4.04009e-07 1.51696e-05)
(1.06175e-06 -3.2931e-08 5.58988e-07 1.90114e-08 -6.0316e-07 2.77286e-05)
(1.99265e-07 -1.03983e-10 1.47792e-07 7.94628e-10 -2.92692e-09 5.58686e-06)
(2.86798e-08 5.96977e-10 1.32623e-07 2.48103e-10 -3.71474e-09 7.98705e-06)
(1.46661e-08 -7.87739e-11 -4.54355e-08 1.18887e-10 -7.58937e-09 7.92944e-06)
(1.38535e-08 1.70411e-10 -1.00791e-07 1.15147e-10 -7.47191e-09 7.8526e-06)
(3.62855e-08 -2.38423e-10 -2.75875e-07 1.21897e-10 -4.42072e-09 8.15366e-06)
(4.20397e-08 2.60751e-10 -3.65774e-07 8.60267e-11 -6.80845e-09 8.77943e-06)
(3.14161e-08 4.37485e-10 -4.23143e-07 9.61599e-11 -1.06422e-08 9.13341e-06)
(3.44016e-08 3.63791e-10 -4.18771e-07 8.02311e-11 -1.25187e-08 9.63805e-06)
(3.45411e-08 3.44467e-10 -4.55155e-07 5.92305e-11 -5.7057e-09 9.45729e-06)
(5.74198e-08 5.5208e-10 -5.36255e-07 2.85724e-10 -2.988e-08 1.1533e-05)
(1.67782e-07 -6.67143e-10 3.56352e-07 7.86203e-10 -1.66548e-08 1.02836e-05)
(1.03047e-06 2.96804e-08 -8.81725e-08 1.96013e-08 -7.95438e-07 4.51443e-05)
(2.70868e-05 -2.65208e-06 1.16652e-05 6.5739e-07 3.80475e-07 2.06255e-05)
(1.24162e-07 -1.80524e-08 8.16922e-07 6.92954e-06 -6.31289e-06 5.97702e-05)
(2.77127e-05 2.97593e-06 -1.00296e-05 8.44305e-07 4.95612e-07 1.72651e-05)
(1.01676e-06 -3.14851e-08 2.91431e-07 2.7977e-08 -7.98304e-07 3.24095e-05)
(2.33599e-07 -1.51486e-09 1.40247e-07 1.11385e-09 -3.92623e-09 6.18066e-06)
(2.38965e-08 4.83459e-10 1.26786e-07 3.34844e-10 -5.06492e-09 8.90371e-06)
(1.63334e-08 -4.28527e-10 -3.6293e-08 1.62566e-10 -1.00734e-08 8.87112e-06)
(1.48495e-08 5.46888e-12 -1.06409e-07 1.57158e-10 -9.83123e-09 8.75514e-06)
(4.11942e-08 -3.23984e-10 -2.95851e-07 1.63396e-10 -6.45173e-09 9.07445e-06)
(4.61014e-08 3.87731e-10 -3.83327e-07 1.16507e-10 -8.76965e-09 9.74479e-06)
(3.26492e-08 6.95269e-10 -4.46557e-07 1.33787e-10 -1.33671e-08 1.01607e-05)
(3.24082e-08 6.1022e-10 -4.34034e-07 1.12602e-10 -1.53046e-08 1.07436e-05)
(3.67494e-08 6.50004e-10 -4.68646e-07 8.33841e-11 -6.87657e-09 1.05713e-05)
(5.39901e-08 6.40239e-10 -4.99462e-07 3.75948e-10 -3.71111e-08 1.32091e-05)
(1.94354e-07 4.88325e-10 4.62867e-07 1.10151e-09 -1.84657e-08 1.17065e-05)
(9.86551e-07 2.91467e-08 2.25104e-07 2.86406e-08 -1.05033e-06 5.32124e-05)
(2.72717e-05 -2.97528e-06 1.28317e-05 8.45775e-07 4.6823e-07 2.37187e-05)
(1.35192e-07 -2.50268e-08 9.16787e-07 8.56943e-06 -6.31457e-06 6.69623e-05)
(2.71817e-05 3.25097e-06 -1.07638e-05 1.05014e-06 5.86012e-07 1.9178e-05)
(9.78223e-07 -2.46487e-08 -8.61948e-08 3.87962e-08 -1.00821e-06 3.66261e-05)
(2.67638e-07 -3.34719e-09 1.21482e-07 1.48478e-09 -4.92232e-09 6.62189e-06)
(2.19536e-08 3.54278e-10 1.15865e-07 4.35156e-10 -6.91463e-09 9.60028e-06)
(1.96888e-08 -8.78822e-10 -1.9858e-08 2.12827e-10 -1.30355e-08 9.60008e-06)
(1.62744e-08 -2.16046e-10 -1.04866e-07 2.06373e-10 -1.26555e-08 9.442e-06)
(4.55405e-08 -3.93534e-10 -3.04564e-07 2.10449e-10 -9.12561e-09 9.77239e-06)
(4.94949e-08 5.52102e-10 -3.8763e-07 1.52909e-10 -1.11584e-08 1.04785e-05)
(3.37892e-08 1.02132e-09 -4.55266e-07 1.80073e-10 -1.63643e-08 1.09555e-05)
(3.07031e-08 9.32442e-10 -4.33125e-07 1.53425e-10 -1.8235e-08 1.16184e-05)
(4.14199e-08 1.08592e-09 -4.62403e-07 1.14294e-10 -8.22772e-09 1.14772e-05)
(5.206e-08 7.20845e-10 -4.28054e-07 4.75486e-10 -4.44788e-08 1.47315e-05)
(2.19771e-07 2.07384e-09 5.78402e-07 1.47343e-09 -1.9412e-08 1.29841e-05)
(9.47247e-07 2.40253e-08 6.47166e-07 3.94403e-08 -1.32415e-06 6.06646e-05)
(2.65897e-05 -3.25009e-06 1.36887e-05 1.05191e-06 5.55489e-07 2.6606e-05)
(1.43981e-07 -3.25837e-08 9.99643e-07 1.03254e-05 -6.09168e-06 7.24099e-05)
(2.60814e-05 3.49886e-06 -1.12459e-05 1.26827e-06 6.7325e-07 2.09236e-05)
(9.52152e-07 -1.19213e-08 -5.53046e-07 5.13609e-08 -1.23145e-06 4.05294e-05)
(3.01159e-07 -5.37729e-09 9.2029e-08 1.91536e-09 -5.82071e-09 6.93165e-06)
(2.42463e-08 2.61584e-10 1.00951e-07 5.49103e-10 -9.39495e-09 1.00973e-05)
(2.50522e-08 -1.40748e-09 2.88389e-09 2.69767e-10 -1.66029e-08 1.01346e-05)
(1.83575e-08 -4.7972e-10 -9.64427e-08 2.6364e-10 -1.60791e-08 9.93184e-06)
(4.93951e-08 -4.33947e-10 -3.02683e-07 2.63644e-10 -1.25953e-08 1.02681e-05)
(5.2417e-08 7.57055e-10 -3.80616e-07 1.96872e-10 -1.41439e-08 1.10062e-05)
(3.51657e-08 1.41775e-09 -4.51139e-07 2.36975e-10 -1.97631e-08 1.15459e-05)
(3.00557e-08 1.33645e-09 -4.18122e-07 2.04995e-10 -2.14512e-08 1.22942e-05)
(4.90978e-08 1.67297e-09 -4.38257e-07 1.54226e-10 -9.9312e-09 1.22088e-05)
(5.31313e-08 7.88982e-10 -3.27667e-07 5.84942e-10 -5.19687e-08 1.61389e-05)
(2.44097e-07 3.8798e-09 7.01355e-07 1.91409e-09 -1.95533e-08 1.4156e-05)
(9.17604e-07 1.38074e-08 1.16101e-06 5.18606e-08 -1.61499e-06 6.77093e-05)
(2.53618e-05 -3.4981e-06 1.42064e-05 1.27033e-06 6.40336e-07 2.93079e-05)
(1.50779e-07 -4.02957e-08 1.06416e-06 1.21593e-05 -5.73324e-06 7.65201e-05)
(2.4653e-05 3.73669e-06 -1.14483e-05 1.49069e-06 7.55986e-07 2.25043e-05)
(9.44902e-07 6.51126e-09 -1.09144e-06 6.55239e-08 -1.46527e-06 4.41687e-05)
(3.33913e-07 -7.34054e-09 5.17255e-08 2.42642e-09 -6.54662e-09 7.15597e-06)
(3.12651e-08 2.52225e-10 8.24886e-08 6.78441e-10 -1.27745e-08 1.04485e-05)
(3.24906e-08 -1.99975e-09 3.16824e-08 3.34991e-10 -2.10454e-08 1.05272e-05)
(2.12305e-08 -7.76948e-10 -8.11893e-08 3.31104e-10 -2.03487e-08 1.02722e-05)
(5.28795e-08 -4.40367e-10 -2.90553e-07 3.24909e-10 -1.70946e-08 1.0609e-05)
(5.50649e-08 1.00245e-09 -3.63849e-07 2.50641e-10 -1.79458e-08 1.13754e-05)
(3.69687e-08 1.88594e-09 -4.36008e-07 3.06947e-10 -2.37781e-08 1.19843e-05)
(3.0874e-08 1.82748e-09 -3.90835e-07 2.70079e-10 -2.51889e-08 1.28341e-05)
(5.98402e-08 2.42586e-09 -3.97575e-07 2.06001e-10 -1.22484e-08 1.28372e-05)
(5.78374e-08 8.35065e-10 -2.02059e-07 7.09483e-10 -6.01495e-08 1.75668e-05)
(2.67291e-07 5.63481e-09 8.34175e-07 2.44827e-09 -1.91628e-08 1.53361e-05)
(9.03497e-07 -1.35989e-09 1.7521e-06 6.57537e-08 -1.92157e-06 7.45129e-05)
(2.38343e-05 -3.73648e-06 1.43735e-05 1.49314e-06 7.2118e-07 3.18622e-05)
(1.55938e-07 -4.78283e-08 1.11064e-06 1.40911e-05 -5.32553e-06 7.97549e-05)
(2.3019e-05 3.97768e-06 -1.13042e-05 1.72063e-06 8.35067e-07 2.37386e-05)
(9.57255e-07 2.99255e-08 -1.67257e-06 8.09236e-08 -1.69669e-06 4.71818e-05)
(3.65432e-07 -9.08992e-09 1.44988e-09 3.02121e-09 -7.02724e-09 7.29765e-06)
(4.29097e-08 3.42954e-10 6.02636e-08 8.25541e-10 -1.70892e-08 1.06539e-05)
(4.19439e-08 -2.64708e-09 6.56197e-08 4.10218e-10 -2.63891e-08 1.07733e-05)
(2.49613e-08 -1.1037e-09 -5.96992e-08 4.11217e-10 -2.5501e-08 1.04568e-05)
(5.61231e-08 -4.12227e-10 -2.6896e-07 3.96798e-10 -2.26556e-08 1.07866e-05)
(5.75974e-08 1.28575e-09 -3.383e-07 3.17436e-10 -2.26089e-08 1.15748e-05)
(3.92882e-08 2.42334e-09 -4.1023e-07 3.93141e-10 -2.84265e-08 1.22635e-05)
(3.33131e-08 2.40534e-09 -3.51066e-07 3.52162e-10 -2.94962e-08 1.32328e-05)
(7.34967e-08 3.35249e-09 -3.39526e-07 2.73382e-10 -1.52329e-08 1.33561e-05)
(6.62015e-08 8.57526e-10 -5.16074e-08 8.53987e-10 -6.89864e-08 1.90045e-05)
(2.89043e-07 7.19539e-09 9.75303e-07 3.08232e-09 -1.8335e-08 1.65219e-05)
(9.0561e-07 -2.0801e-08 2.39202e-06 8.07394e-08 -2.22961e-06 8.05611e-05)
(2.21314e-05 -3.9782e-06 1.41317e-05 1.72351e-06 7.98498e-07 3.40636e-05)
(1.59812e-07 -5.50004e-08 1.14002e-06 1.60753e-05 -4.96832e-06 8.26458e-05)
(2.11952e-05 4.20481e-06 -1.07805e-05 1.95982e-06 9.09799e-07 2.43916e-05)
(9.83628e-07 5.74935e-08 -2.25852e-06 9.72151e-08 -1.91367e-06 4.92712e-05)
(3.94824e-07 -1.0584e-08 -5.60648e-08 3.67742e-09 -7.28662e-09 7.329e-06)
(5.869e-08 5.14428e-10 3.46406e-08 9.92702e-10 -2.21821e-08 1.06769e-05)
(5.32104e-08 -3.33879e-09 1.02246e-07 4.97241e-10 -3.24874e-08 1.08294e-05)
(2.95578e-08 -1.45622e-09 -3.37233e-08 5.06588e-10 -3.14307e-08 1.04472e-05)
(5.92276e-08 -3.52572e-10 -2.39973e-07 4.82281e-10 -2.91796e-08 1.07608e-05)
(6.0129e-08 1.60237e-09 -3.05644e-07 4.01068e-10 -2.81412e-08 1.15616e-05)
(4.21742e-08 3.02368e-09 -3.74309e-07 4.99214e-10 -3.37106e-08 1.23362e-05)
(3.74303e-08 3.06447e-09 -2.98951e-07 4.55263e-10 -3.44151e-08 1.34314e-05)
(8.9797e-08 4.45108e-09 -2.64576e-07 3.60903e-10 -1.89549e-08 1.36939e-05)
(7.7965e-08 8.80928e-10 1.20247e-07 1.02413e-09 -7.8046e-08 2.02814e-05)
(3.08763e-07 8.51892e-09 1.11631e-06 3.79606e-09 -1.73744e-08 1.75791e-05)
(9.18697e-07 -4.37745e-08 3.04e-06 9.64634e-08 -2.52357e-06 8.52649e-05)
(2.02716e-05 -4.20627e-06 1.34475e-05 1.96313e-06 8.71619e-07 3.55728e-05)
(1.6273e-07 -6.16205e-08 1.15301e-06 1.79946e-05 -4.76237e-06 8.52906e-05)
(1.92215e-05 4.39854e-06 -9.93575e-06 2.20629e-06 9.77719e-07 2.44141e-05)
(1.01968e-06 8.80704e-08 -2.81349e-06 1.14075e-07 -2.10827e-06 5.03618e-05)
(4.21014e-07 -1.18078e-08 -1.1872e-07 4.37241e-09 -7.3569e-09 7.26444e-06)
(7.78412e-08 7.34032e-10 6.45262e-09 1.1826e-09 -2.79747e-08 1.05351e-05)
(6.59178e-08 -4.06414e-09 1.39509e-07 5.99341e-10 -3.92744e-08 1.07108e-05)
(3.49618e-08 -1.8324e-09 -4.97705e-09 6.20952e-10 -3.80897e-08 1.02598e-05)
(6.22743e-08 -2.70729e-10 -2.0588e-07 5.85397e-10 -3.65952e-08 1.05486e-05)
(6.27443e-08 1.94226e-09 -2.68166e-07 5.0568e-10 -3.4574e-08 1.13505e-05)
(4.56233e-08 3.67225e-09 -3.30313e-07 6.28949e-10 -3.9721e-08 1.22105e-05)
(4.31653e-08 3.78764e-09 -2.36721e-07 5.83464e-10 -4.00954e-08 1.3432e-05)
(1.08225e-07 5.6952e-09 -1.75894e-07 4.73159e-10 -2.35906e-08 1.3847e-05)
(9.26733e-08 9.24974e-10 3.0695e-07 1.22846e-09 -8.74882e-08 2.13502e-05)
(3.25739e-07 9.57035e-09 1.2519e-06 4.56863e-09 -1.68628e-08 1.8469e-05)
(9.39108e-07 -6.93047e-08 3.6584e-06 1.12639e-07 -2.79396e-06 8.84248e-05)
(1.82963e-05 -4.40135e-06 1.2387e-05 2.21007e-06 9.37908e-07 3.62764e-05)
(1.65005e-07 -6.75709e-08 1.14959e-06 1.9884e-05 -4.62268e-06 8.72289e-05)
(1.71993e-05 4.55934e-06 -8.84552e-06 2.46175e-06 1.03717e-06 2.38142e-05)
(1.06152e-06 1.2025e-07 -3.30645e-06 1.31171e-07 -2.27396e-06 5.04543e-05)
(4.43252e-07 -1.27173e-08 -1.84458e-07 5.11089e-09 -7.21336e-09 7.12285e-06)
(9.94579e-08 9.7996e-10 -2.33168e-08 1.3995e-09 -3.42788e-08 1.02535e-05)
(7.96124e-08 -4.81121e-09 1.75548e-07 7.20686e-10 -4.65868e-08 1.04422e-05)
(4.10589e-08 -2.22975e-09 2.48507e-08 7.58837e-10 -4.53301e-08 9.92101e-06)
(6.53213e-08 -1.78282e-10 -1.68969e-07 7.11139e-10 -4.47338e-08 1.01777e-05)
(6.54919e-08 2.29235e-09 -2.28131e-07 6.3642e-10 -4.18161e-08 1.09701e-05)
(4.95681e-08 4.34681e-09 -2.80558e-07 7.86803e-10 -4.64309e-08 1.1913e-05)
(5.03176e-08 4.5461e-09 -1.67098e-07 7.41655e-10 -4.65781e-08 1.32582e-05)
(1.28111e-07 7.04041e-09 -7.70281e-08 6.15794e-10 -2.91884e-08 1.38341e-05)
(1.09737e-07 9.84158e-10 5.01525e-07 1.47705e-09 -9.73803e-08 2.22011e-05)
(3.39532e-07 1.02907e-08 1.37902e-06 5.4063e-09 -1.71861e-08 1.91897e-05)
(9.63869e-07 -9.61807e-08 4.21456e-06 1.28969e-07 -3.0331e-06 8.99901e-05)
(1.63046e-05 -4.56374e-06 1.10416e-05 2.46605e-06 9.95387e-07 3.61571e-05)
(1.66903e-07 -7.28652e-08 1.13046e-06 2.1864e-05 -4.40448e-06 8.81365e-05)
(1.51987e-05 4.682e-06 -7.5963e-06 2.72532e-06 1.08617e-06 2.26479e-05)
(1.10454e-06 1.52621e-07 -3.7134e-06 1.48198e-07 -2.40616e-06 4.96097e-05)
(4.61041e-07 -1.32708e-08 -2.51152e-07 5.89998e-09 -6.82972e-09 6.92252e-06)
(1.22513e-07 1.23276e-09 -5.3549e-08 1.64843e-09 -4.08656e-08 9.85843e-06)
(9.37924e-08 -5.56931e-09 2.08798e-07 8.6659e-10 -5.42486e-08 1.00513e-05)
(4.76893e-08 -2.64676e-09 5.42224e-08 9.25855e-10 -5.29771e-08 9.46017e-06)
(6.84004e-08 -8.9848e-11 -1.31367e-07 8.6581e-10 -5.3387e-08 9.67927e-06)
(6.83854e-08 2.63723e-09 -1.87613e-07 7.99574e-10 -4.97285e-08 1.04532e-05)
(5.3889e-08 5.02141e-09 -2.27357e-07 9.78465e-10 -5.3766e-08 1.14757e-05)
(5.85737e-08 5.30377e-09 -9.29275e-08 9.35809e-10 -5.38625e-08 1.29387e-05)
(1.48689e-07 8.43155e-09 2.82528e-08 7.95651e-10 -3.57462e-08 1.36789e-05)
(1.2842e-07 1.04017e-09 6.97031e-07 1.78095e-09 -1.07768e-07 2.28341e-05)
(3.49911e-07 1.06263e-08 1.4952e-06 6.31882e-09 -1.8647e-08 1.97474e-05)
(9.8942e-07 -1.23195e-07 4.68253e-06 1.4519e-07 -3.23543e-06 9.00057e-05)
(1.43621e-05 -4.68815e-06 9.5127e-06 2.7302e-06 1.04188e-06 3.52607e-05)
(1.68636e-07 -7.74958e-08 1.09762e-06 2.39525e-05 -4.10286e-06 8.80065e-05)
(1.3259e-05 4.75634e-06 -6.27863e-06 2.99459e-06 1.12296e-06 2.10231e-05)
(1.14411e-06 1.83874e-07 -4.01923e-06 1.64882e-07 -2.5026e-06 4.79491e-05)
(4.74018e-07 -1.34766e-08 -3.16659e-07 6.73858e-09 -6.22544e-09 6.68106e-06)
(1.4589e-07 1.46804e-09 -8.30506e-08 1.93348e-09 -4.75808e-08 9.37751e-06)
(1.07927e-07 -6.33089e-09 2.38115e-07 1.04405e-09 -6.21023e-08 9.56728e-06)
(5.46575e-08 -3.08349e-09 8.18794e-08 1.12906e-09 -6.08688e-08 8.90911e-06)
(7.15167e-08 -2.12688e-11 -9.48935e-08 1.05723e-09 -6.23518e-08 9.08747e-06)
(7.14078e-08 2.9609e-09 -1.48422e-07 1.00276e-09 -5.8148e-08 9.83566e-06)
(5.84267e-08 5.66997e-09 -1.72999e-07 1.21114e-09 -6.1628e-08 1.09333e-05)
(6.75369e-08 6.02201e-09 -1.71391e-08 1.17315e-09 -6.19272e-08 1.25052e-05)
(1.69136e-07 9.80865e-09 1.35964e-07 1.02097e-09 -4.32486e-08 1.34075e-05)
(1.47858e-07 1.06875e-09 8.86778e-07 2.1505e-09 -1.18832e-07 2.32571e-05)
(3.56733e-07 1.05728e-08 1.59821e-06 7.30842e-09 -2.15426e-08 2.01523e-05)
(1.01215e-06 -1.49255e-07 5.04534e-06 1.61088e-07 -3.39802e-06 8.86121e-05)
(1.25028e-05 -4.7643e-06 7.90329e-06 3.00014e-06 1.07553e-06 3.36962e-05)
(1.70362e-07 -8.13779e-08 1.05367e-06 2.61199e-05 -3.72644e-06 8.69774e-05)
(1.13974e-05 4.76827e-06 -4.978e-06 3.26618e-06 1.14657e-06 1.90891e-05)
(1.1761e-06 2.12847e-07 -4.21846e-06 1.80969e-07 -2.56328e-06 4.56432e-05)
(4.81998e-07 -1.33758e-08 -3.78714e-07 7.61144e-09 -5.57224e-09 6.41551e-06)
(1.68471e-07 1.66165e-09 -1.10664e-07 2.25993e-09 -5.42731e-08 8.84098e-06)
(1.21489e-07 -7.09236e-09 2.62936e-07 1.26135e-09 -7.00849e-08 9.02223e-06)
(6.17441e-08 -3.54183e-09 1.06973e-07 1.37678e-09 -6.88964e-08 8.303e-06)
(7.46513e-08 1.01713e-11 -6.09142e-08 1.29526e-09 -7.14306e-08 8.43966e-06)
(7.45168e-08 3.24857e-09 -1.12029e-07 1.25528e-09 -6.68947e-08 9.1559e-06)
(6.29968e-08 6.27048e-09 -1.19765e-07 1.49385e-09 -6.98976e-08 1.03217e-05)
(7.67586e-08 6.66412e-09 5.72523e-08 1.46198e-09 -7.07601e-08 1.19904e-05)
(1.88623e-07 1.11117e-08 2.4184e-07 1.30116e-09 -5.17274e-08 1.30471e-05)
(1.67125e-07 1.03952e-09 1.06456e-06 2.59769e-09 -1.30814e-07 2.34873e-05)
(3.59988e-07 1.01599e-08 1.6858e-06 8.36497e-09 -2.63181e-08 2.04144e-05)
(1.0289e-06 -1.73408e-07 5.29586e-06 1.76473e-07 -3.5204e-06 8.60377e-05)
(1.07378e-05 -4.77804e-06 6.30856e-06 3.2725e-06 1.09533e-06 3.16272e-05)
(1.72184e-07 -8.44174e-08 1.00162e-06 2.83629e-05 -3.30367e-06 8.52751e-05)
(9.61977e-06 4.70251e-06 -3.76441e-06 3.53633e-06 1.15671e-06 1.70032e-05)
(1.19733e-06 2.38568e-07 -4.31437e-06 1.96226e-07 -2.59007e-06 4.28823e-05)
(4.85156e-07 -1.30361e-08 -4.34343e-07 8.49032e-09 -4.99425e-09 6.13974e-06)
(1.89244e-07 1.78649e-09 -1.35375e-07 2.63211e-09 -6.08368e-08 8.28154e-06)
(1.34009e-07 -7.8517e-09 2.83453e-07 1.52739e-09 -7.80734e-08 8.4496e-06)
(6.87221e-08 -4.02294e-09 1.29161e-07 1.67803e-09 -7.69155e-08 7.67853e-06)
(7.77666e-08 -8.42308e-12 -3.01848e-08 1.58943e-09 -8.04301e-08 7.77309e-06)
(7.76528e-08 3.48842e-09 -7.94789e-08 1.5661e-09 -7.58275e-08 8.44898e-06)
(6.74091e-08 6.80034e-09 -6.99069e-08 1.83521e-09 -7.85008e-08 9.6711e-06)
(8.578e-08 7.19636e-09 1.27104e-07 1.81168e-09 -8.03065e-08 1.14208e-05)
(2.06396e-07 1.22874e-08 3.411e-07 1.64659e-09 -6.11149e-08 1.26155e-05)
(1.85338e-07 9.28053e-10 1.22448e-06 3.13295e-09 -1.43815e-07 2.3535e-05)
(3.59947e-07 9.4364e-09 1.75498e-06 9.46655e-09 -3.31573e-08 2.0526e-05)
(1.0372e-06 -1.94867e-07 5.43547e-06 1.91184e-07 -3.60381e-06 8.25444e-05)
(9.06695e-06 -4.71396e-06 4.80625e-06 3.54347e-06 1.10101e-06 2.92368e-05)
(1.74161e-07 -8.65496e-08 9.44324e-07 3.06452e-05 -2.8755e-06 8.31054e-05)
(7.9336e-06 4.54575e-06 -2.68344e-06 3.80139e-06 1.15376e-06 1.4883e-05)
(1.20574e-06 2.60299e-07 -4.3164e-06 2.10447e-07 -2.58588e-06 3.98392e-05)
(4.84124e-07 -1.24196e-08 -4.7904e-07 9.38351e-09 -4.67883e-09 5.85504e-06)
(2.0745e-07 1.82881e-09 -1.55917e-07 3.05352e-09 -6.70795e-08 7.72563e-06)
(1.45121e-07 -8.60109e-09 3.00466e-07 1.84935e-09 -8.60132e-08 7.86765e-06)
(7.53838e-08 -4.52604e-09 1.48516e-07 2.04075e-09 -8.47954e-08 7.05975e-06)
(8.08162e-08 -8.5536e-11 -3.05988e-09 1.94946e-09 -8.91085e-08 7.11117e-06)
(8.07502e-08 3.67603e-09 -5.13932e-08 1.94419e-09 -8.47469e-08 7.73543e-06)
(7.14965e-08 7.2429e-09 -2.52405e-08 2.24415e-09 -8.73031e-08 8.99515e-06)
(9.41913e-08 7.58314e-09 1.88945e-07 2.23172e-09 -9.05751e-08 1.07935e-05)
(2.21874e-07 1.32636e-08 4.27686e-07 2.06699e-09 -7.15664e-08 1.20846e-05)
(2.01796e-07 6.8909e-10 1.36004e-06 3.76979e-09 -1.5771e-07 2.33571e-05)
(3.57234e-07 8.33653e-09 1.80143e-06 1.06286e-08 -4.24282e-08 2.04318e-05)
(1.03546e-06 -2.13031e-07 5.47153e-06 2.05088e-07 -3.65043e-06 7.8379e-05)
(7.49176e-06 -4.55868e-06 3.44945e-06 3.80939e-06 1.09301e-06 2.66714e-05)
(1.7631e-07 -8.77091e-08 8.83998e-07 3.28771e-05 -2.47724e-06 8.05546e-05)
(6.35612e-06 4.2899e-06 -1.76041e-06 4.05804e-06 1.13865e-06 1.27864e-05)
(1.20037e-06 2.77544e-07 -4.23735e-06 2.23478e-07 -2.55387e-06 3.66501e-05)
(4.79676e-07 -1.1443e-08 -5.10445e-07 1.03258e-08 -4.62897e-09 5.54018e-06)
(2.22658e-07 1.82374e-09 -1.68755e-07 3.53139e-09 -7.27046e-08 7.15434e-06)
(1.54622e-07 -9.35131e-09 3.12843e-07 2.23614e-09 -9.36134e-08 7.2861e-06)
(8.15788e-08 -5.05693e-09 1.64403e-07 2.47419e-09 -9.22355e-08 6.45958e-06)
(8.3753e-08 -2.2608e-10 2.00424e-08 2.38414e-09 -9.72064e-08 6.46858e-06)
(8.37472e-08 3.8101e-09 -2.8024e-08 2.39918e-09 -9.33538e-08 7.03612e-06)
(7.51328e-08 7.5868e-09 1.38791e-08 2.73009e-09 -9.60452e-08 8.31867e-06)
(1.01691e-07 7.80665e-09 2.4239e-07 2.7344e-09 -1.01277e-07 1.01418e-05)
(2.347e-07 1.40056e-08 5.01545e-07 2.57517e-09 -8.27643e-08 1.14899e-05)
(2.16027e-07 2.46929e-10 1.46584e-06 4.52564e-09 -1.72471e-07 2.28872e-05)
(3.52492e-07 6.77057e-09 1.82646e-06 1.18952e-08 -5.41193e-08 2.01161e-05)
(1.02293e-06 -2.2748e-07 5.41547e-06 2.18079e-07 -3.66294e-06 7.37574e-05)
(6.02358e-06 -4.30394e-06 2.27139e-06 4.06693e-06 1.07243e-06 2.40175e-05)
(1.78621e-07 -8.78811e-08 8.22261e-07 3.4978e-05 -2.12704e-06 7.76293e-05)
(4.92094e-06 3.93705e-06 -1.00867e-06 4.30313e-06 1.11295e-06 1.07497e-05)
(1.18129e-06 2.90057e-07 -4.09116e-06 2.35218e-07 -2.49709e-06 3.34116e-05)
(4.72403e-07 -1.0108e-08 -5.31885e-07 1.13286e-08 -4.51634e-09 5.20612e-06)
(2.34736e-07 1.78787e-09 -1.74056e-07 4.0704e-09 -7.74998e-08 6.57019e-06)
(1.62411e-07 -1.01203e-08 3.19651e-07 2.69565e-09 -1.00469e-07 6.72427e-06)
(8.71993e-08 -5.62553e-09 1.76235e-07 2.98665e-09 -9.88656e-08 5.89253e-06)
(8.65335e-08 -4.29986e-10 3.88685e-08 2.89978e-09 -1.0444e-07 5.86055e-06)
(8.65905e-08 3.89685e-09 -9.26052e-09 2.93906e-09 -1.01292e-07 6.37446e-06)
(7.82276e-08 7.8343e-09 4.79408e-08 3.30126e-09 -1.04367e-07 7.67436e-06)
(1.08068e-07 7.88526e-09 2.89233e-07 3.33149e-09 -1.11856e-07 9.52226e-06)
(2.44678e-07 1.45427e-08 5.66645e-07 3.18329e-09 -9.39528e-08 1.09141e-05)
(2.27792e-07 -4.00267e-10 1.5452e-06 5.40658e-09 -1.87676e-07 2.22295e-05)
(3.46143e-07 4.76686e-09 1.83762e-06 1.32873e-08 -6.73425e-08 1.96835e-05)
(9.99655e-07 -2.38008e-07 5.28063e-06 2.30094e-07 -3.64404e-06 6.88404e-05)
(4.69029e-06 -3.95137e-06 1.29148e-06 4.31284e-06 1.04108e-06 2.13342e-05)
(1.81071e-07 -8.7104e-08 7.60454e-07 3.692e-05 -1.82744e-06 7.43561e-05)
(3.68627e-06 3.51331e-06 -4.26315e-07 4.53832e-06 1.07966e-06 8.81124e-06)
(1.14937e-06 2.97871e-07 -3.89064e-06 2.45631e-07 -2.41795e-06 3.01757e-05)
(4.62785e-07 -8.49013e-09 -5.46219e-07 1.23581e-08 -4.06567e-09 4.875e-06)
(2.43688e-07 1.70035e-09 -1.74374e-07 4.67097e-09 -8.13716e-08 5.99905e-06)
(1.68449e-07 -1.09108e-08 3.21884e-07 3.23043e-09 -1.06326e-07 6.19564e-06)
(9.2163e-08 -6.23591e-09 1.84241e-07 3.5812e-09 -1.04455e-07 5.36715e-06)
(8.91211e-08 -6.92705e-10 5.34736e-08 3.49931e-09 -1.10619e-07 5.29528e-06)
(8.92383e-08 3.94839e-09 5.21379e-09 3.56849e-09 -1.0834e-07 5.76175e-06)
(8.07276e-08 7.9924e-09 7.72831e-08 3.96304e-09 -1.12061e-07 7.07644e-06)
(1.13182e-07 7.83721e-09 3.29967e-07 4.0309e-09 -1.21993e-07 8.95161e-06)
(2.51735e-07 1.48904e-08 6.23707e-07 3.89912e-09 -1.04736e-07 1.03778e-05)
(2.36972e-07 -1.20539e-09 1.60344e-06 6.41412e-09 -2.02795e-07 2.15046e-05)
(3.38514e-07 2.41507e-09 1.83922e-06 1.47803e-08 -8.13288e-08 1.92059e-05)
(9.66326e-07 -2.44647e-07 5.08052e-06 2.4112e-07 -3.59605e-06 6.37333e-05)
(3.5456e-06 -3.52666e-06 5.11487e-07 4.54883e-06 1.00215e-06 1.86715e-05)
(1.83628e-07 -8.54486e-08 6.99722e-07 3.87071e-05 -1.57472e-06 7.08127e-05)
(2.69299e-06 3.04982e-06 9.3559e-10 4.75373e-06 1.04089e-06 7.01329e-06)
(1.10607e-06 3.01289e-07 -3.6473e-06 2.5475e-07 -2.31833e-06 2.69706e-05)