/*--------------------------------*- C++ -*----------------------------------*\
| =========                 |                                                 |
| \\      /  F ield         | OpenFOAM: The Open Source CFD Toolbox           |
|  \\    /   O peration     | Version:  v1912                                 |
|   \\  /    A nd           | Website:  www.openfoam.com                      |
|    \\/     M anipulation  |                                                 |
\*---------------------------------------------------------------------------*/
FoamFile
{
    version     2.0;
    format      ascii;
    class       volVectorField;
    location    "197.2";
    object      wallShearStress;
}
// * * * * * * * * * * * * * * * * * * * * * * * * * * * * * * * * * * * * * //

dimensions      [1 -1 -2 0 0 0 0];


internalField   uniform (0 0 0);

boundaryField
{
    leftWall
    {
        type            calculated;
        value           nonuniform List<vector> 
128
(
(-0.000134528 0.0252135 0.320611)
(-0.000122712 0.00611676 -0.261547)
(0.000133413 -0.00215016 -0.288029)
(9.32691e-05 0.000274255 -0.340483)
(0.0001334 -0.000183573 -0.278964)
(3.0352e-05 2.1449e-05 -0.3624)
(3.03003e-05 -6.34706e-05 -0.279001)
(1.75263e-05 6.02222e-05 -0.374011)
(0.204214 0.00240407 0.145506)
(-0.0805757 -0.000811486 -0.216167)
(0.0421095 0.000726263 -0.264822)
(-0.00417787 7.02373e-05 -0.311471)
(0.0105866 6.61687e-05 -0.304561)
(-0.00311496 2.99842e-05 -0.330403)
(0.00891501 4.55712e-07 -0.31435)
(-0.00630163 1.94991e-05 -0.335289)
(0.00648813 0.00132999 0.112127)
(-0.0223997 0.000243191 -0.190513)
(0.00793112 0.000389793 -0.290482)
(-0.00412476 2.42726e-05 -0.297493)
(0.00311867 6.92153e-05 -0.331197)
(-0.00148035 1.74545e-06 -0.310017)
(0.00318185 3.64217e-05 -0.341975)
(-0.00183765 -9.79461e-06 -0.309296)
(0.0114385 0.000592512 0.195602)
(-0.00999135 0.000726234 -0.187183)
(0.00210912 0.000194305 -0.275462)
(-0.00165302 4.82872e-05 -0.299149)
(0.000901487 4.2802e-05 -0.322616)
(-0.000491211 9.60131e-06 -0.317452)
(0.000980227 1.96986e-05 -0.333505)
(-0.000671451 8.26525e-06 -0.320756)
(-0.00200921 0.000616787 0.193334)
(-0.00883024 0.000710023 -0.191638)
(0.00197088 0.000212328 -0.269905)
(-0.000435516 6.1091e-05 -0.302301)
(0.000571692 3.76426e-05 -0.317627)
(4.70191e-05 1.41885e-05 -0.319716)
(0.000480934 1.17056e-05 -0.329069)
(-9.56632e-05 1.24726e-05 -0.323213)
(-0.00184894 0.00056796 0.210415)
(-0.00638971 0.000709085 -0.193289)
(0.000170026 0.000206208 -0.265334)
(-0.000361998 7.57769e-05 -0.306202)
(3.6536e-05 3.73236e-05 -0.316718)
(9.1208e-05 2.06881e-05 -0.323953)
(0.000163319 9.40969e-06 -0.328902)
(4.60176e-05 1.73199e-05 -0.326521)
(-0.00334041 0.000555293 0.213617)
(-0.00290558 0.000728823 -0.19431)
(-8.67009e-05 0.000193905 -0.263233)
(-0.000318798 7.2416e-05 -0.30751)
(-0.000161561 3.23102e-05 -0.315179)
(-2.56786e-05 1.89168e-05 -0.32514)
(-2.99494e-05 6.86671e-06 -0.327821)
(3.14834e-05 1.6612e-05 -0.32747)
(-0.00138987 0.000540911 0.217788)
(-0.00139328 0.000740742 -0.19492)
(-9.90541e-05 0.000193628 -0.261679)
(-0.000158087 7.61258e-05 -0.308386)
(-0.000143408 3.20245e-05 -0.314608)
(-4.37958e-05 2.08567e-05 -0.326053)
(-5.68999e-05 6.30927e-06 -0.327483)
(4.31099e-06 1.86669e-05 -0.328195)
(7.57883e-05 0.000545483 0.217455)
(8.89798e-05 0.000748307 -0.1951)
(-3.03757e-05 0.000192801 -0.261769)
(-7.6628e-05 7.42763e-05 -0.308596)
(-0.00010967 3.02639e-05 -0.314403)
(-8.22656e-05 1.83534e-05 -0.326089)
(-6.43264e-05 5.07358e-06 -0.327249)
(-3.96131e-05 1.68788e-05 -0.328169)
(0.00155825 0.000541329 0.217595)
(0.00156508 0.000741184 -0.195053)
(3.60512e-05 0.000193658 -0.261843)
(1.2796e-05 7.56219e-05 -0.308501)
(-4.89555e-05 3.08712e-05 -0.314687)
(-0.000102438 2.01665e-05 -0.326105)
(-5.37617e-05 5.74123e-06 -0.327531)
(-7.64211e-05 1.84026e-05 -0.328257)
(0.00346483 0.000556505 0.21311)
(0.00302696 0.000729573 -0.194614)
(3.25454e-07 0.000193846 -0.263551)
(0.000184681 7.12578e-05 -0.307707)
(1.89373e-05 3.06934e-05 -0.315315)
(-7.40231e-05 1.76125e-05 -0.325229)
(-4.48022e-05 6.00882e-06 -0.327894)
(-8.82982e-05 1.61993e-05 -0.32759)
(0.0019157 0.000569445 0.209693)
(0.00641212 0.000709775 -0.193727)
(-0.000268225 0.000205303 -0.265782)
(0.000269496 7.35947e-05 -0.306459)
(-0.000108893 3.53469e-05 -0.316893)
(-0.000112317 1.88999e-05 -0.324073)
(-0.000180315 8.38891e-06 -0.329009)
(-7.74708e-05 1.64698e-05 -0.326676)
(0.00199844 0.000618837 0.192442)
(0.00877981 0.000709608 -0.192116)
(-0.00206544 0.000210752 -0.270314)
(0.000426481 5.83037e-05 -0.302513)
(-0.000578389 3.58873e-05 -0.317748)
(5.12215e-06 1.3198e-05 -0.319807)
(-0.000454271 1.10765e-05 -0.329175)
(0.000102494 1.16504e-05 -0.323357)
(-0.0115268 0.000593462 0.194835)
(0.00986879 0.000725144 -0.18762)
(-0.0021706 0.000192465 -0.275784)
(0.0017041 4.72873e-05 -0.299322)
(-0.000854854 4.17251e-05 -0.322715)
(0.000566608 9.98662e-06 -0.317544)
(-0.000938341 1.97688e-05 -0.333634)
(0.000701737 7.79837e-06 -0.320916)
(-0.00659659 0.00133017 0.111611)
(0.0223218 0.000242446 -0.190907)
(-0.00791008 0.000386389 -0.290827)
(0.00420453 2.29178e-05 -0.29767)
(-0.00304701 6.77831e-05 -0.331363)
(0.00154082 2.29479e-06 -0.310119)
(-0.00315115 3.64069e-05 -0.342175)
(0.00187194 -9.95633e-06 -0.309441)
(-0.204264 0.00240531 0.144628)
(0.0804784 -0.000811033 -0.216469)
(-0.0419089 0.000722188 -0.265253)
(0.00434883 6.82037e-05 -0.311577)
(-0.0103938 6.31061e-05 -0.304801)
(0.00318994 3.01162e-05 -0.330433)
(-0.00886131 -1.62649e-07 -0.31461)
(0.00635122 1.94201e-05 -0.335347)
)
;
    }
    rightWall
    {
        type            calculated;
        value           nonuniform 0();
    }
    leftSides_periodic0
    {
        type            cyclic;
    }
    leftSides_periodic1
    {
        type            cyclic;
    }
    rightSides_periodic0
    {
        type            cyclic;
    }
    rightSides_periodic1
    {
        type            cyclic;
    }
    leftInOut_periodic0
    {
        type            cyclic;
    }
    leftInOut_periodic1
    {
        type            cyclic;
    }
    rightInOut_periodic0
    {
        type            cyclic;
    }
    rightInOut_periodic1
    {
        type            cyclic;
    }
    procBoundary0to1
    {
        type            processor;
        value           uniform (0 0 0);
    }
    procBoundary0to1throughleftInOut_periodic1
    {
        type            processorCyclic;
        value           uniform (0 0 0);
    }
    procBoundary0to2
    {
        type            processor;
        value           uniform (0 0 0);
    }
    procBoundary0to2throughleftSides_periodic0
    {
        type            processorCyclic;
        value           uniform (0 0 0);
    }
}


// ************************************************************************* //
