
400
(
(1.57215e-06 -1.18456e-26 -2.60534e-28 1.57215e-06 5.38766e-25 1.57215e-06)
(9.83673e-07 -1.53074e-10 -3.36673e-12 9.83663e-07 6.96216e-09 9.83674e-07)
(9.03439e-07 -1.96121e-10 -2.6945e-12 9.03432e-07 6.26373e-09 9.03437e-07)
(1.42208e-06 0 0 1.42208e-06 0 1.42208e-06)
(7.96632e-07 -5.73553e-10 -3.84428e-11 7.96844e-07 3.24071e-08 7.9664e-07)
(8.43343e-07 -6.52502e-10 -3.67637e-11 8.43564e-07 3.06802e-08 8.43319e-07)
(2.5828e-06 -3.71859e-09 -3.61794e-10 2.58208e-06 2.17947e-07 2.58285e-06)
(2.83752e-06 -3.71932e-09 -3.72335e-10 2.83683e-06 2.16544e-07 2.83735e-06)
(6.80743e-06 -1.62734e-08 -2.01537e-09 6.81383e-06 9.41144e-07 6.8077e-06)
(7.52932e-06 -1.5695e-08 -2.14463e-09 7.53591e-06 9.64658e-07 7.52863e-06)
(1.43229e-05 -4.93368e-08 -7.64768e-09 1.43319e-05 2.83326e-06 1.43241e-05)
(1.59069e-05 -4.6391e-08 -8.3116e-09 1.59165e-05 2.96812e-06 1.59049e-05)
(2.56382e-05 -1.13759e-07 -2.20039e-08 2.56618e-05 6.57622e-06 2.56418e-05)
(2.859e-05 -1.03784e-07 -2.42922e-08 2.8615e-05 7.00772e-06 2.85857e-05)
(4.07554e-05 -2.141e-07 -5.15157e-08 4.08201e-05 1.2606e-05 4.07647e-05)
(4.56398e-05 -1.88526e-07 -5.75779e-08 4.57072e-05 1.36255e-05 4.56328e-05)
(5.91517e-05 -3.4524e-07 -1.03025e-07 5.92762e-05 2.0899e-05 5.91714e-05)
(6.65117e-05 -2.91919e-07 -1.16239e-07 6.66401e-05 2.28564e-05 6.6503e-05)
(7.98782e-05 -4.9372e-07 -1.82248e-07 8.00934e-05 3.09811e-05 7.9914e-05)
(9.01425e-05 -3.99013e-07 -2.07003e-07 9.03608e-05 3.41926e-05 9.01357e-05)
(0.000101788 -6.41856e-07 -2.92702e-07 0.000102127 4.21449e-05 0.000101846)
(0.000115203 -4.9362e-07 -3.3386e-07 0.00011554 4.68108e-05 0.000115204)
(0.000123767 -7.73353e-07 -4.35575e-07 0.000124271 5.37016e-05 0.000123853)
(0.000140381 -5.63442e-07 -4.97871e-07 0.000140871 5.98831e-05 0.0001404)
(0.000144945 -8.79108e-07 -6.10494e-07 0.000145652 6.50742e-05 0.000145063)
(0.00016464 -6.04223e-07 -6.98077e-07 0.000165311 7.27415e-05 0.000164687)
(0.000164758 -9.62689e-07 -8.16513e-07 0.00016569 7.55118e-05 0.000164908)
(0.0001873 -6.23512e-07 -9.33249e-07 0.000188167 8.46685e-05 0.000187384)
(0.000182866 -1.02176e-06 -1.04988e-06 0.00018404 8.44576e-05 0.000183049)
(0.00020797 -6.27586e-07 -1.19834e-06 0.000209038 9.51547e-05 0.000208102)
(0.00019911 -1.04814e-06 -1.30841e-06 0.000200551 9.21274e-05 0.000199327)
(0.000226485 -6.13982e-07 -1.48888e-06 0.000227767 0.000104257 0.000226678)
(0.000213473 -1.04282e-06 -1.59244e-06 0.000215211 9.88306e-05 0.000213725)
(0.000242826 -5.81348e-07 -1.80414e-06 0.000244334 0.000112168 0.000243094)
(0.000226016 -1.00864e-06 -1.90033e-06 0.000228074 0.000104623 0.000226304)
(0.000257054 -5.30188e-07 -2.14059e-06 0.000258793 0.000118947 0.000257408)
(0.000236835 -9.48801e-07 -2.23009e-06 0.000239231 0.000109578 0.00023716)
(0.00026928 -4.6246e-07 -2.49331e-06 0.000271252 0.000124625 0.000269731)
(0.000246048 -8.65414e-07 -2.57961e-06 0.000248794 0.000113773 0.00024641)
(0.000279641 -3.80548e-07 -2.85971e-06 0.000281847 0.000129347 0.0002802)
(0.000253777 -7.59976e-07 -2.94687e-06 0.000256884 0.000117284 0.000254178)
(0.000288279 -2.86934e-07 -3.23811e-06 0.000290717 0.000133279 0.000288955)
(0.000260148 -6.33925e-07 -3.32985e-06 0.000263626 0.000120183 0.000260589)
(0.000295334 -1.8513e-07 -3.62566e-06 0.000298002 0.000136491 0.000296137)
(0.000265291 -4.90312e-07 -3.72648e-06 0.000269151 0.000122535 0.000265772)
(0.000300946 -8.00747e-08 -4.01989e-06 0.000303839 0.000139051 0.000301885)
(0.000269344 -3.40202e-07 -4.13523e-06 0.000273586 0.00012441 0.000269866)
(0.00030525 1.86526e-08 -4.41951e-06 0.000308356 0.000141043 0.000306331)
(0.000272444 -1.97928e-07 -4.55516e-06 0.000277043 0.000125873 0.000273002)
(0.000308375 1.03006e-07 -4.82337e-06 0.000311668 0.000142523 0.000309601)
(0.000274695 -6.4235e-08 -4.98529e-06 0.000279608 0.000126957 0.00027528)
(0.000310432 1.82397e-07 -5.22778e-06 0.000313865 0.000143523 0.000311798)
(0.00027615 8.13795e-08 -5.42295e-06 0.000281341 0.000127686 0.000276759)
(0.000311488 2.87411e-07 -5.62498e-06 0.000315019 0.00014406 0.000312991)
(0.000276819 2.76396e-07 -5.8616e-06 0.000282324 0.000128078 0.000277472)
(0.000311567 4.54629e-07 -6.0049e-06 0.000315213 0.000144159 0.000313215)
(0.000276725 5.47434e-07 -6.29126e-06 0.000282689 0.000128163 0.000277469)
(0.000310677 6.88661e-07 -6.3602e-06 0.000314564 0.000143856 0.000312504)
(0.000275988 8.66608e-07 -6.70408e-06 0.000282558 0.00012802 0.000276878)
(0.000308905 9.2255e-07 -6.69538e-06 0.000313185 0.000143207 0.000310965)
(0.000274867 1.13386e-06 -7.10768e-06 0.000281946 0.000127346 0.000275896)
(0.000306482 1.02286e-06 -7.03862e-06 0.000311114 0.000141917 0.000308779)
(0.000273519 1.30237e-06 -7.50815e-06 0.000280906 0.000126402 0.000274645)
(0.000303611 9.5437e-07 -7.41247e-06 0.000308459 0.000140356 0.000306115)
(0.000271888 1.42434e-06 -7.90165e-06 0.00027965 0.000125646 0.000273093)
(0.000300388 8.44439e-07 -7.79644e-06 0.000305457 0.000138878 0.000303085)
(0.000270054 1.54433e-06 -8.29112e-06 0.000278125 0.000124521 0.000271323)
(0.000297009 8.15936e-07 -8.14657e-06 0.000302145 0.000136788 0.000299886)
(0.000268261 1.72409e-06 -8.68409e-06 0.000276114 0.000123384 0.000269567)
(0.000293708 9.79025e-07 -8.45944e-06 0.000298486 0.000135257 0.000296769)
(0.000266329 2.11693e-06 -8.79906e-06 0.000274251 0.000122667 0.000267679)
(0.000290383 1.53053e-06 -8.42457e-06 0.000295109 0.000134376 0.000293609)
(0.000264027 2.72756e-06 -8.33993e-06 0.000272924 0.000121534 0.000265473)
(0.000286877 2.40376e-06 -7.72213e-06 0.000292277 0.000132648 0.000290203)
(0.000261354 3.21277e-06 -7.71313e-06 0.000271131 0.000119675 0.000262949)
(0.000282939 3.04771e-06 -6.81278e-06 0.000288849 0.000130154 0.000286315)
(0.000258068 3.23478e-06 -7.68939e-06 0.000267864 0.000117139 0.000259839)
(0.000277844 2.96965e-06 -6.55149e-06 0.000283606 0.000126833 0.000281288)
(0.000254274 2.70193e-06 -9.03799e-06 0.000262997 0.000113817 0.000256226)
(0.00027146 2.01723e-06 -7.8085e-06 0.000276432 0.000122541 0.000275093)
(0.000250255 1.91032e-06 -1.04235e-05 0.000258119 0.00010401 0.000252351)
(0.00026452 5.32042e-07 -9.2634e-06 0.000269095 0.000110579 0.000268473)
(0.000246023 1.77834e-06 -1.08485e-05 0.000254938 9.49185e-05 0.000248212)
(0.00025783 -1.39531e-07 -9.70441e-06 0.000263344 9.76545e-05 0.000262057)
(0.000241967 2.44168e-06 -1.11312e-05 0.000252724 9.529e-05 0.000244237)
(0.000251931 4.56088e-07 -9.87898e-06 0.000258649 9.64899e-05 0.000256342)
(0.000238514 3.08102e-06 -1.13233e-05 0.000250084 9.67659e-05 0.00024089)
(0.000246916 1.24154e-06 -9.94683e-06 0.000253889 9.95032e-05 0.00025151)
(0.000235568 3.39253e-06 -1.1416e-05 0.00024693 9.49452e-05 0.000238066)
(0.000242435 1.58853e-06 -9.9152e-06 0.000249204 9.84489e-05 0.000247214)
(0.000232799 3.51136e-06 -1.14634e-05 0.000243978 9.0758e-05 0.000235409)
(0.000238123 1.68167e-06 -9.86413e-06 0.000245428 9.44716e-05 0.000243078)
(0.00023009 3.56235e-06 -1.1618e-05 0.000241691 8.57176e-05 0.000232782)
(0.000234283 1.99898e-06 -9.85777e-06 0.000242459 9.04958e-05 0.000239327)
(0.000227851 3.55143e-06 -1.19928e-05 0.00023954 8.01266e-05 0.000230621)
(0.000231523 2.46089e-06 -9.94768e-06 0.000239331 8.57754e-05 0.000236565)
(0.000226499 3.75748e-06 -1.23108e-05 0.000237105 7.71646e-05 0.000229432)
(0.000229536 2.96248e-06 -1.00081e-05 0.000235528 8.29156e-05 0.000234703)
(0.000225597 4.38986e-06 -1.13106e-05 0.000235874 7.85121e-05 0.000228726)
(0.000226932 3.60053e-06 -8.92469e-06 0.000232243 8.39047e-05 0.000232391)
(0.00022484 4.93826e-06 -9.08203e-06 0.000236109 7.9071e-05 0.00022806)
(0.000223351 3.56747e-06 -6.99441e-06 0.000230675 8.34007e-05 0.000229125)
(0.000222954 5.05573e-06 -7.2258e-06 0.000234634 7.70322e-05 0.000226255)
(0.000219063 2.67092e-06 -5.48844e-06 0.000228336 7.26629e-05 0.000224848)
(0.000217527 4.81723e-06 -6.28917e-06 0.000228466 7.34347e-05 0.000221036)
(0.000212725 1.97894e-06 -4.72634e-06 0.000221655 6.21091e-05 0.000218198)
(0.000209962 3.53091e-06 -7.5712e-06 0.000218608 5.86784e-05 0.000213792)
(0.000205032 9.73495e-07 -6.20435e-06 0.000211543 5.16177e-05 0.000210515)
(0.000202919 1.01184e-06 -9.11866e-06 0.000210732 3.16207e-05 0.0002069)
(0.000198024 -1.15125e-06 -7.83305e-06 0.000203759 2.95186e-05 0.000203821)
(0.00019657 3.42312e-07 -9.23826e-06 0.00020667 2.26294e-05 0.000200517)
(0.000191877 -1.55606e-06 -7.85187e-06 0.000200089 2.27583e-05 0.000197925)
(0.000191077 1.92873e-06 -9.25306e-06 0.000202998 3.45496e-05 0.000195041)
(0.00018685 2.28689e-07 -7.70818e-06 0.000197072 3.55122e-05 0.000193075)
(0.000186542 2.98852e-06 -8.87496e-06 0.00019836 4.18134e-05 0.000190545)
(0.000183014 1.48468e-06 -7.27628e-06 0.000193351 4.33749e-05 0.000189328)
(0.000182458 3.17927e-06 -8.0544e-06 0.000193455 4.10719e-05 0.000186496)
(0.000179797 1.87141e-06 -6.5132e-06 0.000189601 4.29713e-05 0.000186153)
(0.00017847 3.01018e-06 -7.05102e-06 0.000188983 3.74192e-05 0.000182551)
(0.000176793 1.91074e-06 -5.62625e-06 0.000186537 3.90802e-05 0.000183156)
(0.000174652 2.766e-06 -6.35519e-06 0.000184893 3.38602e-05 0.000178778)
(0.000174066 1.89795e-06 -5.07109e-06 0.000184065 3.48228e-05 0.000180383)
(0.000171132 2.51553e-06 -6.05573e-06 0.000181003 3.04544e-05 0.000175272)
(0.000171767 1.85782e-06 -4.92117e-06 0.000181886 3.06626e-05 0.000177977)
(0.000167923 2.34635e-06 -5.85563e-06 0.000177277 2.68097e-05 0.000172107)
(0.000169868 1.79657e-06 -4.86715e-06 0.000180096 2.64291e-05 0.000175849)
(0.000165031 2.32837e-06 -5.57909e-06 0.000173752 2.27912e-05 0.000169367)
(0.00016834 1.74751e-06 -4.74568e-06 0.000178824 2.24155e-05 0.000173907)
(0.000162461 2.42379e-06 -5.22989e-06 0.00017064 1.84229e-05 0.000166985)
(0.000167252 1.73686e-06 -4.54898e-06 0.000177882 1.93447e-05 0.000172321)
(0.000160331 2.52485e-06 -4.88082e-06 0.0001681 1.41844e-05 0.000164795)
(0.000166554 1.76397e-06 -4.28951e-06 0.000177044 1.72472e-05 0.000171398)
(0.000158728 2.57127e-06 -4.5462e-06 0.000166043 1.06384e-05 0.000162891)
(0.00016619 1.79765e-06 -4.00068e-06 0.00017641 1.54661e-05 0.000171097)
(0.000157592 2.58205e-06 -4.20437e-06 0.000164396 7.78616e-06 0.000161486)
(0.000166257 1.80773e-06 -3.72491e-06 0.00017614 1.36958e-05 0.000171187)
(0.000156919 2.59053e-06 -3.85853e-06 0.000163196 5.48081e-06 0.000160629)
(0.000166808 1.78805e-06 -3.46571e-06 0.00017628 1.18836e-05 0.000171637)
(0.000156787 2.61266e-06 -3.52391e-06 0.000162458 3.72708e-06 0.000160354)
(0.000167838 1.74241e-06 -3.20876e-06 0.000176911 1.00025e-05 0.000172474)
(0.000157279 2.66015e-06 -3.21433e-06 0.000162258 2.38859e-06 0.000160696)
(0.000169378 1.67019e-06 -2.94482e-06 0.000178077 8.05911e-06 0.000173765)
(0.000158493 2.74812e-06 -2.93892e-06 0.0001627 1.10544e-06 0.000161746)
(0.000171519 1.56183e-06 -2.68285e-06 0.000179766 5.90783e-06 0.000175616)
(0.000160473 2.88918e-06 -2.70764e-06 0.000164064 -5.00231e-07 0.00016359)
(0.000174229 1.39156e-06 -2.44888e-06 0.000182256 3.09654e-06 0.000177947)
(0.00016328 3.20722e-06 -2.5171e-06 0.00016669 -9.25174e-07 0.000166366)
(0.00017748 1.29115e-06 -2.258e-06 0.000185789 1.17569e-06 0.000180628)
(0.000167388 4.14509e-06 -2.39444e-06 0.000170186 7.81358e-06 0.000170622)
(0.000181551 1.90259e-06 -2.13497e-06 0.000189998 9.43433e-06 0.000183832)
(0.000173366 6.39945e-06 -2.59322e-06 0.000174103 3.39372e-05 0.000176724)
(0.000186737 4.19149e-06 -2.26185e-06 0.000194307 3.76497e-05 0.000188072)
(0.000181238 6.90599e-06 -2.5632e-06 0.000178791 5.5243e-05 0.000184061)
(0.000193245 5.0713e-06 -2.02456e-06 0.000198597 6.32228e-05 0.000193434)
(0.000189823 1.78546e-06 -1.43421e-06 0.00018515 3.21731e-05 0.000191976)
(0.000200187 4.49205e-07 -6.32447e-07 0.000204388 4.46925e-05 0.000199227)
(0.000197972 5.39059e-06 -5.22107e-07 0.000194131 -1.27434e-05 0.000200614)
(0.000206853 4.57212e-06 4.23465e-07 0.000212686 2.24678e-06 0.000206154)
(0.000205753 5.48226e-06 -8.32323e-07 0.000201932 -6.01482e-05 0.000207746)
(0.000213918 5.10716e-06 1.5547e-07 0.000218718 -4.62279e-05 0.000213503)
(4.38851e-07 -3.83387e-12 -1.75809e-12 4.38862e-07 2.95468e-09 4.38853e-07)
(5.95349e-07 0 0 5.95349e-07 0 5.95349e-07)
(8.07593e-07 -7.86309e-10 -4.55412e-11 8.07845e-07 3.46243e-08 8.07652e-07)
(2.93005e-06 -5.87044e-09 -4.78421e-10 2.93183e-06 2.48554e-07 2.93061e-06)
(7.78252e-06 -2.36172e-08 -2.70457e-09 7.79068e-06 1.06027e-06 7.78539e-06)
(1.64246e-05 -6.5605e-08 -1.0206e-08 1.64505e-05 3.20775e-06 1.64345e-05)
(2.95423e-05 -1.40284e-07 -2.89729e-08 2.96059e-05 7.57842e-06 2.95683e-05)
(4.72088e-05 -2.45633e-07 -6.6607e-08 4.7339e-05 1.48277e-05 4.72648e-05)
(6.87988e-05 -3.67512e-07 -1.30339e-07 6.90287e-05 2.50317e-05 6.89025e-05)
(9.31098e-05 -4.85064e-07 -2.25034e-07 9.34723e-05 3.7597e-05 9.32812e-05)
(0.000118669 -5.70911e-07 -3.47965e-07 0.000119182 5.11758e-05 0.000118926)
(0.000144077 -6.14676e-07 -4.94882e-07 0.000144745 6.41667e-05 0.000144431)
(0.000168274 -6.3445e-07 -6.66475e-07 0.000169095 7.61339e-05 0.000168736)
(0.000190611 -6.45399e-07 -8.61035e-07 0.000191581 8.72816e-05 0.000191195)
(0.000210761 -6.54369e-07 -1.07189e-06 0.000211886 9.7294e-05 0.000211481)
(0.000228602 -6.60522e-07 -1.29509e-06 0.00022989 0.000106014 0.00022947)
(0.000244116 -6.58535e-07 -1.5306e-06 0.000245563 0.000113561 0.000245145)
(0.000257355 -6.49016e-07 -1.77583e-06 0.000258952 0.000119963 0.000258554)
(0.000268424 -6.34698e-07 -2.02709e-06 0.000270175 0.000125226 0.000269802)
(0.000277458 -6.20306e-07 -2.2837e-06 0.000279375 0.000129473 0.000279021)
(0.000284608 -6.13457e-07 -2.54693e-06 0.000286706 0.000132849 0.000286361)
(0.000290047 -6.19517e-07 -2.81647e-06 0.000292306 0.000135419 0.000291994)
(0.000293969 -6.30985e-07 -3.08738e-06 0.000296302 0.000137275 0.00029611)
(0.000296563 -6.1531e-07 -3.34575e-06 0.000298817 0.000138505 0.000298891)
(0.000297896 -5.28038e-07 -3.5736e-06 0.000300144 0.00013916 0.000300398)
(0.000297937 -3.79864e-07 -3.77488e-06 0.000300609 0.000139269 0.000300606)
(0.000296864 -2.5686e-07 -4.00012e-06 0.000300025 0.000138849 0.000299709)
(0.000294869 -2.41276e-07 -4.30505e-06 0.000298306 0.000137957 0.000297912)
(0.000291892 -4.34504e-07 -4.69293e-06 0.000296044 0.000136646 0.000295143)
(0.000288197 -9.44691e-07 -5.09412e-06 0.000293264 0.000133857 0.000291632)
(0.000284515 -1.64152e-06 -5.42071e-06 0.000289108 0.000128432 0.00028808)
(0.000281361 -2.16063e-06 -5.7241e-06 0.000283054 0.000123512 0.000285044)
(0.000277841 -2.05519e-06 -6.05473e-06 0.000277302 0.000125046 0.000281688)
(0.000272632 -1.1455e-06 -5.78807e-06 0.000274675 0.000126788 0.000276547)
(0.00026662 -1.95049e-07 -5.27572e-06 0.000272721 0.000124195 0.000270547)
(0.00026118 2.61997e-07 -5.40171e-06 0.000268081 0.000121543 0.000265225)
(0.00025641 3.10754e-07 -6.02662e-06 0.000260991 0.000118912 0.000260616)
(0.000251459 -8.43619e-08 -6.61093e-06 0.000253654 0.000114566 0.000255733)
(0.000245017 -5.48393e-07 -6.79693e-06 0.000248401 0.000108835 0.000249237)
(0.000237655 -8.84046e-07 -6.93131e-06 0.000243706 0.000104237 0.000241884)
(0.000230827 -1.35297e-06 -7.23807e-06 0.000237591 9.93183e-05 0.000235234)
(0.000224767 -1.73444e-06 -7.50594e-06 0.000231154 9.2836e-05 0.000229382)
(0.0002193 -1.6928e-06 -7.63989e-06 0.00022527 8.85952e-05 0.00022407)
(0.000214246 -1.43259e-06 -7.73324e-06 0.00021994 8.72654e-05 0.000219163)
(0.000209398 -1.25642e-06 -7.79751e-06 0.000215326 8.50016e-05 0.000214453)
(0.000204728 -1.11893e-06 -7.85266e-06 0.000211529 8.20555e-05 0.000209929)
(0.000200642 -6.75223e-07 -7.81566e-06 0.000208013 7.98861e-05 0.000205934)
(0.000197326 -1.17272e-08 -7.63446e-06 0.000204375 7.74499e-05 0.000202599)
(0.00019405 4.96702e-07 -7.45838e-06 0.000200541 7.41737e-05 0.000199288)
(0.000189851 7.54357e-07 -7.42984e-06 0.000196188 7.04965e-05 0.000195141)
(0.00018463 4.68599e-07 -7.74503e-06 0.000192116 6.64608e-05 0.000190205)
(0.000179887 -2.39021e-07 -8.04954e-06 0.000188831 5.53081e-05 0.0001857)
(0.000176666 -4.31551e-07 -8.09185e-06 0.00018571 4.6059e-05 0.000182458)
(0.00017428 4.25048e-08 -8.09705e-06 0.000182885 4.76054e-05 0.000180135)
(0.000172111 5.99644e-07 -8.03744e-06 0.00018065 4.92895e-05 0.000178223)
(0.000170096 1.03507e-06 -7.94836e-06 0.000178984 4.78998e-05 0.000176511)
(0.000168542 1.40872e-06 -7.84965e-06 0.000177399 4.50039e-05 0.000175184)
(0.000168091 1.8413e-06 -7.73306e-06 0.000174684 4.1358e-05 0.000174874)
(0.000167544 2.32385e-06 -7.58469e-06 0.000173267 3.46759e-05 0.000174408)
(0.00016476 2.2573e-06 -7.38144e-06 0.000177484 2.50989e-05 0.000171639)
(0.000164534 2.22992e-06 -7.13127e-06 0.000178035 1.64878e-05 0.000171359)
(0.000169422 3.03715e-06 -7.1192e-06 0.000171954 9.72073e-06 0.000175097)
(0.000170832 2.64891e-06 -7.13863e-06 0.000175324 3.22567e-06 0.000174697)
(0.000167994 1.39599e-06 -6.7094e-06 0.000184647 -1.68664e-06 0.000170734)
(0.000169947 2.88651e-06 -5.68905e-06 0.00017959 -4.53198e-06 0.000173122)
(0.000175487 7.44894e-06 -5.14105e-06 0.000166026 1.86981e-05 0.00017902)
(0.000173593 9.67346e-06 -5.12661e-06 0.000166646 4.56391e-05 0.000177311)
(0.000165065 7.60325e-06 -4.72104e-06 0.000179172 3.6515e-05 0.000170047)
(0.000162271 5.50407e-06 -4.35518e-06 0.000182917 1.36211e-05 0.000167683)
(0.000165402 4.8681e-06 -4.08702e-06 0.000178571 -2.35321e-06 0.000170475)
(0.000168023 4.54762e-06 -3.76742e-06 0.000178367 -1.09173e-05 0.000172692)
(0.000173433 3.63146e-06 -3.59875e-06 0.000177003 -2.19053e-05 0.000177225)
(0.000179359 1.80556e-06 -3.5128e-06 0.000179941 -3.26416e-05 0.000181731)
(0.000181008 -1.92134e-07 -2.95313e-06 0.000191683 -3.90771e-05 0.000181989)
(0.000180923 -1.02617e-06 -1.55014e-06 0.000197079 -4.31038e-05 0.000180495)
(0.000182479 2.17574e-06 2.77091e-07 0.000182386 -4.09721e-05 0.000181339)
(0.000182706 1.101e-05 1.12817e-06 0.000164578 -9.75428e-06 0.00018133)
(0.000176296 1.68487e-05 1.2534e-06 0.00016623 2.07905e-05 0.000174596)
(0.000167354 1.39527e-05 1.43599e-06 0.000177789 1.24162e-05 0.000165515)
(0.000164465 9.61349e-06 1.51971e-06 0.000181099 -5.58783e-06 0.000162803)
(5.19085e-07 3.92132e-11 -2.43032e-12 5.19093e-07 3.65312e-09 5.19091e-07)
(7.45423e-07 0 0 7.45423e-07 0 7.45423e-07)
(7.60882e-07 -7.0736e-10 -4.72203e-11 7.61124e-07 3.63512e-08 7.60974e-07)
(2.67532e-06 -5.86971e-09 -4.67881e-10 2.67708e-06 2.49957e-07 2.6761e-06)
(7.06062e-06 -2.41956e-08 -2.57531e-09 7.06859e-06 1.03675e-06 7.06446e-06)
(1.48406e-05 -6.85508e-08 -9.54208e-09 1.48659e-05 3.07289e-06 1.48537e-05)
(2.65905e-05 -1.50259e-07 -2.66845e-08 2.66527e-05 7.14692e-06 2.66245e-05)
(4.23244e-05 -2.71206e-07 -6.05449e-08 4.24519e-05 1.38081e-05 4.23967e-05)
(6.14388e-05 -4.20833e-07 -1.17125e-07 6.16648e-05 2.30743e-05 6.15709e-05)
(8.28456e-05 -5.79771e-07 -2.00279e-07 8.32049e-05 3.43855e-05 8.30595e-05)
(0.000105254 -7.19148e-07 -3.06807e-07 0.000105769 4.65099e-05 0.000105567)
(0.000127463 -8.24587e-07 -4.32586e-07 0.000128145 5.79852e-05 0.000127884)
(0.000148579 -9.09335e-07 -5.78892e-07 0.000149435 6.84667e-05 0.000149112)
(0.000168069 -9.84576e-07 -7.443e-07 0.000169104 7.8125e-05 0.000168719)
(0.000185658 -1.04855e-06 -9.23424e-07 0.000186888 8.65968e-05 0.000186428)
(0.000201228 -1.09468e-06 -1.11461e-06 0.000202675 9.38836e-05 0.000202119)
(0.000214763 -1.12e-06 -1.3189e-06 0.00021644 0.000100224 0.000215776)
(0.000226317 -1.12747e-06 -1.53557e-06 0.000228234 0.000105639 0.00022745)
(0.00023598 -1.12104e-06 -1.76387e-06 0.000238154 0.000110179 0.000237231)
(0.000243865 -1.10517e-06 -2.0036e-06 0.000246322 0.000113899 0.000245231)
(0.000250107 -1.0865e-06 -2.25569e-06 0.000252872 0.000116854 0.000251585)
(0.000254861 -1.06831e-06 -2.52066e-06 0.000257931 0.000119111 0.000256446)
(0.000258313 -1.04122e-06 -2.79397e-06 0.000261614 0.000120759 0.000259997)
(0.000260657 -9.74164e-07 -3.06147e-06 0.000264047 0.000121872 0.000262426)
(0.000261965 -8.28971e-07 -3.30539e-06 0.000265519 0.00012251 0.000263799)
(0.000262201 -6.26496e-07 -3.53239e-06 0.000266352 0.000122703 0.000264088)
(0.000261526 -4.62891e-07 -3.79809e-06 0.000266347 0.000122475 0.000263477)
(0.000260121 -4.19509e-07 -4.16175e-06 0.000265418 0.000121877 0.00026217)
(0.000257939 -5.75731e-07 -4.62399e-06 0.000264169 0.000120953 0.000260108)
(0.000255281 -1.00063e-06 -5.10283e-06 0.000262637 0.00011867 0.000257546)
(0.0002529 -1.53052e-06 -5.48977e-06 0.00025994 0.000113861 0.000255196)
(0.000251269 -1.81263e-06 -5.81978e-06 0.000255501 0.000109558 0.000253573)
(0.00024934 -1.47529e-06 -6.15994e-06 0.000251495 0.000111814 0.000251696)
(0.000245677 -4.17105e-07 -5.93262e-06 0.000250655 0.00011452 0.000247984)
(0.000241173 5.50016e-07 -5.50037e-06 0.000250348 0.000112322 0.000243344)
(0.000237127 8.48394e-07 -5.7762e-06 0.000247223 0.000109834 0.000239295)
(0.00023356 6.3455e-07 -6.64442e-06 0.000241638 0.000107797 0.000235886)
(0.000229875 8.06974e-08 -7.51128e-06 0.000235937 0.000104087 0.000232367)
(0.000225241 -2.83266e-07 -7.93482e-06 0.000232659 9.9141e-05 0.000227788)
(0.000220469 -1.99351e-07 -8.16081e-06 0.000230271 9.55132e-05 0.000223018)
(0.000216562 2.53046e-08 -8.39821e-06 0.000226615 9.27491e-05 0.000219113)
(0.000212961 1.83434e-07 -8.65006e-06 0.000222748 9.01e-05 0.000215537)
(0.000209336 2.92801e-07 -8.89211e-06 0.000219345 8.73953e-05 0.000211966)
(0.000205844 4.06891e-07 -9.10969e-06 0.000216135 8.4528e-05 0.000208543)
(0.000202531 5.47579e-07 -9.29828e-06 0.000213052 8.14979e-05 0.000205305)
(0.000199405 7.10763e-07 -9.45192e-06 0.000210078 7.83418e-05 0.00020226)
(0.000196449 8.88143e-07 -9.57589e-06 0.000207245 7.51079e-05 0.000199389)
(0.000193654 1.07882e-06 -9.67954e-06 0.000204584 7.18011e-05 0.000196655)
(0.000191013 1.2917e-06 -9.76108e-06 0.000202118 6.84227e-05 0.000194016)
(0.000188516 1.54369e-06 -9.81571e-06 0.000199819 6.51039e-05 0.000191476)
(0.00018612 1.83939e-06 -9.83265e-06 0.000197549 6.2131e-05 0.00018914)
(0.000183778 2.14579e-06 -9.78689e-06 0.00019513 5.96774e-05 0.000187107)
(0.000181468 2.40674e-06 -9.65468e-06 0.000192521 5.73845e-05 0.000185296)
(0.000179209 2.59992e-06 -9.4639e-06 0.00018995 5.46661e-05 0.000183411)
(0.000177005 2.76274e-06 -9.32305e-06 0.000187622 5.13916e-05 0.000181303)
(0.000174789 2.93344e-06 -9.33476e-06 0.000185565 4.77709e-05 0.000179103)
(0.000172769 3.10875e-06 -9.39454e-06 0.000183325 4.40414e-05 0.00017715)
(0.000171619 3.34514e-06 -9.33174e-06 0.000179693 3.97965e-05 0.000176091)
(0.000170205 3.63171e-06 -9.12589e-06 0.00017712 3.27766e-05 0.00017475)
(0.000166437 3.35674e-06 -8.80621e-06 0.00017993 2.34379e-05 0.000171035)
(0.00016512 3.09798e-06 -8.41536e-06 0.000178863 1.55252e-05 0.000169754)
(0.000168787 3.69486e-06 -8.25375e-06 0.000171071 9.51243e-06 0.000172391)
(0.000168886 3.19869e-06 -8.12711e-06 0.000172505 3.6063e-06 0.000170956)
(0.000164686 1.97686e-06 -7.54282e-06 0.000179575 -1.31092e-06 0.000166194)
(0.000165157 3.57344e-06 -6.36996e-06 0.000172347 -5.45379e-06 0.000167787)
(0.000169263 8.20982e-06 -5.73235e-06 0.000157082 1.56354e-05 0.000172417)
(0.000166131 1.04471e-05 -5.67213e-06 0.000156279 4.08113e-05 0.000169104)
(0.0001564 8.37757e-06 -5.2005e-06 0.000167428 3.06054e-05 0.000160347)
(0.000152381 6.30655e-06 -4.748e-06 0.000169832 7.21823e-06 0.000156675)
(0.000154352 5.73834e-06 -4.40218e-06 0.000164117 -8.62866e-06 0.000158355)
(0.000155925 5.53758e-06 -4.03693e-06 0.000162548 -1.65878e-05 0.000159623)
(0.000160407 4.81775e-06 -3.85482e-06 0.000159936 -2.67077e-05 0.000163355)
(0.000165602 3.30318e-06 -3.77156e-06 0.000161749 -3.62383e-05 0.000167375)
(0.000166808 1.72393e-06 -3.21223e-06 0.000172584 -4.1178e-05 0.000167727)
(0.00016676 1.21632e-06 -1.80961e-06 0.000177268 -4.47246e-05 0.000167286)
(0.000169107 4.3837e-06 -5.42787e-08 0.000162183 -4.46845e-05 0.00016999)
(0.0001707 1.28447e-05 5.89533e-07 0.000144771 -1.77341e-05 0.000171957)
(0.000165933 1.8185e-05 4.51636e-07 0.000146991 8.27111e-06 0.000167345)
(0.000158474 1.47711e-05 4.90417e-07 0.000159235 -2.57403e-06 0.000159975)
(0.0001563 9.9886e-06 5.3192e-07 0.000164314 -1.95082e-05 0.000157045)
(9.83673e-07 -1.53074e-10 -3.36673e-12 9.83663e-07 6.96216e-09 9.83674e-07)
(1.57215e-06 0 0 1.57215e-06 0 1.57215e-06)
(7.96632e-07 -5.73553e-10 -3.84428e-11 7.96844e-07 3.24071e-08 7.9664e-07)
(2.5828e-06 -3.71859e-09 -3.61794e-10 2.58208e-06 2.17947e-07 2.58285e-06)
(6.80743e-06 -1.62734e-08 -2.01537e-09 6.81383e-06 9.41144e-07 6.8077e-06)
(1.43229e-05 -4.93368e-08 -7.64768e-09 1.43319e-05 2.83326e-06 1.43241e-05)
(2.56382e-05 -1.13759e-07 -2.20039e-08 2.56618e-05 6.57622e-06 2.56418e-05)
(4.07554e-05 -2.141e-07 -5.15157e-08 4.08201e-05 1.2606e-05 4.07647e-05)
(5.91517e-05 -3.4524e-07 -1.03025e-07 5.92762e-05 2.0899e-05 5.91714e-05)
(7.98782e-05 -4.9372e-07 -1.82248e-07 8.00934e-05 3.09811e-05 7.9914e-05)
(0.000101788 -6.41856e-07 -2.92702e-07 0.000102127 4.21449e-05 0.000101846)
(0.000123767 -7.73353e-07 -4.35575e-07 0.000124271 5.37016e-05 0.000123853)
(0.000144945 -8.79108e-07 -6.10494e-07 0.000145652 6.50742e-05 0.000145063)
(0.000164758 -9.62689e-07 -8.16513e-07 0.00016569 7.55118e-05 0.000164908)
(0.000182866 -1.02176e-06 -1.04988e-06 0.00018404 8.44576e-05 0.000183049)
(0.00019911 -1.04814e-06 -1.30841e-06 0.000200551 9.21274e-05 0.000199327)
(0.000213473 -1.04282e-06 -1.59244e-06 0.000215211 9.88306e-05 0.000213725)
(0.000226016 -1.00864e-06 -1.90033e-06 0.000228074 0.000104623 0.000226304)
(0.000236835 -9.48801e-07 -2.23009e-06 0.000239231 0.000109578 0.00023716)
(0.000246048 -8.65414e-07 -2.57961e-06 0.000248794 0.000113773 0.00024641)
(0.000253777 -7.59976e-07 -2.94687e-06 0.000256884 0.000117284 0.000254178)
(0.000260148 -6.33925e-07 -3.32985e-06 0.000263626 0.000120183 0.000260589)
(0.000265291 -4.90312e-07 -3.72648e-06 0.000269151 0.000122535 0.000265772)
(0.000269344 -3.40202e-07 -4.13523e-06 0.000273586 0.00012441 0.000269866)
(0.000272444 -1.97928e-07 -4.55516e-06 0.000277043 0.000125873 0.000273002)
(0.000274695 -6.4235e-08 -4.98529e-06 0.000279608 0.000126957 0.00027528)
(0.00027615 8.13795e-08 -5.42295e-06 0.000281341 0.000127686 0.000276759)
(0.000276819 2.76396e-07 -5.8616e-06 0.000282324 0.000128078 0.000277472)
(0.000276725 5.47434e-07 -6.29126e-06 0.000282689 0.000128163 0.000277469)
(0.000275988 8.66608e-07 -6.70408e-06 0.000282558 0.00012802 0.000276878)
(0.000274867 1.13386e-06 -7.10768e-06 0.000281946 0.000127346 0.000275896)
(0.000273519 1.30237e-06 -7.50815e-06 0.000280906 0.000126402 0.000274645)
(0.000271888 1.42434e-06 -7.90165e-06 0.00027965 0.000125646 0.000273093)
(0.000270054 1.54433e-06 -8.29112e-06 0.000278125 0.000124521 0.000271323)
(0.000268261 1.72409e-06 -8.68409e-06 0.000276114 0.000123384 0.000269567)
(0.000266329 2.11693e-06 -8.79906e-06 0.000274251 0.000122667 0.000267679)
(0.000264027 2.72756e-06 -8.33993e-06 0.000272924 0.000121534 0.000265473)
(0.000261354 3.21277e-06 -7.71313e-06 0.000271131 0.000119675 0.000262949)
(0.000258068 3.23478e-06 -7.68939e-06 0.000267864 0.000117139 0.000259839)
(0.000254274 2.70193e-06 -9.03799e-06 0.000262997 0.000113817 0.000256226)
(0.000250255 1.91032e-06 -1.04235e-05 0.000258119 0.00010401 0.000252351)
(0.000246023 1.77834e-06 -1.08485e-05 0.000254938 9.49185e-05 0.000248212)
(0.000241967 2.44168e-06 -1.11312e-05 0.000252724 9.529e-05 0.000244237)
(0.000238514 3.08102e-06 -1.13233e-05 0.000250084 9.67659e-05 0.00024089)
(0.000235568 3.39253e-06 -1.1416e-05 0.00024693 9.49452e-05 0.000238066)
(0.000232799 3.51136e-06 -1.14634e-05 0.000243978 9.0758e-05 0.000235409)
(0.00023009 3.56235e-06 -1.1618e-05 0.000241691 8.57176e-05 0.000232782)
(0.000227851 3.55143e-06 -1.19928e-05 0.00023954 8.01266e-05 0.000230621)
(0.000226499 3.75748e-06 -1.23108e-05 0.000237105 7.71646e-05 0.000229432)
(0.000225597 4.38986e-06 -1.13106e-05 0.000235874 7.85121e-05 0.000228726)
(0.00022484 4.93826e-06 -9.08203e-06 0.000236109 7.9071e-05 0.00022806)
(0.000222954 5.05573e-06 -7.2258e-06 0.000234634 7.70322e-05 0.000226255)
(0.000217527 4.81723e-06 -6.28917e-06 0.000228466 7.34347e-05 0.000221036)
(0.000209962 3.53091e-06 -7.5712e-06 0.000218608 5.86784e-05 0.000213792)
(0.000202919 1.01184e-06 -9.11866e-06 0.000210732 3.16207e-05 0.0002069)
(0.00019657 3.42312e-07 -9.23826e-06 0.00020667 2.26294e-05 0.000200517)
(0.000191077 1.92873e-06 -9.25306e-06 0.000202998 3.45496e-05 0.000195041)
(0.000186542 2.98852e-06 -8.87496e-06 0.00019836 4.18134e-05 0.000190545)
(0.000182458 3.17927e-06 -8.0544e-06 0.000193455 4.10719e-05 0.000186496)
(0.00017847 3.01018e-06 -7.05102e-06 0.000188983 3.74192e-05 0.000182551)
(0.000174652 2.766e-06 -6.35519e-06 0.000184893 3.38602e-05 0.000178778)
(0.000171132 2.51553e-06 -6.05573e-06 0.000181003 3.04544e-05 0.000175272)
(0.000167923 2.34635e-06 -5.85563e-06 0.000177277 2.68097e-05 0.000172107)
(0.000165031 2.32837e-06 -5.57909e-06 0.000173752 2.27912e-05 0.000169367)
(0.000162461 2.42379e-06 -5.22989e-06 0.00017064 1.84229e-05 0.000166985)
(0.000160331 2.52485e-06 -4.88082e-06 0.0001681 1.41844e-05 0.000164795)
(0.000158728 2.57127e-06 -4.5462e-06 0.000166043 1.06384e-05 0.000162891)
(0.000157592 2.58205e-06 -4.20437e-06 0.000164396 7.78616e-06 0.000161486)
(0.000156919 2.59053e-06 -3.85853e-06 0.000163196 5.48081e-06 0.000160629)
(0.000156787 2.61266e-06 -3.52391e-06 0.000162458 3.72708e-06 0.000160354)
(0.000157279 2.66015e-06 -3.21433e-06 0.000162258 2.38859e-06 0.000160696)
(0.000158493 2.74812e-06 -2.93892e-06 0.0001627 1.10544e-06 0.000161746)
(0.000160473 2.88918e-06 -2.70764e-06 0.000164064 -5.00231e-07 0.00016359)
(0.00016328 3.20722e-06 -2.5171e-06 0.00016669 -9.25174e-07 0.000166366)
(0.000167388 4.14509e-06 -2.39444e-06 0.000170186 7.81358e-06 0.000170622)
(0.000173366 6.39945e-06 -2.59322e-06 0.000174103 3.39372e-05 0.000176724)
(0.000181238 6.90599e-06 -2.5632e-06 0.000178791 5.5243e-05 0.000184061)
(0.000189823 1.78546e-06 -1.43421e-06 0.00018515 3.21731e-05 0.000191976)
(0.000197972 5.39059e-06 -5.22107e-07 0.000194131 -1.27434e-05 0.000200614)
(0.000205753 5.48226e-06 -8.32323e-07 0.000201932 -6.01482e-05 0.000207746)
)
