/*--------------------------------*- C++ -*----------------------------------*\
| =========                 |                                                 |
| \\      /  F ield         | OpenFOAM: The Open Source CFD Toolbox           |
|  \\    /   O peration     | Version:  v1906                                 |
|   \\  /    A nd           | Web:      www.OpenFOAM.com                      |
|    \\/     M anipulation  |                                                 |
\*---------------------------------------------------------------------------*/
FoamFile
{
    version     2.0;
    format      ascii;
    class       volVectorField;
    location    "40";
    object      U;
}
// * * * * * * * * * * * * * * * * * * * * * * * * * * * * * * * * * * * * * //

dimensions      [0 1 -1 0 0 0 0];


internalField   nonuniform List<vector> 
2000
(
(2.76667e-06 0.0226968 -0.0010701)
(0.00986526 0.00144194 0.0327642)
(-0.000609742 -0.000424383 0.0537616)
(0.000597961 -0.000491504 0.062189)
(0.000191272 -0.000460971 0.0631851)
(-8.53926e-07 -0.000463419 0.063598)
(-0.000192273 -0.000460981 0.063185)
(-0.000598691 -0.000491565 0.0621917)
(0.00061087 -0.000424481 0.053771)
(-0.00986317 0.00144111 0.0327866)
(2.25426e-06 0.0350872 -0.00324157)
(0.0218367 -0.00197331 0.106511)
(0.00589452 -0.000515569 0.147)
(0.00411744 -0.000896075 0.159917)
(0.00198014 -0.000856167 0.16202)
(4.13393e-07 -0.000864853 0.162612)
(-0.00197858 -0.000856232 0.162019)
(-0.00411694 -0.000896266 0.159921)
(-0.00589342 -0.000515804 0.147016)
(-0.0218339 -0.00197282 0.106554)
(2.14718e-06 -0.0217965 0.0105346)
(0.0200759 0.00208431 0.173617)
(0.0075929 -7.14041e-05 0.21553)
(0.00501401 -0.000829427 0.226542)
(0.00245606 -0.000864922 0.229257)
(1.09974e-06 -0.000879738 0.229842)
(-0.00245323 -0.000864942 0.229257)
(-0.00501276 -0.000829651 0.226545)
(-0.00759206 -7.19257e-05 0.215545)
(-0.0200741 0.00208284 0.173662)
(1.66687e-06 0.0433149 0.0464111)
(0.0148922 0.000554141 0.226682)
(0.00710848 0.000157027 0.262823)
(0.00462581 -0.000634748 0.271208)
(0.00228385 -0.000764228 0.274061)
(1.25436e-06 -0.000785411 0.27462)
(-0.00228074 -0.000764199 0.274061)
(-0.00462437 -0.000634968 0.271212)
(-0.00710769 0.000156312 0.262836)
(-0.0148914 0.000553003 0.226723)
(9.17177e-07 0.00846272 0.101521)
(0.0141503 0.00157961 0.263599)
(0.00610046 0.000651374 0.29575)
(0.00398498 -0.000389619 0.302777)
(0.00199013 -0.000621968 0.305616)
(1.1662e-06 -0.00064882 0.306178)
(-0.00198721 -0.000621888 0.305616)
(-0.00398355 -0.000389819 0.302781)
(-0.00609967 0.000650458 0.295761)
(-0.0141498 0.00157804 0.263633)
(2.29838e-07 0.0145717 0.166359)
(0.0120327 0.00242079 0.290441)
(0.0051967 0.000985191 0.318749)
(0.00346044 -0.000161007 0.32579)
(0.00175352 -0.000493259 0.328661)
(9.83198e-07 -0.000524691 0.329262)
(-0.00175096 -0.000493144 0.328661)
(-0.00345907 -0.000161188 0.325793)
(-0.00519585 0.000984181 0.31876)
(-0.0120325 0.0024188 0.290469)
(-2.06359e-07 0.0177151 0.225315)
(0.0100076 0.00292168 0.309871)
(0.00455712 0.00120306 0.335581)
(0.00309688 2.6471e-05 0.343128)
(0.00159781 -0.000396982 0.346065)
(7.52966e-07 -0.000432124 0.346722)
(-0.00159573 -0.000396868 0.346066)
(-0.00309555 2.62777e-05 0.343132)
(-0.00455614 0.00120205 0.335591)
(-0.0100075 0.00291956 0.309895)
(-3.73655e-07 0.0170599 0.26972)
(0.00841731 0.00309205 0.324285)
(0.00414757 0.00131312 0.348108)
(0.00284627 0.000173212 0.356028)
(0.00149984 -0.00033546 0.359018)
(5.17153e-07 -0.000375819 0.359734)
(-0.00149826 -0.000335401 0.359018)
(-0.00284494 0.000172958 0.356031)
(-0.00414641 0.00131212 0.348118)
(-0.00841724 0.00309006 0.324305)
(-3.92522e-07 0.0146159 0.29989)
(0.00713137 0.0030922 0.335292)
(0.00388768 0.00125448 0.356278)
(0.00266145 0.000223243 0.363986)
(0.00143201 -0.000350135 0.366939)
(3.51691e-07 -0.000399871 0.367713)
(-0.00143081 -0.000350201 0.366939)
(-0.00266011 0.000222864 0.363988)
(-0.00388635 0.00125349 0.356286)
(-0.0071312 0.00309053 0.335308)
(-3.87487e-07 0.0119102 0.319375)
(0.00598077 0.00290834 0.34292)
(0.00370924 0.000968658 0.359331)
(0.0025206 8.3589e-05 0.366031)
(0.00137623 -0.00050336 0.368825)
(3.34524e-07 -0.000566224 0.369646)
(-0.00137515 -0.000503609 0.368825)
(-0.00251926 8.30696e-05 0.366033)
(-0.00370784 0.000967648 0.359337)
(-0.00598053 0.00290683 0.342932)
(1.48225e-06 0.00220468 0.031606)
(-0.00908512 -0.000226479 0.0643828)
(-0.00655213 -0.000207899 0.0801858)
(-0.00314881 -0.00011968 0.0861152)
(-0.00178889 -0.000145018 0.089017)
(-7.97591e-07 -0.000138944 0.089983)
(0.00178802 -0.000145055 0.0890189)
(0.00314818 -0.000119712 0.0861196)
(0.00655333 -0.000207947 0.0801973)
(0.00908584 -0.000226381 0.0643973)
(3.04033e-06 -0.00108338 0.0743631)
(-0.00475641 -0.00079883 0.144666)
(-0.00547224 -0.000869422 0.173473)
(-0.00190247 -0.000649746 0.184239)
(-0.00118133 -0.000649033 0.18842)
(2.0526e-07 -0.000640939 0.189834)
(0.00118239 -0.000649115 0.188422)
(0.00190254 -0.000649788 0.184245)
(0.00547284 -0.000869478 0.173491)
(0.00475582 -0.000798768 0.144694)
(2.83104e-06 0.00231338 0.108473)
(-0.00120661 -0.00152934 0.196549)
(-0.00258913 -0.00120524 0.229786)
(-0.000238278 -0.000974329 0.242343)
(-0.000298541 -0.000926946 0.24714)
(1.14036e-06 -0.000918507 0.248734)
(0.000301209 -0.000926999 0.247142)
(0.000239249 -0.000974212 0.242349)
(0.00258934 -0.00120518 0.229806)
(0.00120567 -0.00152944 0.196583)
(1.74932e-06 -0.000614866 0.142065)
(0.000661744 -0.00216251 0.236497)
(-0.00104943 -0.00142787 0.268632)
(0.000530518 -0.00118704 0.281007)
(0.000126133 -0.00108857 0.286185)
(1.61239e-06 -0.00108201 0.287858)
(-0.000122684 -0.00108853 0.286187)
(-0.000528995 -0.0011868 0.281013)
(0.00104954 -0.0014276 0.268652)
(-0.00066266 -0.00216266 0.236531)
(7.17581e-07 -0.00246282 0.181846)
(0.00156097 -0.00243524 0.27031)
(-0.000477369 -0.00147831 0.298507)
(0.000746817 -0.00133283 0.310055)
(0.000263974 -0.00118809 0.315433)
(1.75979e-06 -0.00118026 0.317134)
(-0.000260293 -0.00118792 0.315435)
(-0.000745007 -0.00133243 0.310061)
(0.000477573 -0.00147782 0.298525)
(-0.00156172 -0.00243533 0.27034)
(-7.13941e-08 -0.00248863 0.226557)
(0.00143649 -0.00260145 0.298593)
(-0.000373514 -0.00147684 0.321872)
(0.000728659 -0.00143959 0.332802)
(0.000278923 -0.00126103 0.338302)
(1.71412e-06 -0.00124642 0.340024)
(-0.000275324 -0.00126071 0.338304)
(-0.000726704 -0.00143896 0.332808)
(0.000373921 -0.0014762 0.321888)
(-0.00143705 -0.00260139 0.298618)
(-5.80957e-07 -0.00206472 0.270871)
(0.00104018 -0.00277293 0.321193)
(-0.000382373 -0.0014785 0.340285)
(0.000652888 -0.00152987 0.350848)
(0.000264425 -0.00132716 0.356425)
(1.55499e-06 -0.00130105 0.358178)
(-0.000261087 -0.00132669 0.356427)
(-0.000650849 -0.00152905 0.350854)
(0.000383094 -0.00147765 0.3403)
(-0.00104058 -0.00277249 0.321215)
(-8.57246e-07 -0.00183495 0.308089)
(0.000887001 -0.00290845 0.338803)
(-0.00035201 -0.00150005 0.354803)
(0.000586593 -0.00159862 0.365071)
(0.000256429 -0.0013834 0.370688)
(1.32355e-06 -0.00134266 0.372481)
(-0.000253462 -0.00138284 0.37069)
(-0.000584486 -0.00159768 0.365077)
(0.000353187 -0.0014989 0.354818)
(-0.000887164 -0.00290742 0.338822)
(-1.03108e-06 -0.00146631 0.334742)
(0.000946076 -0.00294312 0.352601)
(-0.000255876 -0.00151523 0.366202)
(0.000544628 -0.00162444 0.376105)
(0.000261622 -0.00141519 0.381735)
(1.03264e-06 -0.00136093 0.383569)
(-0.000259113 -0.00141463 0.381738)
(-0.000542446 -0.0016235 0.376113)
(0.000257675 -0.00151377 0.366216)
(-0.000945914 -0.00294097 0.352617)
(-1.35978e-06 -0.00104733 0.352371)
(0.0010709 -0.00284308 0.362975)
(-9.82667e-05 -0.00150453 0.37467)
(0.000529897 -0.00160603 0.384177)
(0.000280565 -0.00141985 0.389813)
(7.05179e-07 -0.00135983 0.391678)
(-0.000278561 -0.00141938 0.389816)
(-0.000527638 -0.00160525 0.384185)
(0.000100922 -0.00150326 0.374683)
(-0.00107047 -0.00283887 0.362989)
(1.93995e-06 7.7391e-05 0.0253057)
(-0.00588986 -9.26555e-05 0.0702617)
(-0.00279004 -4.0506e-06 0.0803178)
(-0.00191041 1.22236e-05 0.0829008)
(-0.00114825 4.01603e-06 0.0844894)
(-7.73645e-07 1.29552e-05 0.0847955)
(0.00114744 4.014e-06 0.08449)
(0.00190969 1.21959e-05 0.0829029)
(0.00279099 -4.07305e-06 0.0803235)
(0.00589137 -9.27071e-05 0.0702779)
(3.7729e-06 -2.55609e-05 0.0681258)
(-0.00920684 -0.000444767 0.159934)
(-0.00498664 -0.000333502 0.177726)
(-0.00282561 -0.000176646 0.181948)
(-0.00171827 -0.000180828 0.183928)
(-6.68764e-07 -0.000169025 0.184335)
(0.00171821 -0.000180853 0.183928)
(0.00282486 -0.000176734 0.18195)
(0.0049878 -0.00033353 0.177734)
(0.00920762 -0.000444991 0.159962)
(3.52571e-06 -2.98464e-05 0.10177)
(-0.00774198 -0.000976253 0.210335)
(-0.00451391 -0.000718397 0.2355)
(-0.00233052 -0.000422269 0.241308)
(-0.00146398 -0.000386842 0.243469)
(-2.32283e-07 -0.000376166 0.243982)
(0.00146487 -0.000386869 0.243469)
(0.00233017 -0.000422347 0.24131)
(0.00451493 -0.000718352 0.23551)
(0.0077424 -0.000976689 0.210369)
(2.75089e-06 -0.00125237 0.131747)
(-0.00582224 -0.00132221 0.243623)
(-0.00365372 -0.00102721 0.273105)
(-0.00177582 -0.000630864 0.279819)
(-0.00115922 -0.000547416 0.282166)
(7.29799e-08 -0.000540694 0.282756)
(0.00116067 -0.00054743 0.282166)
(0.00177583 -0.000630902 0.279822)
(0.00365466 -0.00102711 0.273116)
(0.00582267 -0.00132284 0.243659)
(1.97558e-06 -0.00173277 0.164229)
(-0.00435283 -0.00159115 0.271018)
(-0.00302192 -0.00124946 0.301199)
(-0.00142127 -0.000812742 0.308312)
(-0.000959729 -0.000677732 0.310816)
(1.91965e-07 -0.00067482 0.311458)
(0.000961344 -0.000677723 0.310816)
(0.0014215 -0.000812722 0.308315)
(0.00302287 -0.00124932 0.30121)
(0.00435351 -0.00159195 0.271051)
(1.28735e-06 -0.00234433 0.201084)
(-0.00343836 -0.00177442 0.294506)
(-0.00265647 -0.00139581 0.322861)
(-0.00123116 -0.000974089 0.330277)
(-0.000850655 -0.000787486 0.332926)
(1.61354e-07 -0.000785493 0.333608)
(0.00085216 -0.000787455 0.332925)
(0.00123152 -0.000974005 0.33028)
(0.0026575 -0.00139568 0.322871)
(0.00343934 -0.00177538 0.294534)
(7.53391e-07 -0.00259417 0.239697)
(-0.00286052 -0.00190544 0.313464)
(-0.00242224 -0.0014969 0.339358)
(-0.00110894 -0.00112544 0.347093)
(-0.000780897 -0.000889087 0.349884)
(3.5505e-08 -0.000882486 0.350609)
(0.000782122 -0.000889048 0.349884)
(0.00110937 -0.00112532 0.347096)
(0.00242339 -0.00149682 0.339368)
(0.00286168 -0.00190649 0.313487)
(4.01777e-07 -0.00249521 0.275183)
(-0.00232182 -0.00201448 0.327868)
(-0.00218818 -0.00157062 0.351501)
(-0.000979528 -0.00126391 0.359492)
(-0.000709084 -0.000982983 0.36237)
(-1.2675e-07 -0.000964448 0.36314)
(0.000709966 -0.000982966 0.362371)
(0.000980012 -0.00126381 0.359495)
(0.00218946 -0.0015706 0.351511)
(0.00232311 -0.00201552 0.327887)
(1.9321e-07 -0.00217265 0.303173)
(-0.0017248 -0.00209994 0.338675)
(-0.00189434 -0.00159748 0.359289)
(-0.000816232 -0.00135909 0.36704)
(-0.000617645 -0.0010477 0.369904)
(-2.50648e-07 -0.00100944 0.370718)
(0.000618247 -0.00104775 0.369904)
(0.00081677 -0.00135912 0.367042)
(0.00189575 -0.00159752 0.359297)
(0.00172619 -0.00210095 0.338689)
(7.36435e-08 -0.00179491 0.322688)
(-0.00109521 -0.00213431 0.345988)
(-0.00153916 -0.00155996 0.3621)
(-0.000630218 -0.00137038 0.368829)
(-0.000509609 -0.0010568 0.371557)
(-2.50882e-07 -0.000995619 0.372403)
(0.000510137 -0.00105696 0.371556)
(0.000630826 -0.0013706 0.36883)
(0.00154061 -0.00156005 0.362105)
(0.00109664 -0.00213508 0.345999)
(1.59518e-06 1.72109e-05 0.0599698)
(-0.00206765 -2.18905e-05 0.077419)
(-0.000586497 5.31041e-06 0.0836347)
(-0.000782549 -3.51216e-06 0.0878882)
(-0.000464094 -9.66879e-06 0.0909587)
(-2.6422e-07 -3.99586e-06 0.0918925)
(0.00046375 -9.66239e-06 0.0909598)
(0.000782027 -3.52102e-06 0.0878915)
(0.00058683 5.2833e-06 0.0836422)
(0.00206907 -2.19618e-05 0.0774322)
(2.32734e-06 -0.000159811 0.137063)
(-0.00427686 -0.000219174 0.170698)
(-0.00188112 -0.0001494 0.182988)
(-0.00143547 -0.000101267 0.190023)
(-0.000907558 -0.000114936 0.194488)
(4.28456e-08 -0.000106308 0.195908)
(0.000907937 -0.000114899 0.194489)
(0.00143517 -0.000101282 0.190027)
(0.00188176 -0.000149449 0.183)
(0.00427813 -0.000219378 0.170721)
(1.93917e-06 -0.000606435 0.179066)
(-0.00395235 -0.000509516 0.220832)
(-0.00193051 -0.000396403 0.239199)
(-0.00121414 -0.000275776 0.248054)
(-0.00081482 -0.000276782 0.252966)
(5.29953e-07 -0.000272999 0.25462)
(0.00081611 -0.000276696 0.252968)
(0.00121438 -0.000275751 0.248058)
(0.00193115 -0.0003964 0.239213)
(0.00395302 -0.00050978 0.220859)
(1.42776e-06 -0.00122387 0.207409)
(-0.00307268 -0.000777145 0.252723)
(-0.00152096 -0.000620954 0.274729)
(-0.000821663 -0.00043742 0.284727)
(-0.000597062 -0.000415644 0.289923)
(8.9915e-07 -0.000419551 0.2917)
(0.000598996 -0.000415492 0.289925)
(0.000822364 -0.000437316 0.284732)
(0.00152156 -0.000620864 0.274744)
(0.00307299 -0.000777424 0.252751)
(9.82523e-07 -0.00182311 0.23325)
(-0.00228348 -0.0010266 0.27867)
(-0.001117 -0.000809901 0.301642)
(-0.000516136 -0.000577018 0.312128)
(-0.000416936 -0.000525533 0.317519)
(1.10316e-06 -0.000537815 0.319348)
(0.000419209 -0.000525301 0.31752)
(0.000517146 -0.000576801 0.312133)
(0.00111761 -0.000809699 0.301657)
(0.00228373 -0.00102687 0.278697)
(6.34768e-07 -0.00239573 0.260343)
(-0.00173105 -0.00121611 0.302133)
(-0.000861967 -0.000953215 0.323674)
(-0.000346579 -0.0006913 0.334244)
(-0.000310299 -0.000605048 0.339773)
(1.1487e-06 -0.000624993 0.341628)
(0.000312634 -0.000604732 0.339775)
(0.000347759 -0.000690947 0.334249)
(0.000862689 -0.000952897 0.323689)
(0.00173147 -0.00121638 0.302158)
(4.21606e-07 -0.00272549 0.288809)
(-0.00140453 -0.00134106 0.323)
(-0.000750869 -0.00105949 0.34168)
(-0.000282584 -0.000792026 0.352085)
(-0.000264403 -0.000668184 0.357713)
(1.06097e-06 -0.000693644 0.359588)
(0.000266576 -0.000667793 0.357715)
(0.000283824 -0.000791536 0.35209)
(0.000751784 -0.00105907 0.341694)
(0.00140525 -0.00134133 0.323021)
(3.71509e-07 -0.00273624 0.315802)
(-0.00118624 -0.00143794 0.340069)
(-0.000711331 -0.00114986 0.355865)
(-0.000266715 -0.000891943 0.365995)
(-0.000248873 -0.000732022 0.371716)
(8.77904e-07 -0.000759181 0.373621)
(0.000250732 -0.000731584 0.371718)
(0.000267943 -0.000891349 0.366001)
(0.0007125 -0.00114936 0.355878)
(0.00118734 -0.00143822 0.340086)
(4.59406e-07 -0.0025433 0.337947)
(-0.000963645 -0.00153647 0.353266)
(-0.000676685 -0.00122864 0.366787)
(-0.000255606 -0.000996634 0.376638)
(-0.000239586 -0.000806497 0.382437)
(6.35201e-07 -0.000830434 0.384377)
(0.000241042 -0.00080605 0.38244)
(0.000256773 -0.000996002 0.376645)
(0.000678135 -0.0012281 0.366799)
(0.000965145 -0.00153672 0.35328)
(5.82146e-07 -0.00231801 0.353624)
(-0.000704838 -0.00164141 0.362871)
(-0.000617038 -0.00128959 0.374795)
(-0.000231191 -0.00109626 0.384376)
(-0.000226146 -0.000887918 0.390231)
(3.72436e-07 -0.000904478 0.3922)
(0.000227177 -0.000887519 0.390234)
(0.000232268 -0.00109569 0.384384)
(0.000618756 -0.00128907 0.374808)
(0.000706701 -0.00164169 0.362883)
(1.36102e-06 -2.97898e-05 0.0457363)
(-0.0019325 -1.85602e-05 0.076225)
(-0.000259047 1.70638e-06 0.0826057)
(-0.000537779 4.89344e-07 0.083409)
(-0.000201626 3.93741e-06 0.0841804)
(-2.00869e-07 9.02139e-06 0.0841267)
(0.00020161 3.93998e-06 0.0841798)
(0.000537501 4.97021e-07 0.0834095)
(0.00025926 1.71844e-06 0.0826084)
(0.0019333 -1.85771e-05 0.0762387)
(2.81364e-06 -0.000190242 0.113235)
(-0.0048171 -0.00010166 0.172664)
(-0.00143251 -8.91408e-05 0.183379)
(-0.0014438 -9.62882e-06 0.184601)
(-0.000727432 -7.07252e-06 0.185773)
(-3.77008e-07 9.09757e-06 0.185773)
(0.000727591 -7.05596e-06 0.185771)
(0.00144328 -9.61279e-06 0.184602)
(0.0014333 -8.91143e-05 0.183383)
(0.00481842 -0.000101812 0.172686)
(2.94769e-06 -0.000362794 0.153665)
(-0.00557073 -0.000221602 0.225961)
(-0.00217599 -0.000272593 0.242537)
(-0.00182298 -7.13849e-05 0.245135)
(-0.000987014 -6.68382e-05 0.246672)
(-3.69467e-07 -4.65221e-05 0.246885)
(0.000987437 -6.68076e-05 0.246671)
(0.00182248 -7.13731e-05 0.245136)
(0.00217709 -0.00027255 0.242542)
(0.00557228 -0.00022192 0.225987)
(2.64138e-06 -0.000556335 0.18045)
(-0.00515289 -0.000353289 0.257121)
(-0.00235515 -0.000490262 0.278773)
(-0.00182254 -0.000169585 0.282888)
(-0.00101823 -0.000158099 0.284723)
(-2.94174e-07 -0.000138712 0.285125)
(0.00101887 -0.000158058 0.284722)
(0.00182218 -0.00016958 0.28289)
(0.0023564 -0.000490214 0.27878)
(0.00515455 -0.00035377 0.257148)
(2.21582e-06 -0.000810007 0.203939)
(-0.00433416 -0.00049476 0.279711)
(-0.00222743 -0.000705746 0.304339)
(-0.00165796 -0.000287798 0.30974)
(-0.000946043 -0.000263187 0.311804)
(-2.29406e-07 -0.000247879 0.312335)
(0.00094679 -0.00026314 0.311803)
(0.00165778 -0.000287804 0.309741)
(0.00222876 -0.000705703 0.304347)
(0.00433589 -0.000495381 0.279738)
(1.75242e-06 -0.00107589 0.228196)
(-0.00346367 -0.00060612 0.298617)
(-0.00198254 -0.000888908 0.324197)
(-0.0014508 -0.000410306 0.330448)
(-0.000845537 -0.000365638 0.332698)
(-2.14231e-07 -0.000356369 0.333303)
(0.000846262 -0.000365594 0.332698)
(0.00145077 -0.000410331 0.33045)
(0.00198394 -0.000888886 0.324206)
(0.00346546 -0.000606868 0.298643)
(1.30333e-06 -0.0012681 0.254578)
(-0.00270354 -0.000667726 0.315121)
(-0.0017275 -0.00101841 0.339948)
(-0.00125572 -0.000527515 0.346744)
(-0.000752134 -0.000456042 0.349154)
(-2.58036e-07 -0.000453553 0.349807)
(0.000752714 -0.000456023 0.349154)
(0.00125581 -0.000527582 0.346746)
(0.00172899 -0.00101843 0.339957)
(0.0027054 -0.000668578 0.315143)
(9.29819e-07 -0.00128648 0.281599)
(-0.00208235 -0.000689128 0.328897)
(-0.0014972 -0.00109535 0.351703)
(-0.00107824 -0.00063946 0.358831)
(-0.000672181 -0.000535187 0.361365)
(-3.35866e-07 -0.000538424 0.362066)
(0.000672546 -0.000535225 0.361365)
(0.00107842 -0.000639603 0.358833)
(0.00149876 -0.00109542 0.351711)
(0.00208426 -0.000690051 0.328915)
(6.68408e-07 -0.00111769 0.305553)
(-0.00154522 -0.000689936 0.339403)
(-0.00127857 -0.00112297 0.359006)
(-0.000902625 -0.000739421 0.365963)
(-0.000597537 -0.000601047 0.368531)
(-3.85454e-07 -0.000606915 0.369278)
(0.000597728 -0.000601182 0.368531)
(0.000902877 -0.000739685 0.365965)
(0.00128016 -0.00112309 0.359013)
(0.00154713 -0.000690884 0.339416)
(4.88321e-07 -0.000855555 0.32354)
(-0.00104021 -0.000685091 0.346064)
(-0.00105367 -0.00109596 0.361174)
(-0.000723296 -0.000803187 0.367213)
(-0.000521965 -0.000638487 0.369679)
(-3.30108e-07 -0.000640956 0.370457)
(0.000522158 -0.000638734 0.369678)
(0.000723611 -0.000803587 0.367214)
(0.0010552 -0.00109611 0.361178)
(0.00104206 -0.000686012 0.346073)
(1.00946e-06 4.24116e-05 0.0817211)
(-0.000458316 1.32494e-05 0.0800717)
(-0.000243516 1.58964e-07 0.0841034)
(-0.000409808 -1.68081e-05 0.0875034)
(-0.000149841 -1.82968e-05 0.0901005)
(5.81106e-08 -2.09361e-05 0.0909366)
(0.000150005 -1.83018e-05 0.0901012)
(0.00040977 -1.68049e-05 0.0875054)
(0.000243439 1.48604e-07 0.0841088)
(0.000459017 1.32485e-05 0.0800814)
(1.70403e-06 -8.87952e-05 0.174091)
(-0.00120177 -5.9048e-05 0.176399)
(-0.000317696 -9.07767e-05 0.183979)
(-0.00057922 -0.000105939 0.189184)
(-0.000219717 -0.000114169 0.192986)
(3.50573e-07 -0.000116835 0.194174)
(0.000220428 -0.000114162 0.192987)
(0.000579411 -0.000105897 0.189187)
(0.000317705 -9.07916e-05 0.183988)
(0.00120277 -5.9058e-05 0.176416)
(1.54792e-06 -0.000374855 0.219339)
(-0.00143502 -0.000196079 0.230102)
(-0.000277173 -0.000228613 0.241584)
(-0.000491755 -0.000201989 0.247903)
(-0.000192149 -0.000214934 0.252195)
(6.65023e-07 -0.000216395 0.253554)
(0.000193444 -0.000214894 0.252196)
(0.000492321 -0.000201878 0.247906)
(0.000277326 -0.000228603 0.241595)
(0.0014358 -0.000196096 0.230123)
(1.29054e-06 -0.000701938 0.246579)
(-0.00142033 -0.000343581 0.262926)
(-0.000240142 -0.000367626 0.277775)
(-0.000375296 -0.000282514 0.2852)
(-0.000144461 -0.000296195 0.289845)
(8.92761e-07 -0.000296526 0.291349)
(0.000146184 -0.000296108 0.289846)
(0.00037618 -0.000282312 0.285204)
(0.000240421 -0.00036756 0.277787)
(0.00142088 -0.000343604 0.262949)
(1.06241e-06 -0.00103594 0.268272)
(-0.00131033 -0.000490592 0.287385)
(-0.000207436 -0.00050555 0.304241)
(-0.000277723 -0.000350825 0.312612)
(-9.80327e-05 -0.00035985 0.317515)
(1.02769e-06 -0.000358713 0.319129)
(0.000100016 -0.000359699 0.317516)
(0.000278836 -0.000350511 0.312616)
(0.000207837 -0.000505408 0.304254)
(0.00131078 -0.000490628 0.287408)
(8.74374e-07 -0.00134639 0.288429)
(-0.00114193 -0.00061618 0.308069)
(-0.000174705 -0.000628974 0.325361)
(-0.000207116 -0.000404631 0.33434)
(-6.13358e-05 -0.000404069 0.339431)
(1.07119e-06 -0.000401117 0.341118)
(6.34155e-05 -0.000403836 0.339433)
(0.000208373 -0.000404195 0.334344)
(0.000175254 -0.000628739 0.325374)
(0.00114244 -0.000616231 0.30809)
(7.42299e-07 -0.00157425 0.30815)
(-0.000945524 -0.000704267 0.326258)
(-0.000147872 -0.000733532 0.342611)
(-0.000163152 -0.00044639 0.351822)
(-3.89977e-05 -0.000431812 0.357054)
(1.0265e-06 -0.00042696 0.358787)
(4.10184e-05 -0.000431482 0.357055)
(0.000164472 -0.000445838 0.351827)
(0.00014861 -0.000733202 0.342623)
(0.000946233 -0.000704334 0.326277)
(6.86371e-07 -0.00167882 0.327001)
(-0.000756786 -0.000757866 0.341818)
(-0.000132791 -0.000812128 0.356304)
(-0.000138799 -0.000481481 0.365532)
(-3.02864e-05 -0.000450145 0.370893)
(9.05857e-07 -0.000444125 0.372669)
(3.21154e-05 -0.000449721 0.370895)
(0.000140117 -0.000480845 0.365538)
(0.000133754 -0.000811726 0.356316)
(0.000757789 -0.000757953 0.341834)
(7.01867e-07 -0.00167012 0.343565)
(-0.000586246 -0.000791237 0.354365)
(-0.000123391 -0.000865301 0.36686)
(-0.000121488 -0.000514461 0.375992)
(-2.95913e-05 -0.000465728 0.381475)
(7.28073e-07 -0.000459934 0.383292)
(3.11293e-05 -0.000465243 0.381477)
(0.000122752 -0.000513802 0.375998)
(0.0001246 -0.000864862 0.366871)
(0.000587579 -0.000791338 0.354378)
(7.27024e-07 -0.00159262 0.356116)
(-0.000422734 -0.000811967 0.363437)
(-0.000106027 -0.000892135 0.374473)
(-9.94071e-05 -0.000550199 0.383471)
(-3.11586e-05 -0.000487654 0.389066)
(5.17098e-07 -0.000483842 0.390918)
(3.23479e-05 -0.000487171 0.389069)
(0.000100586 -0.000549606 0.383478)
(0.000107482 -0.000891711 0.374485)
(0.000424352 -0.000812098 0.363449)
(4.50143e-07 -5.60544e-05 0.0505824)
(-0.00120636 -1.52017e-05 0.0801915)
(-4.25101e-05 8.48933e-06 0.0861181)
(-0.000242208 2.20146e-05 0.08639)
(-5.37862e-05 2.84235e-05 0.0868041)
(2.91274e-08 3.2745e-05 0.0867068)
(5.42305e-05 2.84344e-05 0.0868031)
(0.000242334 2.20315e-05 0.086389)
(4.27563e-05 8.51459e-06 0.0861184)
(0.00120649 -1.51988e-05 0.0801994)
(1.89248e-06 6.66323e-05 0.129328)
(-0.00347691 2.47202e-06 0.180588)
(-0.00120416 -7.9797e-07 0.189223)
(-0.00122213 6.64846e-05 0.189346)
(-0.000558877 7.37155e-05 0.189898)
(-2.72399e-07 8.64438e-05 0.189769)
(0.000559287 7.37397e-05 0.189897)
(0.00122194 6.65341e-05 0.189345)
(0.00120485 -7.31192e-07 0.189224)
(0.00347794 2.47074e-06 0.180601)
(2.72446e-06 0.000181649 0.17731)
(-0.00443973 -6.89941e-06 0.23522)
(-0.00201745 -0.00010461 0.248165)
(-0.00177608 3.79212e-05 0.249382)
(-0.000875141 4.18735e-05 0.25029)
(-4.64383e-07 5.8419e-05 0.250306)
(0.000875439 4.18946e-05 0.250289)
(0.00177565 3.79817e-05 0.249381)
(0.00201843 -0.00010455 0.248167)
(0.00444156 -7.06918e-06 0.235238)
(2.74527e-06 0.000264858 0.204119)
(-0.00435259 -7.13249e-05 0.265726)
(-0.0022778 -0.000268482 0.283108)
(-0.00189945 -4.72526e-05 0.285788)
(-0.000966835 -4.83246e-05 0.287068)
(-5.14934e-07 -2.78669e-05 0.287257)
(0.000967113 -4.83054e-05 0.287067)
(0.00189899 -4.71984e-05 0.285788)
(0.00227898 -0.000268462 0.283113)
(0.00435483 -7.16716e-05 0.265747)
(2.45003e-06 0.000117624 0.22439)
(-0.00378584 -0.000170009 0.286538)
(-0.00223012 -0.000459126 0.307377)
(-0.00180889 -0.00016969 0.311383)
(-0.000940742 -0.000173563 0.312967)
(-5.09093e-07 -0.000149586 0.313295)
(0.000941027 -0.000173548 0.312966)
(0.00180853 -0.000169658 0.311383)
(0.00223144 -0.000459163 0.307383)
(0.00378821 -0.000170489 0.286561)
(2.0673e-06 -6.20231e-05 0.243862)
(-0.00311152 -0.000276951 0.303299)
(-0.00204566 -0.000640643 0.326205)
(-0.00163488 -0.000302436 0.331256)
(-0.000866147 -0.000304005 0.333083)
(-5.05048e-07 -0.000280227 0.333512)
(0.000866398 -0.00030401 0.333082)
(0.00163465 -0.000302446 0.331257)
(0.00204709 -0.000640747 0.326212)
(0.00311389 -0.000277551 0.303321)
(1.66578e-06 -0.000267201 0.264976)
(-0.00248805 -0.000360192 0.317988)
(-0.00182102 -0.000788728 0.341227)
(-0.00144526 -0.000431653 0.347039)
(-0.000780853 -0.000425459 0.349062)
(-5.28706e-07 -0.000403256 0.349566)
(0.000781003 -0.000425499 0.349062)
(0.00144516 -0.000431733 0.34704)
(0.00182253 -0.000788908 0.341234)
(0.00249038 -0.000360889 0.318008)
(1.28383e-06 -0.000405369 0.287863)
(-0.00194846 -0.000406161 0.330777)
(-0.00159931 -0.000899722 0.352521)
(-0.00126597 -0.000554846 0.358777)
(-0.000700997 -0.000535022 0.360941)
(-5.67074e-07 -0.000513866 0.361505)
(0.000701007 -0.000535118 0.360941)
(0.00126597 -0.000555033 0.358779)
(0.00160085 -0.000899976 0.352527)
(0.00195073 -0.000406921 0.330793)
(9.72051e-07 -0.000409021 0.309455)
(-0.00147697 -0.000428685 0.340904)
(-0.00138667 -0.000965453 0.359462)
(-0.00109696 -0.000656276 0.365613)
(-0.000628344 -0.000618172 0.367813)
(-5.62451e-07 -0.00059546 0.368428)
(0.000628273 -0.000618346 0.367812)
(0.00109704 -0.000656602 0.365613)
(0.00138819 -0.000965761 0.359467)
(0.00147917 -0.00042948 0.340916)
(7.4365e-07 -0.000320136 0.326056)
(-0.00105097 -0.00045033 0.347188)
(-0.0011802 -0.000978465 0.361203)
(-0.000935479 -0.000703756 0.366503)
(-0.000561254 -0.000644595 0.368606)
(-4.46938e-07 -0.000615715 0.369255)
(0.00056128 -0.000644853 0.368605)
(0.000935621 -0.000704212 0.366503)
(0.0011816 -0.000978771 0.361207)
(0.00105306 -0.000451093 0.347197)
(7.01036e-07 3.38606e-05 0.0870794)
(0.000488454 4.33582e-05 0.07648)
(0.000455672 4.75987e-06 0.0807527)
(0.000373109 -1.05943e-05 0.0840772)
(0.000304628 -1.41836e-05 0.0866326)
(3.41238e-07 -2.02268e-05 0.0874875)
(-0.000304211 -1.41852e-05 0.0866329)
(-0.000373053 -1.06127e-05 0.0840785)
(-0.000455953 4.72789e-06 0.0807579)
(-0.000488017 4.32955e-05 0.0764892)
(5.78793e-07 -0.00024943 0.184358)
(0.000908337 7.58326e-05 0.173483)
(0.00134221 4.34523e-06 0.180454)
(0.000802902 -1.95675e-05 0.185311)
(0.000593096 -3.04238e-05 0.188975)
(9.34851e-07 -3.8987e-05 0.19013)
(-0.000591647 -3.04094e-05 0.188976)
(-0.000802065 -1.95674e-05 0.185312)
(-0.00134239 4.25515e-06 0.180461)
(-0.000908258 7.56828e-05 0.173499)
(2.84817e-07 -0.000424224 0.236934)
(0.000758176 0.000106432 0.23225)
(0.00151923 3.74556e-05 0.241049)
(0.00084268 4.14492e-05 0.246396)
(0.000610901 1.66308e-05 0.250456)
(1.23205e-06 9.14833e-06 0.251708)
(-0.000608862 1.66825e-05 0.250456)
(-0.000841348 4.15107e-05 0.246398)
(-0.00151924 3.7381e-05 0.241057)
(-0.000758472 0.000106264 0.232268)
(1.29624e-07 -0.000692221 0.269462)
(0.000383962 0.000160749 0.268928)
(0.00130239 7.1722e-05 0.279399)
(0.000713124 0.000119708 0.285433)
(0.000531918 8.16542e-05 0.289798)
(1.35185e-06 7.8661e-05 0.291158)
(-0.000529613 8.17583e-05 0.289799)
(-0.000711569 0.000119859 0.285435)
(-0.00130225 7.17251e-05 0.279408)
(-0.000384393 0.000160587 0.268947)
(9.7149e-08 -0.000535399 0.292507)
(2.87399e-05 0.000199102 0.294411)
(0.00104282 9.63617e-05 0.306495)
(0.000583965 0.000206455 0.31339)
(0.00045518 0.000159148 0.317996)
(1.38769e-06 0.000163345 0.319459)
(-0.000452771 0.000159311 0.317996)
(-0.000582312 0.000206719 0.313392)
(-0.00104253 9.64716e-05 0.306505)
(-2.91249e-05 0.000198975 0.29443)
(1.37602e-07 -0.000450187 0.310381)
(-0.000130795 0.000235695 0.313815)
(0.000868943 0.000103816 0.327186)
(0.000507711 0.000291097 0.334918)
(0.000407235 0.00023799 0.339723)
(1.37409e-06 0.000249429 0.341275)
(-0.000404819 0.000238219 0.339724)
(-0.000506018 0.00029149 0.334921)
(-0.000868484 0.000104045 0.327197)
(0.000130573 0.000235606 0.313833)
(2.2897e-07 -0.000332398 0.325034)
(-0.000111966 0.000278645 0.329883)
(0.000785207 0.000112288 0.343639)
(0.000479293 0.000375292 0.351987)
(0.000383334 0.000321054 0.356971)
(1.31496e-06 0.000337887 0.358596)
(-0.000380992 0.000321348 0.356972)
(-0.000477594 0.000375811 0.351991)
(-0.000784557 0.000112635 0.34365)
(0.000111998 0.000278577 0.3299)
(3.507e-07 -0.000225491 0.337542)
(-6.83657e-06 0.000340604 0.3437)
(0.000752701 0.000139948 0.356831)
(0.000476056 0.000461156 0.365472)
(0.000369963 0.000409963 0.370612)
(1.20189e-06 0.000428612 0.3723)
(-0.000367787 0.000410315 0.370614)
(-0.000474385 0.000461778 0.365477)
(-0.000751841 0.00014038 0.356842)
(7.19157e-06 0.000340508 0.343715)
(4.69195e-07 -0.000165933 0.348615)
(0.000106305 0.000427494 0.355267)
(0.00074011 0.000189625 0.367147)
(0.000482637 0.000535054 0.375834)
(0.000358075 0.000490075 0.381114)
(1.02473e-06 0.000505429 0.382854)
(-0.000356169 0.000490466 0.381116)
(-0.000481028 0.000535722 0.375839)
(-0.000739027 0.000190085 0.367158)
(-0.000105609 0.000427376 0.35528)
(5.24368e-07 -0.000101154 0.357991)
(0.000200648 0.000531913 0.363905)
(0.000734836 0.00024185 0.374509)
(0.000493986 0.000565181 0.38316)
(0.0003448 0.000526186 0.388574)
(7.85511e-07 0.000533133 0.390358)
(-0.000343264 0.00052658 0.388576)
(-0.000492462 0.000565793 0.383166)
(-0.000733503 0.000242254 0.37452)
(-0.000199649 0.000531698 0.363916)
(-1.3382e-07 -0.000102547 0.0556122)
(0.000394203 6.81653e-05 0.082322)
(0.00155833 0.000124311 0.0890631)
(0.000973502 0.000121417 0.0900397)
(0.000460427 0.000114455 0.0909603)
(1.95645e-07 0.000115265 0.0911452)
(-0.000459695 0.000114464 0.0909594)
(-0.000973201 0.000121429 0.0900395)
(-0.00155812 0.000124356 0.0890639)
(-0.000394426 6.81774e-05 0.0823287)
(1.54809e-06 0.00109921 0.144077)
(-0.00242832 0.000197241 0.183383)
(-0.000703378 0.000191278 0.192284)
(-0.000464608 0.00019205 0.19295)
(-0.000225111 0.000172055 0.193865)
(-2.1467e-07 0.000174117 0.193994)
(0.000225476 0.000172084 0.193863)
(0.000464123 0.000192067 0.192949)
(0.000703882 0.000191323 0.192284)
(0.0024295 0.00019712 0.183391)
(2.73199e-06 0.000139752 0.187484)
(-0.00347908 0.000307716 0.235813)
(-0.00165684 0.000124637 0.248547)
(-0.00110975 0.000134134 0.250221)