/*--------------------------------*- C++ -*----------------------------------*\
| =========                 |                                                 |
| \\      /  F ield         | OpenFOAM: The Open Source CFD Toolbox           |
|  \\    /   O peration     | Version:  v1906                                 |
|   \\  /    A nd           | Web:      www.OpenFOAM.com                      |
|    \\/     M anipulation  |                                                 |
\*---------------------------------------------------------------------------*/
FoamFile
{
    version     2.0;
    format      ascii;
    class       volVectorField;
    location    "40";
    object      wallShearStress;
}
// * * * * * * * * * * * * * * * * * * * * * * * * * * * * * * * * * * * * * //

dimensions      [1 -1 -2 0 0 0 0];


internalField   uniform (0 0 0);

boundaryField
{
    leftWall
    {
        type            calculated;
        value           nonuniform List<vector> 
100
(
(-1.52284e-05 -0.164713 0.00569445)
(-8.10257e-06 -0.0166611 -0.172111)
(-1.06233e-05 -0.000643843 -0.138421)
(-8.73831e-06 0.000117822 -0.32823)
(-7.45105e-06 0.000513734 -0.250331)
(-5.5252e-06 -0.000247359 -0.447285)
(-2.46347e-06 0.000381206 -0.276853)
(-3.84349e-06 -4.94104e-05 -0.476611)
(7.33697e-07 -0.000194636 -0.304305)
(1.62825e-05 0.0147395 -0.266692)
(-0.0516006 -0.010132 -0.179295)
(0.0499757 0.0021713 -0.352328)
(0.0322455 0.000820972 -0.384573)
(0.0113182 0.000273576 -0.423742)
(0.0105739 0.000186163 -0.417205)
(0.00251289 -1.08542e-05 -0.438258)
(0.00659608 1.49523e-05 -0.438915)
(-0.00267045 -0.000229823 -0.418602)
(-0.0021811 -0.00113637 -0.450598)
(-0.0699447 -0.00535437 -0.260875)
(0.0035376 0.00299199 -0.294228)
(0.0358508 0.00261491 -0.438899)
(0.0152599 0.000393703 -0.439613)
(0.00320818 0.000109247 -0.45776)
(0.00141587 9.60049e-05 -0.452127)
(0.00133596 9.31556e-05 -0.460325)
(0.000228816 -8.21433e-05 -0.471352)
(-0.00248845 3.35656e-05 -0.44199)
(-0.00853476 -0.00141681 -0.487488)
(-0.0512488 -0.00474502 -0.325804)
(-0.00326904 0.00413884 -0.340361)
(0.0172279 0.00173874 -0.471356)
(0.0104555 7.00938e-05 -0.453747)
(0.0042847 4.72461e-05 -0.48104)
(0.00294321 -9.56966e-06 -0.456524)
(0.00224492 0.00020633 -0.478935)
(0.00132362 -0.000250169 -0.47284)
(-0.00204018 0.000161404 -0.460185)
(-0.00532726 -0.00140576 -0.492831)
(-0.0317739 -0.00391817 -0.36635)
(-0.0010498 0.0038078 -0.345812)
(0.00979314 0.00182744 -0.487237)
(0.00628466 0.000152858 -0.462442)
(0.00254019 0.000116585 -0.497846)
(0.00110268 -1.38333e-05 -0.460746)
(0.000820556 0.000229778 -0.49315)
(0.000293278 -0.000280512 -0.475107)
(-0.00166633 0.000185401 -0.474171)
(-0.00251943 -0.00132583 -0.49787)
(-0.0161451 -0.00394646 -0.384675)
(4.67476e-06 0.00383972 -0.348072)
(4.36931e-06 0.00180998 -0.492524)
(4.23462e-06 0.000113451 -0.464118)
(1.4455e-06 7.5919e-05 -0.502957)
(1.09915e-06 -6.27424e-05 -0.460452)
(-3.17537e-07 0.000240314 -0.497726)
(-1.60552e-07 -0.00032083 -0.474574)
(-1.86754e-06 0.000220507 -0.47885)
(-1.07178e-06 -0.00132438 -0.498882)
(-9.00793e-06 -0.00393255 -0.390133)
(0.00105529 0.00380798 -0.345811)
(-0.00978842 0.0018278 -0.487247)
(-0.00628021 0.00015291 -0.462446)
(-0.0025383 0.000116505 -0.497852)
(-0.00110259 -1.38561e-05 -0.460742)
(-0.000821456 0.000229795 -0.493153)
(-0.000295711 -0.000280595 -0.475101)
(0.00166405 0.000185374 -0.474173)
(0.00251542 -0.0013259 -0.497866)
(0.0161287 -0.00394652 -0.384676)
(0.00327305 0.00413949 -0.340376)
(-0.0172245 0.0017391 -0.47138)
(-0.0104515 7.03904e-05 -0.453758)
(-0.00428183 4.73165e-05 -0.481058)
(-0.00294168 -9.64425e-06 -0.456526)
(-0.00224472 0.000206253 -0.478946)
(-0.00132431 -0.000250323 -0.472835)
(0.00203988 0.000161508 -0.460192)
(0.00532562 -0.00140586 -0.49283)
(0.0317596 -0.00391828 -0.366362)
(-0.0035437 0.00299296 -0.29428)
(-0.0358574 0.00261526 -0.438962)
(-0.0152651 0.000393917 -0.439645)
(-0.00321 0.000109502 -0.457801)
(-0.00141704 9.59379e-05 -0.452142)
(-0.00133553 9.32187e-05 -0.460354)
(-0.000230162 -8.23308e-05 -0.471354)
(0.00248999 3.3839e-05 -0.442019)
(0.00853358 -0.00141708 -0.487493)
(0.0512469 -0.00474485 -0.325854)
(0.0515891 -0.0101258 -0.179418)
(-0.0499796 0.00217054 -0.352408)
(-0.0322538 0.000821515 -0.384662)
(-0.0113259 0.000274226 -0.423814)
(-0.0105783 0.000186368 -0.41728)
(-0.00251673 -1.08523e-05 -0.438311)
(-0.00659681 1.4967e-05 -0.438958)
(0.00266805 -0.000229279 -0.418653)
(0.00218232 -0.00113625 -0.450635)
(0.0699593 -0.0053549 -0.260978)
)
;
    }
    rightWall
    {
        type            calculated;
        value           nonuniform List<vector> 
100
(
(-3.95546e-07 0.00767929 -0.675704)
(8.28661e-06 0.00184619 -0.479549)
(9.38577e-07 0.000324924 -0.3739)
(-4.05703e-06 -0.000342043 -0.371395)
(-2.20673e-07 -0.000138087 -0.345423)
(-2.25075e-06 -1.6248e-05 -0.378704)
(2.81004e-06 -0.000126726 -0.338072)
(-1.41816e-06 8.85612e-05 -0.398325)
(3.95029e-06 -0.00366448 -0.313139)
(1.17496e-05 -0.00588927 -0.76516)
(-0.0065099 0.0081046 -0.662269)
(0.0134367 0.00183823 -0.469425)
(0.00675613 0.000188686 -0.35724)
(0.00507625 -0.000303898 -0.373666)
(-0.00113242 -0.000198596 -0.336909)
(0.00384488 -9.05081e-05 -0.389246)
(-0.00349175 -0.000123872 -0.33234)
(0.00140443 -9.80233e-05 -0.413892)
(-0.0113803 -0.0034621 -0.306698)
(-0.0318828 -0.00529519 -0.796037)
(0.00191873 0.00745979 -0.655811)
(0.0224092 0.000642409 -0.49496)
(0.0105522 8.15565e-05 -0.381658)
(0.0061292 -0.000230726 -0.40511)
(-0.0010328 -9.12215e-05 -0.348715)
(0.00404152 -8.49493e-05 -0.410116)
(-0.00350786 3.82962e-05 -0.336753)
(-0.000351531 -0.000140112 -0.43276)
(-0.0132532 -0.00304182 -0.309417)
(-0.043052 -0.00473083 -0.823694)
(0.00362274 0.00697664 -0.665972)
(0.0153465 0.000603966 -0.516189)
(0.00648129 0.000343968 -0.392481)
(0.00441245 -0.000196211 -0.422483)
(-0.00100523 -3.27746e-05 -0.351815)
(0.00386557 -0.000129608 -0.427859)
(-0.00273468 0.000119961 -0.341581)
(0.000160068 -0.000206091 -0.453396)
(-0.0111118 -0.00265673 -0.318899)
(-0.0337969 -0.00468675 -0.840776)
(0.00147352 0.00688039 -0.670168)
(0.00858405 0.000467349 -0.52887)
(0.00502191 0.000240621 -0.400666)
(0.00326798 -0.000188766 -0.438286)
(0.000141083 -4.84789e-05 -0.357286)
(0.00202593 -0.000183913 -0.442029)
(-0.00129875 0.000138677 -0.345502)
(-0.000536603 -0.000228531 -0.468071)
(-0.00612753 -0.00248886 -0.323593)
(-0.0184525 -0.0046429 -0.854967)
(5.63389e-06 0.00682723 -0.671355)
(5.69783e-06 0.00034873 -0.534235)
(3.76693e-06 0.000250097 -0.404586)
(4.0483e-06 -0.000179058 -0.443084)
(-2.04707e-07 -1.72426e-05 -0.358796)
(1.05206e-06 -0.000158125 -0.445219)
(-2.48843e-06 0.000172999 -0.346079)
(-6.07868e-07 -0.000223795 -0.471753)
(-3.83556e-06 -0.0024631 -0.324806)
(-1.33115e-05 -0.00460403 -0.859838)
(-0.00146888 0.00687988 -0.670172)
(-0.00858324 0.000466804 -0.528895)
(-0.00501792 0.000240645 -0.40067)
(-0.00326133 -0.000188753 -0.438303)
(-0.00014172 -4.84717e-05 -0.357282)
(-0.00202409 -0.000183958 -0.442041)
(0.00129335 0.000138712 -0.345493)
(0.000536296 -0.000228548 -0.468082)
(0.0061192 -0.00248866 -0.323585)
(0.0184326 -0.00464262 -0.854981)
(-0.00362115 0.0069765 -0.665984)
(-0.01536 0.00060363 -0.516225)
(-0.00648526 0.000343666 -0.392487)
(-0.00441094 -0.000196261 -0.422516)
(0.00100452 -3.28282e-05 -0.351814)
(-0.00386451 -0.000129614 -0.427882)
(0.00273242 0.000120055 -0.34157)
(-0.000159747 -0.000206155 -0.453416)
(0.0111079 -0.00265635 -0.31889)
(0.0337868 -0.00468651 -0.840798)
(-0.00192516 0.00746087 -0.655828)
(-0.0224212 0.000644371 -0.494987)
(-0.0105596 8.16396e-05 -0.381646)
(-0.00613514 -0.000230698 -0.405136)
(0.00103131 -9.10709e-05 -0.34871)
(-0.0040444 -8.5028e-05 -0.410144)
(0.00350833 3.85381e-05 -0.336745)
(0.000349953 -0.000140302 -0.432787)
(0.0132556 -0.00304115 -0.309407)
(0.0430567 -0.00473066 -0.823726)
(0.00650068 0.0081032 -0.662283)
(-0.0134317 0.00184029 -0.469441)
(-0.00675811 0.00018894 -0.357229)
(-0.00508529 -0.000303921 -0.373677)
(0.00113123 -0.000198678 -0.336903)
(-0.00385043 -9.04899e-05 -0.389257)
(0.00349464 -0.000123801 -0.332332)
(-0.00140763 -9.81782e-05 -0.4139)
(0.0113865 -0.00346198 -0.306696)
(0.0319025 -0.00529502 -0.796046)
)
;
    }
    leftSides_periodic0
    {
        type            cyclic;
    }
    leftSides_periodic1
    {
        type            cyclic;
    }
    rightSides_periodic0
    {
        type            cyclic;
    }
    rightSides_periodic1
    {
        type            cyclic;
    }
    leftInOut_periodic0
    {
        type            cyclic;
    }
    leftInOut_periodic1
    {
        type            cyclic;
    }
    rightInOut_periodic0
    {
        type            cyclic;
    }
    rightInOut_periodic1
    {
        type            cyclic;
    }
}


// ************************************************************************* //
