0 	0 	0 	0
0 	0 	0 	0
0.00752508 	-0.000393155 	0.0014186 	-0.285133
0.00752508 	-0.000393155 	0.0014186 	-0.285133
0.00757525 	-0.00038281 	0.00141207 	-0.285273
0.00762542 	-0.000372466 	0.00140553 	-0.285413
0.00762542 	-0.000372466 	0.00140553 	-0.285413
0.00767559 	-0.000362061 	0.00139878 	-0.285553
0.00772575 	-0.000345112 	0.00136905 	-0.285719
0.00777592 	-0.000328163 	0.00133932 	-0.285886
0.00782609 	-0.000311214 	0.00130959 	-0.286052
0.00782609 	-0.000311214 	0.00130959 	-0.286052
0.00787625 	-0.000299189 	0.00125743 	-0.286151
0.00792642 	-0.000290737 	0.001189 	-0.2862
0.00797659 	-0.000282285 	0.00112058 	-0.286249
0.00802676 	-0.000285537 	0.00106246 	-0.286218
0.00802676 	-0.000285537 	0.00106246 	-0.286218
0.00807692 	-0.000332676 	0.001043 	-0.28589
0.00812709 	-0.000379816 	0.00102354 	-0.285561
0.00812709 	-0.000379816 	0.00102354 	-0.285561
0.00817726 	-0.000426955 	0.00100407 	-0.285232
0.00822742 	-0.000497017 	0.0010453 	-0.284772
0.00822742 	-0.000497017 	0.0010453 	-0.284772
0.00827759 	-0.000569602 	0.00109321 	-0.284297
0.00832776 	-0.000642187 	0.00114111 	-0.283822
0.00832776 	-0.000642187 	0.00114111 	-0.283822
0.00837793 	-0.000689056 	0.00116326 	-0.283488
0.00842809 	-0.000722045 	0.0011715 	-0.28323
0.00842809 	-0.000722045 	0.0011715 	-0.28323
0.00847826 	-0.000755034 	0.00117974 	-0.282971
0.00847826 	-0.000755034 	0.00117974 	-0.282971
0.00852843 	-0.00077443 	0.00117005 	-0.282787
0.00852843 	-0.00077443 	0.00117005 	-0.282787
0.0085786 	-0.000777567 	0.00113893 	-0.28269
0.0085786 	-0.000777567 	0.00113893 	-0.28269
0.00862876 	-0.000780705 	0.0011078 	-0.282593
0.00867893 	-0.000781959 	0.00108027 	-0.282515
0.00867893 	-0.000781959 	0.00108027 	-0.282515
0.0087291 	-0.000779167 	0.00106044 	-0.282477
0.00877926 	-0.000776374 	0.00104061 	-0.28244
0.00877926 	-0.000776374 	0.00104061 	-0.28244
0.00882943 	-0.000774781 	0.0010246 	-0.282397
0.0088796 	-0.000777097 	0.00102105 	-0.282339
0.0088796 	-0.000777097 	0.00102105 	-0.282339
0.00897993 	-0.000782121 	0.00101735 	-0.282217
0.00897993 	-0.000782121 	0.00101735 	-0.282217
0.0090301 	-0.000786342 	0.00103024 	-0.28213
0.00908027 	-0.000790562 	0.00104313 	-0.282042
0.00908027 	-0.000790562 	0.00104313 	-0.282042
0.00913043 	-0.000792291 	0.00105577 	-0.281958
0.0091806 	-0.000785758 	0.00106758 	-0.281884
0.0091806 	-0.000785758 	0.00106758 	-0.281884
0.00923077 	-0.000779226 	0.00107939 	-0.281809
0.00928094 	-0.000767237 	0.00107567 	-0.281742
0.00928094 	-0.000767237 	0.00107567 	-0.281742
0.0093311 	-0.000743059 	0.00103727 	-0.281688
0.00938127 	-0.000718881 	0.00099886 	-0.281634
0.00938127 	-0.000718881 	0.00099886 	-0.281634
0.00943144 	-0.000701234 	0.000940465 	-0.281522
0.00943144 	-0.000701234 	0.000940465 	-0.281522
0.00948161 	-0.000691963 	0.000856438 	-0.281336
0.00948161 	-0.000691963 	0.000856438 	-0.281336
0.00953177 	-0.000682692 	0.000772412 	-0.281149
0.00953177 	-0.000682692 	0.000772412 	-0.281149
0.00958194 	-0.000718966 	0.000740337 	-0.280745
0.00958194 	-0.000718966 	0.000740337 	-0.280745
0.00963211 	-0.000783427 	0.000740416 	-0.280206
0.00963211 	-0.000783427 	0.000740416 	-0.280206
0.00968227 	-0.000847889 	0.000740495 	-0.279667
0.00968227 	-0.000847889 	0.000740495 	-0.279667
0.00973244 	-0.000942587 	0.000802832 	-0.278992
0.00978261 	-0.00104275 	0.000876421 	-0.278291
0.00983278 	-0.00113802 	0.000943518 	-0.277604
0.00988294 	-0.00119905 	0.000965155 	-0.277006
0.00988294 	-0.00119905 	0.000965155 	-0.277006
0.00993311 	-0.00126008 	0.000986792 	-0.276409
0.00998328 	-0.00130191 	0.000990693 	-0.27581
0.00998328 	-0.00130191 	0.000990693 	-0.27581
0.0100334 	-0.00132035 	0.000972999 	-0.275209
0.0100334 	-0.00132035 	0.000972999 	-0.275209
0.0100836 	-0.00133879 	0.000955304 	-0.274608
0.0101338 	-0.00133623 	0.000941747 	-0.273907
0.0101338 	-0.00133623 	0.000941747 	-0.273907
0.0102341 	-0.00132054 	0.000916545 	-0.272448
0.0102341 	-0.00132054 	0.000916545 	-0.272448
0.0102843 	-0.0013069 	0.000904469 	-0.271674
0.0103344 	-0.00129325 	0.000892393 	-0.2709
0.0103344 	-0.00129325 	0.000892393 	-0.2709
0.0103846 	-0.00128031 	0.000867169 	-0.270229
0.0103846 	-0.00128031 	0.000867169 	-0.270229
0.0104348 	-0.00126766 	0.000836528 	-0.269601
0.0104849 	-0.00125494 	0.000807419 	-0.269018
0.0104849 	-0.00125494 	0.000807419 	-0.269018
0.0105351 	-0.00124198 	0.000783816 	-0.2686
0.0105853 	-0.00122903 	0.000760212 	-0.268181
0.0105853 	-0.00122903 	0.000760212 	-0.268181
0.0106355 	-0.00121229 	0.000778079 	-0.26782
0.0106856 	-0.00119443 	0.000808257 	-0.267475
0.0106856 	-0.00119443 	0.000808257 	-0.267475
0.0107358 	-0.00117488 	0.000857168 	-0.267053
0.0107358 	-0.00117488 	0.000857168 	-0.267053
0.010786 	-0.00115242 	0.000938315 	-0.266498
0.010786 	-0.00115242 	0.000938315 	-0.266498
0.0108361 	-0.00112998 	0.00101895 	-0.265939
0.0108361 	-0.00112998 	0.00101895 	-0.265939
0.0108863 	-0.0011096 	0.0010189 	-0.264856
0.0109365 	-0.00108921 	0.00101885 	-0.263773
0.0109365 	-0.00108921 	0.00101885 	-0.263773
0.0109866 	-0.00107096 	0.000957043 	-0.262515
0.0109866 	-0.00107096 	0.000957043 	-0.262515
0.0110368 	-0.00105368 	0.000867055 	-0.261177
0.011087 	-0.00103522 	0.000797416 	-0.259936
0.011087 	-0.00103522 	0.000797416 	-0.259936
0.0111371 	-0.00101503 	0.000757306 	-0.258837
0.0111873 	-0.000993766 	0.000728498 	-0.257775
0.0111873 	-0.000993766 	0.000728498 	-0.257775
0.0112375 	-0.000967201 	0.000755111 	-0.256892
0.0112876 	-0.000940636 	0.000781724 	-0.25601
0.0112876 	-0.000940636 	0.000781724 	-0.25601
0.0113378 	-0.000910582 	0.000816875 	-0.255145
0.011388 	-0.000880422 	0.000852288 	-0.254281
0.011388 	-0.000880422 	0.000852288 	-0.254281
0.0114883 	-0.000825564 	0.000880239 	-0.252378
0.0114883 	-0.000825564 	0.000880239 	-0.252378
0.0115385 	-0.000800938 	0.000881136 	-0.25142
0.0115886 	-0.000777456 	0.000877113 	-0.250463
0.0115886 	-0.000777456 	0.000877113 	-0.250463
0.0116388 	-0.000753599 	0.000869149 	-0.249568
0.011689 	-0.000729494 	0.000858587 	-0.248714
0.011689 	-0.000729494 	0.000858587 	-0.248714
0.0117391 	-0.000703555 	0.000849914 	-0.247876
0.0117893 	-0.000676141 	0.000842761 	-0.247051
0.0117893 	-0.000676141 	0.000842761 	-0.247051
0.0118395 	-0.000646778 	0.000839425 	-0.246199
0.0118896 	-0.000615768 	0.000839312 	-0.245322
0.0118896 	-0.000615768 	0.000839312 	-0.245322
0.0119398 	-0.000583218 	0.00083985 	-0.244407
0.0119398 	-0.000583218 	0.00083985 	-0.244407
0.01199 	-0.000549483 	0.000840889 	-0.243463
0.01199 	-0.000549483 	0.000840889 	-0.243463
0.0120401 	-0.000514523 	0.000840151 	-0.242485
0.0120401 	-0.000514523 	0.000840151 	-0.242485
0.0120903 	-0.000478823 	0.000838338 	-0.241486
0.0120903 	-0.000478823 	0.000838338 	-0.241486
0.0121405 	-0.000441865 	0.000835034 	-0.240452
0.0121405 	-0.000441865 	0.000835034 	-0.240452
0.0121906 	-0.000404408 	0.000831137 	-0.239404
0.0121906 	-0.000404408 	0.000831137 	-0.239404
0.0122408 	-0.000365189 	0.00082712 	-0.238312
0.0122408 	-0.000365189 	0.00082712 	-0.238312
0.012291 	-0.000325636 	0.000823082 	-0.237213
0.012291 	-0.000325636 	0.000823082 	-0.237213
0.0123411 	-0.000283627 	0.00081888 	-0.236058
0.0123411 	-0.000283627 	0.00081888 	-0.236058
0.0123913 	-0.000241124 	0.000814594 	-0.234892
0.0123913 	-0.000241124 	0.000814594 	-0.234892
0.0124415 	-0.000196538 	0.000809951 	-0.233679
0.0124916 	-0.00015087 	0.000804976 	-0.232438
0.0124916 	-0.00015087 	0.000804976 	-0.232438
0.012592 	-5.46352e-05 	0.000793328 	-0.229833
0.012592 	-5.46352e-05 	0.000793328 	-0.229833
0.0126421 	-4.67651e-06 	0.000786745 	-0.228482
0.0126923 	4.82054e-05 	0.000778857 	-0.227057
0.0126923 	4.82054e-05 	0.000778857 	-0.227057
0.0127425 	0.000102135 	0.000770586 	-0.225605
0.0127425 	0.000102135 	0.000770586 	-0.225605
0.0127926 	0.00015852 	0.000761451 	-0.224093
0.0128428 	0.000217137 	0.000751751 	-0.222528
0.0128428 	0.000217137 	0.000751751 	-0.222528
0.012893 	0.000277148 	0.000741699 	-0.220931
0.0129431 	0.000341018 	0.000730591 	-0.219249
0.0129431 	0.000341018 	0.000730591 	-0.219249
0.0129933 	0.000406607 	0.000718949 	-0.217532
0.0130435 	0.000474792 	0.000706499 	-0.21576
0.0130435 	0.000474792 	0.000706499 	-0.21576
0.0130936 	0.00054696 	0.00069277 	-0.213912
0.0131438 	0.000621553 	0.000678429 	-0.212018
0.0131438 	0.000621553 	0.000678429 	-0.212018
0.013194 	0.000700139 	0.00066323 	-0.210051
0.0132441 	0.000783661 	0.000647471 	-0.207997
0.0132441 	0.000783661 	0.000647471 	-0.207997
0.0132943 	0.000870722 	0.000631333 	-0.205881
0.0133445 	0.000963029 	0.000614655 	-0.203674
0.0133445 	0.000963029 	0.000614655 	-0.203674
0.0133946 	0.00106151 	0.000596901 	-0.20135
0.0134448 	0.00116373 	0.000578085 	-0.198935
0.0134448 	0.00116373 	0.000578085 	-0.198935
0.013495 	0.00126977 	0.000557945 	-0.196419
0.0135452 	0.00137873 	0.000536048 	-0.193716
0.0135452 	0.00137873 	0.000536048 	-0.193716
0.0136455 	0.00159417 	0.000491353 	-0.187889
0.0136455 	0.00159417 	0.000491353 	-0.187889
0.0136957 	0.00169798 	0.000469117 	-0.184706
0.0137458 	0.00179695 	0.000447053 	-0.181273
0.0137458 	0.00179695 	0.000447053 	-0.181273
0.013796 	0.001892 	0.000424629 	-0.177627
0.0138462 	0.00198273 	0.00040151 	-0.173748
0.0138462 	0.00198273 	0.00040151 	-0.173748
0.0138963 	0.00206864 	0.000377328 	-0.169612
0.0138963 	0.00206864 	0.000377328 	-0.169612
0.0139465 	0.00214654 	0.00035176 	-0.165102
0.0139967 	0.00221658 	0.000325656 	-0.160277
0.0139967 	0.00221658 	0.000325656 	-0.160277
0.0140468 	0.00227757 	0.000299451 	-0.15512
0.0140468 	0.00227757 	0.000299451 	-0.15512
0.014097 	0.00232804 	0.000273504 	-0.149605
0.0141472 	0.00236645 	0.000248029 	-0.143704
0.0141973 	0.00239127 	0.00022294 	-0.137383
0.0141973 	0.00239127 	0.00022294 	-0.137383
0.0142475 	0.00239832 	0.000197836 	-0.130532
0.0142977 	0.00238672 	0.000172855 	-0.123196
0.0143478 	0.00235145 	0.000148536 	-0.115361
0.0143478 	0.00235145 	0.000148536 	-0.115361
0.014398 	0.00228575 	0.000125554 	-0.107022
0.014398 	0.00228575 	0.000125554 	-0.107022
0.0144482 	0.00218239 	0.000104261 	-0.0982034
0.0144983 	0.00203562 	8.46122e-05 	-0.0889699
0.0144983 	0.00203562 	8.46122e-05 	-0.0889699
0.0145485 	0.00184331 	6.66862e-05 	-0.0794312
0.0145987 	0.00160887 	5.08982e-05 	-0.0697335
0.0145987 	0.00160887 	5.08982e-05 	-0.0697335
0.0146488 	0.00134235 	3.75915e-05 	-0.0600372
0.014699 	0.00106118 	2.69298e-05 	-0.0504886
0.014699 	0.00106118 	2.69298e-05 	-0.0504886
0.0147492 	0.000791243 	1.89934e-05 	-0.0412002
0.0147993 	0.000571181 	1.36067e-05 	-0.0322508
0.0147993 	0.000571181 	1.36067e-05 	-0.0322508
0.0148495 	0.000463199 	1.01787e-05 	-0.0236965
0.0148495 	0.000463199 	1.01787e-05 	-0.0236965
0.0148997 	0.000475833 	7.05549e-06 	-0.0155536
0.0148997 	0.000475833 	7.05549e-06 	-0.0155536
0.0149498 	0.000404444 	3.59339e-06 	-0.00773535
0.0149498 	0.000404444 	3.59339e-06 	-0.00773535
0.015 	0 	0 	0
