/*--------------------------------*- C++ -*----------------------------------*\
| =========                 |                                                 |
| \\      /  F ield         | OpenFOAM: The Open Source CFD Toolbox           |
|  \\    /   O peration     | Version:  v1912                                 |
|   \\  /    A nd           | Website:  www.openfoam.com                      |
|    \\/     M anipulation  |                                                 |
\*---------------------------------------------------------------------------*/
FoamFile
{
    version     2.0;
    format      ascii;
    class       volScalarField;
    location    "100";
    object      k;
}
// * * * * * * * * * * * * * * * * * * * * * * * * * * * * * * * * * * * * * //

dimensions      [0 2 -2 0 0 0 0];


internalField   nonuniform List<scalar> 
2528
(
6.40744e-07
1.57552e-06
1.46592e-06
6.39617e-07
3.66611e-07
6.00567e-07
4.97202e-07
2.23284e-07
1.90101e-06
2.53599e-06
1.94932e-06
9.04241e-07
6.59461e-06
8.53637e-06
6.52127e-06
3.09316e-06
1.63931e-05
2.07322e-05
1.58365e-05
7.69281e-06
3.30952e-05
4.07806e-05
3.12177e-05
1.5598e-05
5.7856e-05
6.92805e-05
5.3257e-05
2.75157e-05
9.07085e-05
0.000105439
8.15673e-05
4.37926e-05
0.000130352
0.000147131
0.000114775
6.42742e-05
0.000174463
0.000191452
0.000150807
8.82667e-05
0.000220425
0.000235502
0.00018739
0.000114655
0.000266016
0.000277005
0.000222517
0.000142146
0.000309721
0.000314575
0.000254813
0.000169523
0.0003507
0.000347916
0.000283791
0.000195826
0.000388615
0.000376829
0.00030904
0.000220439
0.000423491
0.000401306
0.000330344
0.000243141
0.00045558
0.000421495
0.000347651
0.000263821
0.000485006
0.000437648
0.000361024
0.000282411
0.000511907
0.000450073
0.000370611
0.000298917
0.000536428
0.0004591
0.000376614
0.000313394
0.000558716
0.000465062
0.000379276
0.000325935
0.000578903
0.000468281
0.00037886
0.000336651
0.000597112
0.000469062
0.000375645
0.000345661
0.000613442
0.000467687
0.000369914
0.000353084
0.000627972
0.000464417
0.000361949
0.000359032
0.000640759
0.000459489
0.000352026
0.000363604
0.000651855
0.000453121
0.000340404
0.000366887
0.000661315
0.000445516
0.000327325
0.000368952
0.000669208
0.000436872
0.00031305
0.00036986
0.000675612
0.000427388
0.0002979
0.000369678
0.000680596
0.000417264
0.000282176
0.000368481
0.000684207
0.000406698
0.0002661
0.000366364
0.000686472
0.000395872
0.000249867
0.00036343
0.000687387
0.000384931
0.000233668
0.000359782
0.000686925
0.000373973
0.000217711
0.000355517
0.000685041
0.000363089
0.000202082
0.000350725
0.000681673
0.000352357
0.000186792
0.000345487
0.000676781
0.000341807
0.000171937
0.000339871
0.000670379
0.000331406
0.000157655
0.000333939
0.00066254
0.000321094
0.000144033
0.000327748
0.000653348
0.000310804
0.000131127
0.000321369
0.00064286
0.000300471
0.000118977
0.00031488
0.000631089
0.000290061
0.000107618
0.00030837
0.000618002
0.000279597
9.7076e-05
0.000301935
0.000603527
0.000269168
8.73665e-05
0.000295682
0.000587585
0.000258876
7.85012e-05
0.000289739
0.000570174
0.000248813
7.04931e-05
0.000284258
0.000551503
0.000239051
6.33613e-05
0.000279414
0.000532085
0.000229645
5.71388e-05
0.000275347
0.000512646
0.000220635
5.18764e-05
0.000272099
0.000493538
0.000212044
4.76454e-05
0.000269632
0.000474641
0.000203878
4.45174e-05
0.000267873
0.000455834
0.00019612
4.26743e-05
0.000266748
0.000437093
0.000188739
4.23549e-05
0.000266176
0.000418398
0.000181699
4.36435e-05
0.000266072
0.000399762
0.000174958
4.64205e-05
0.000266335
0.000381222
0.000168468
5.04004e-05
0.000266844
0.000362848
0.000162176
5.52868e-05
0.000267456
0.000344753
0.000156058
6.08476e-05
0.000267995
0.000327122
0.000150092
6.69303e-05
0.00026825
0.000310212
0.000144227
7.34571e-05
0.000267967
0.000294356
0.000138414
8.04091e-05
0.000266875
0.000279934
0.000132604
8.78122e-05
0.000264792
0.000267211
0.000126757
9.57228e-05
0.000261698
0.000256143
0.000120833
0.000104385
0.000257671
0.000246465
0.0001148
0.000114377
0.000252798
0.000237912
0.000108627
0.000126184
0.000247167
0.000230249
0.000102282
0.000139562
0.000240869
0.000223273
9.57368e-05
0.000153569
0.000234
0.000216806
8.89722e-05
0.000166981
0.000226666
0.000210707
8.19922e-05
0.00017911
0.000218988
0.000204856
7.48374e-05
0.000189945
0.000211108
0.000199149
6.76042e-05
0.000199768
0.00020319
0.000193497
6.04697e-05
0.000208915
0.000195421
0.000187822
5.3725e-05
0.000217654
0.000188012
0.000182059
4.78137e-05
0.000226131
0.000181189
0.000176153
4.33756e-05
0.000234322
0.000175199
0.000170057
4.12532e-05
0.000242087
0.000170293
0.000163728
4.2461e-05
0.000249364
0.000166644
2.09383e-06
2.23137e-06
1.92111e-06
2.23803e-06
4.40885e-07
5.58388e-07
4.3877e-07
5.48048e-07
9.24491e-07
1.57712e-06
1.06965e-06
1.64289e-06
2.9101e-06
5.12424e-06
3.4377e-06
5.50295e-06
7.08112e-06
1.24339e-05
8.40234e-06
1.3566e-05
1.41314e-05
2.46069e-05
1.68224e-05
2.70847e-05
2.45505e-05
4.22524e-05
2.93142e-05
4.67066e-05
3.85167e-05
6.52902e-05
4.61067e-05
7.22204e-05
5.58437e-05
9.29084e-05
6.69614e-05
0.000102509
7.59907e-05
0.000123716
9.11846e-05
0.000135793
9.81597e-05
0.00015606
0.000117756
0.000170104
0.000121456
0.000188374
0.000145533
0.000203722
0.000145047
0.000219402
0.000173442
0.000235401
0.000168269
0.000248303
0.000200595
0.000264417
0.000190655
0.000274749
0.000226369
0.000290551
0.000211928
0.000298607
0.000250487
0.000313797
0.000231973
0.000319843
0.000272742
0.000334288
0.000250804
0.000338504
0.000293067
0.000352233
0.000268472
0.000354696
0.000311491
0.000367879
0.00028507
0.00036856
0.000328106
0.000381488
0.000300697
0.000380259
0.000343038
0.000393318
0.000315439
0.00038997
0.000356432
0.000403616
0.000329368
0.000397874
0.000368439
0.000412599
0.000342547
0.000404154
0.000379206
0.000420458
0.000355016
0.000408996
0.000388876
0.000427347
0.000366815
0.000412577
0.000397582
0.000433391
0.000377976
0.00041507
0.000405447
0.000438693
0.00038853
0.000416641
0.000412581
0.000443341
0.000398502
0.000417469
0.000419088
0.000447411
0.000407917
0.000417752
0.000425064
0.000450969
0.000416804
0.000417692
0.000430606
0.000454082
0.000425194
0.000417447
0.000435818
0.000456817
0.000433123
0.000417179
0.000440842
0.000459241
0.000440629
0.00041668
0.00044588
0.000461423
0.000447755
0.000414707
0.000450962
0.000463429
0.000454548
0.000409131
0.000455495
0.000465326
0.000461061
0.000398537
0.000457721
0.000467176
0.000467358
0.00038446
0.000456147
0.000469042
0.000473512
0.000370288
0.000451058
0.000470983
0.000479606
0.000357693
0.000444944
0.000473057
0.00048573
0.0003461
0.00043954
0.000475324
0.000491983
0.000334884
0.000434955
0.00047785
0.000498499
0.000323975
0.000431057
0.000480735
0.000505439
0.000313466
0.000427878
0.000484153
0.00051298
0.000303436
0.000425561
0.00048831
0.000521391
0.000293922
0.000424246
0.000492945
0.000531123
0.000284951
0.000424039
0.000496366
0.000542582
0.000276544
0.000425023
0.000494231
0.000555108
0.000268707
0.000427283
0.000484308
0.000565522
0.000261395
0.000430967
0.000471682
0.000567424
0.0002547
0.000436311
0.000461146
0.000557571
0.000248848
0.000443279
0.000452288
0.000543531
0.000244038
0.000450688
0.000444086
0.000531911
0.000240483
0.00045432
0.000436308
0.000522851
0.000238408
0.00045037
0.000429021
0.000515707
0.000237996
0.000441287
0.000422284
0.000510542
0.000239375
0.000433004
0.000416082
0.000507663
0.000242633
0.000426309
0.000410363
0.00050744
0.000247824
0.00042076
0.000405067
0.000510256
0.000254965
0.000416475
0.000400128
0.000515841
0.000264049
0.000413709
0.000395489
0.000521224
0.000275052
0.000412678
0.000391103
0.000515297
0.000287949
0.000413523
0.000386943
0.00048864
0.000302713
0.000416358
0.000383007
0.000453677
0.000319299
0.000421351
0.000379319
0.000424159
0.000337456
0.000428467
0.000375918
0.000398265
0.000356872
0.000436238
0.000372863
0.000373042
0.000377512
0.000438924
0.000370233
0.000348688
0.000399468
0.000428553
0.000368124
0.000325523
0.000422808
0.000410209
0.000366646
0.000303835
0.000447567
0.000393509
0.00036589
0.000283846
0.000473758
0.000378606
0.000365899
0.000265788
0.000501359
0.000364642
0.00036665
0.000249894
0.000530277
0.000352397
0.000368058
0.00023636
0.000560213
0.000342548
0.000370018
0.000225313
0.000590593
0.000335657
0.00037231
0.000216755
0.000621053
0.000332199
0.00037408
0.000210684
0.000655732
0.000332585
0.000372706
0.000207126
0.000695175
0.000337141
0.000365123
1.75907e-06
2.46313e-06
1.88178e-06
1.95908e-06
5.14418e-07
5.8729e-07
4.25035e-07
4.15688e-07
1.81512e-06
1.50329e-06
9.55855e-07
8.62528e-07
6.14731e-06
4.79516e-06
2.96862e-06
2.69894e-06
1.5224e-05
1.15624e-05
7.08715e-06
6.5523e-06
3.05714e-05
2.28056e-05
1.38993e-05
1.30636e-05
5.29879e-05
3.91052e-05
2.37701e-05
2.26768e-05
8.21972e-05
6.04592e-05
3.67608e-05
3.55322e-05
0.000116836
8.62319e-05
5.25958e-05
5.14216e-05
0.000154818
0.000115248
7.06803e-05
6.98117e-05
0.000193917
0.000146035
9.01844e-05
8.99364e-05
0.000232255
0.000177124
0.000110182
0.00011094
0.000268543
0.000207277
0.000129797
0.000132023
0.000302093
0.000235629
0.000148319
0.000152539
0.00033275
0.000261843
0.000165291
0.000172042
0.000360557
0.000285721
0.000180551
0.000190281
0.000385599
0.000307221
0.000193987
0.000207179
0.000408046
0.000326399
0.000205573
0.000222765
0.000428109
0.000343376
0.000215348
0.000237121
0.000446024
0.00035832
0.000223407
0.000250375
0.000462027
0.00037142
0.00022988
0.000262686
0.000476348
0.000382873
0.000234913
0.000274194
0.000489207
0.000392866
0.000238666
0.00028503
0.000500825
0.000401569
0.000241295
0.000295307
0.000511429
0.000409124
0.000242956
0.000305124
0.000521214
0.000415646
0.000243795
0.000314565
0.000530295
0.000421222
0.000243952
0.0003237
0.000538753
0.000425913
0.000243552
0.000332591
0.000546642
0.000429765
0.00024271
0.000341279
0.000553998
0.000432814
0.000241537
0.00034979
0.000560851
0.000435077
0.000240124
0.000358123
0.000567228
0.000436549
0.000238555
0.000366262
0.000573156
0.00043714
0.000236905
0.000374178
0.000578665
0.000436635
0.000235238
0.00038184
0.000583786
0.000434735
0.000233595
0.00038922
0.000588553
0.000431197
0.000231987
0.000396292
0.000593003
0.000426057
0.00023039
0.000403029
0.000597164
0.00041969
0.00022877
0.000409408
0.000601047
0.000412588
0.000227116
0.0004154
0.000604642
0.000405089
0.000225463
0.000420977
0.000607927
0.000397273
0.000223861
0.000426104
0.000610884
0.00038922
0.000222356
0.000430741
0.000613502
0.000381064
0.000220989
0.00043484
0.000615768
0.000372917
0.000219792
0.000438356
0.000617677
0.000364829
0.000218793
0.000441238
0.00061921
0.000356801
0.000218009
0.000443426
0.000620329
0.000348818
0.000217449
0.000444831
0.000620944
0.000340872
0.000217109
0.000445336
0.000620876
0.00033296
0.000216973
0.000444835
0.000619848
0.000325083
0.000217006
0.000443283
0.000617561
0.000317244
0.00021715
0.000440685
0.000613887
0.000309451
0.00021732
0.000437076
0.000608987
0.000301723
0.000217413
0.000432521
0.000603162
0.000294082
0.000217314
0.000427096
0.000596667
0.000286553
0.000216969
0.000420865
0.000589649
0.000279162
0.000216453
0.00041387
0.000582135
0.000271935
0.000215954
0.000406153
0.000573976
0.000264896
0.000215671
0.000397797
0.000564784
0.000258068
0.000215775
0.000388985
0.000553869
0.000251472
0.000216414
0.000380019
0.000540261
0.000245126
0.0002177
0.000371167
0.000522918
0.000239046
0.000219704
0.00036262
0.000501311
0.000233249
0.000222446
0.000354522
0.000476534
0.000227745
0.000225897
0.000346918
0.000451075
0.000222548
0.000229975
0.000339802
0.000426723
0.000217671
0.000234539
0.00033318
0.000403881
0.000213134
0.000239401
0.000327071
0.000381853
0.000208969
0.000244348
0.000321466
0.000360237
0.000205217
0.000249246
0.000316207
0.000339239
0.000201927
0.000254203
0.000310574
0.000319089
0.000199152
0.000259489
0.000303492
0.000300003
0.000196946
0.000265354
0.000294596
0.000282183
0.000195352
0.000271986
0.000285017
0.000265813
0.000194387
0.000279505
0.000275977
0.00025105
0.000194014
0.000287959
0.000267385
0.000238018
0.000194111
0.000297322
0.000259096
0.000226789
0.000194424
0.000307497
0.000251367
0.000217365
0.000194511
0.000318327
0.000244465
0.000209767
0.000193614
0.000329598
0.000238719
1.78789e-07
6.46328e-07
8.06469e-07
5.6582e-07
1.41465e-07
2.43619e-07
3.0782e-07
2.83044e-07
7.98121e-07
1.02783e-06
1.31335e-06
1.3929e-06
2.79464e-06
3.49073e-06
4.47547e-06
4.83159e-06
6.99522e-06
8.5865e-06
1.10207e-05
1.20419e-05
1.42433e-05
1.71783e-05
2.20168e-05
2.43664e-05
2.51794e-05
2.98126e-05
3.80485e-05
4.26594e-05
4.0048e-05
4.65561e-05
5.90076e-05
6.69365e-05
5.85644e-05
6.69371e-05
8.40662e-05
9.62399e-05
7.99193e-05
9.00197e-05
0.000111854
0.000128843
0.000102937
0.000114595
0.000140773
0.000162715
0.000126334
0.000139423
0.000169332
0.000196019
0.000148979
0.00016344
0.000196386
0.000227458
0.000170148
0.000185902
0.000221367
0.000256572
0.000189565
0.000206539
0.000244063
0.000283056
0.000206982
0.000225195
0.00026433
0.000306723
0.000222255
0.000241787
0.000282135
0.000327525
0.00023534
0.000256312
0.000297538
0.000345526
0.00024627
0.000268836
0.000310663
0.00036086
0.000255136
0.000279473
0.000321674
0.000373708
0.000262093
0.000288363
0.000330756
0.00038427
0.000267368
0.000295666
0.000338105
0.000392758
0.000271244
0.000301558
0.000343918
0.00039941
0.000273965
0.000306234
0.000348397
0.000404519
0.000275606
0.000309894
0.000351772
0.000408436
0.000276006
0.000312709
0.000354327
0.000411491
0.000274903
0.000314791
0.000356377
0.00041384
0.000272226
0.000316203
0.000358218
0.000415335
0.000268344
0.000317032
0.000360027
0.00041555
0.000263891
0.000317438
0.000361838
0.000414084
0.000259525
0.000317631
0.000363661
0.000410982
0.000255643
0.000317789
0.000365575
0.000406842
0.00025237
0.00031797
0.000367632
0.000402382
0.000249846
0.000318199
0.000369617
0.000398168
0.000248302
0.000318511
0.000370686
0.000394438
0.000247736
0.000318961
0.000369974
0.000391177
0.00024755
0.000319605
0.000367665
0.0003883
0.000246472
0.000320478
0.000364579
0.00038574
0.000243884
0.000321645
0.000361529
0.00038345
0.000240282
0.000323323
0.000358736
0.000381395
0.000237098
0.000325687
0.000356155
0.000379547
0.000235078
0.000328416
0.000353733
0.000377882
0.00023432
0.000329389
0.000351451
0.000376378
0.000234718
0.000326168
0.000349303
0.00037502
0.000236178
0.000319798
0.000347277
0.000373796
0.00023866
0.000312362
0.000345359
0.000372697
0.00024204
0.000305583
0.000343525
0.000371719
0.000245854
0.000299915
0.000341747
0.000370864
0.000248993
0.000295188
0.000339989
0.000370144
0.000250667
0.000291229
0.000338208
0.000369583
0.000251501
0.000287976
0.000336356
0.000369219
0.000252434
0.000285407
0.000334385
0.000369101
0.00025376
0.000283506
0.000332247
0.00036929
0.000255481
0.000282263
0.000329902
0.000369857
0.000257569
0.00028167
0.000327323
0.000370871
0.000259996
0.000281721
0.0003245
0.000372393
0.000262698
0.000282412
0.000321442
0.000374421
0.000265568
0.00028374
0.000318168
0.000376937
0.000268452
0.000285708
0.00031471
0.00038003
0.000271152
0.000288321
0.000311102
0.000383877
0.00027343
0.000291592
0.000307384
0.000387663
0.000275028
0.000295538
0.000303596
0.000386226
0.000275693
0.000300184
0.000299784
0.000377406
0.000275204
0.000305557
0.000295996
0.000365139
0.000273388
0.000311689
0.000292288
0.000352943
0.000270109
0.000318615
0.000288726
0.000341804
0.000265281
0.000326375
0.000285398
0.000331874
0.000258917
0.000335006
0.000282427
0.000323062
0.000251194
0.000344534
0.000279977
0.000315351
0.00024246
0.000354969
0.000278241
0.000308736
0.000233165
0.000366294
0.000277411
0.000303188
0.000223809
0.000378449
0.000277654
0.000298666
0.000214817
0.000391314
0.000279087
0.000295123
0.000206489
0.0004047
0.000281781
0.000292499
0.000199049
0.000418325
0.000285757
0.000290698
0.000192695
0.000431811
0.000291007
0.000289573
0.000187573
0.000444687
0.0002975
0.000288923
0.000183748
0.00045642
0.000305193
0.000288472
0.000181229
0.000466545
0.00031408
0.000287876
0.000157169
4.77508e-05
0.000256102
0.000164279
0.000150444
5.61711e-05
0.000262262
0.000163093
0.000143607
6.59315e-05
0.000267881
0.000162924
0.000136689
7.59278e-05
0.000273028
0.000163622
0.000129743
8.56221e-05
0.000277817
0.000165058
0.000122831
9.47625e-05
0.000282511
0.000167119
0.000116023
0.000103224
0.000287514
0.000169702
0.000109397
0.000110942
0.00029312
0.000172707
0.000103037
0.000117887
0.000299276
0.000176046
9.70254e-05
0.000124043
0.000305725
0.000179636
9.14326e-05
0.000129391
0.000312208
0.000183407
8.63459e-05
0.000133906
0.000318519
0.0001873
8.18828e-05
0.000137567
0.000324497
0.000191275
7.81742e-05
0.000140419
0.000330015
0.00019531
7.53621e-05
0.000142631
0.000334964
0.0001994
7.35957e-05
0.000144436
0.000339254
0.000203562
7.30251e-05
0.000146037
0.000342807
0.000207832
7.37931e-05
0.000147613
0.000345553
0.000212263
7.6013e-05
0.000149323
0.000347436
0.000216922
7.9725e-05
0.000151319
0.000348406
0.000221889
8.49596e-05
0.000153744
0.000348427
0.00022725
9.17678e-05
0.000156731
0.000347497
0.000233088
0.000100149
0.000160408
0.000345671
0.000239486
0.000110072
0.000164889
0.000343051
0.000246521
0.000121489
0.000170273
0.000339752
0.000254212
0.00013429
0.000176641
0.000335891
0.000262466
0.000148187
0.000184044
0.000331579
0.000271145
0.000162807
0.000192439
0.000326922
0.000280106
0.000177904
0.000201753
0.000322007
0.000289214
0.000193354
0.000211949
0.000316917
0.00029834
0.000209076
0.000222942
0.000311754
0.000307374
0.000225004
0.000234584
0.000306628
0.000316218
0.000241077
0.000246669
0.000301643
0.000324789
0.000257242
0.000258987
0.000296891
0.000333011
0.000273452
0.000271352
0.000292418
0.000340816
0.000289663
0.000283595
0.000288212
0.000348144
0.000305835
0.000295601
0.000284219
0.000354934
0.000321912
0.000307304
0.000280376
0.000361133
0.000337837
0.000318644
0.000276628
0.000366704
0.000353566
0.000329567
0.000272935
0.000371648
0.000369052
0.00034002
0.000269257
0.000376012
0.000384232
0.000349957
0.000265558
0.000379869
0.00039903
0.00035933
0.000261807
0.000383296
0.000413369
0.00036809
0.000257977
0.000386364
0.000427179
0.000376193
0.000254042
0.00038912
0.000440411
0.000383599
0.000249975
0.00039156
0.000453017
0.000390275
0.000245743
0.000393633
0.000464928
0.000396169
0.000241297
0.000395248
0.000476074
0.000401193
0.000236573
0.000396295
0.000486355
0.000405234
0.000231491
0.000396646
0.000495615
0.00040815
0.000225956
0.000396162
0.000503646
0.000409776
0.000219851
0.00039469
0.000510205
0.000409921
0.000213021
0.000392055
0.000515011
0.000408373
0.000205342
0.000388032
0.000517739
0.0004049
0.000196712
0.000382396
0.000518017
0.000399257
0.000187055
0.000374898
0.000515438
0.000391189
0.000176324
0.000365285
0.000509558
0.000380438
0.000164504
0.000353304
0.000499921
0.000366757
0.000151629
0.000338723
0.000486068
0.000349924
0.000137781
0.00032134
0.000467558
0.000329773
0.000123099
0.000301011
0.000444003
0.000306228
0.000107759
0.000277679
0.000415117
0.000279346
9.20738e-05
0.000251417
0.000380793
0.000249365
7.65241e-05
0.000222428
0.000341191
0.000216753
6.16611e-05
0.000191132
0.00029683
0.000182139
4.80262e-05
0.000158523
0.00024846
0.000146777
3.60655e-05
0.000126064
0.000198024
0.000112591
2.60562e-05
9.55074e-05
0.00014874
8.16664e-05
1.80714e-05
6.85626e-05
0.000104332
5.57114e-05
1.19964e-05
4.64553e-05
6.78983e-05
3.55941e-05
7.58565e-06
2.96203e-05
4.08333e-05
2.11945e-05
4.5317e-06
1.77006e-05
2.25845e-05
1.1655e-05
2.52347e-06
9.82956e-06
1.13493e-05
5.81153e-06
1.28131e-06
4.98483e-06
5.03468e-06
2.53887e-06
5.72213e-07
2.23283e-06
1.85618e-06
9.14001e-07
2.12294e-07
8.30391e-07
5.10701e-07
2.51122e-07
6.39723e-08
2.33965e-07
1.36709e-07
9.67809e-08
3.91538e-08
7.9118e-08
4.48192e-07
4.40416e-07
2.10414e-07
3.17821e-07
0.000205937
0.000709423
0.000345956
0.000355479
0.000206695
0.000692267
0.000358619
0.000346397
0.000208935
0.000666835
0.000374246
0.000337448
0.000212397
0.0006429
0.00039209
0.000328938
0.000216956
0.000622202
0.000413022
0.00032109
0.000222549
0.000604571
0.000439392
0.000314044
0.000229155
0.000589354
0.000465316
0.000307879
0.000236776
0.000576203
0.000473213
0.000302647
0.000245299
0.000564858
0.00046728
0.000298404
0.000254636
0.000555096
0.000457972
0.000295225
0.000264845
0.000546725
0.00044953
0.000293207
0.000275956
0.000539584
0.000442859
0.000292456
0.000287981
0.000533539
0.000437662
0.000293078
0.000300918
0.000528486
0.000433531
0.000295166
0.000314743
0.000524346
0.000430217
0.000298789
0.000329421
0.000521061
0.000427544
0.000303989
0.000344903
0.000518587
0.000425365
0.000310766
0.000361132
0.000516883
0.000423576
0.000319065
0.000378026
0.000515913
0.000422122
0.000328703
0.000395438
0.000515638
0.000420987
0.000339359
0.000413129
0.000516014
0.000420174
0.00035078
0.000430924
0.000516992
0.000419698
0.000363344
0.000449759
0.000518508
0.000419587
0.000377822
0.000471839
0.00052048
0.000419885
0.000391092
0.000496236
0.000522771
0.000420643
0.000397839
0.00051301
0.00052521
0.000421909
0.000400752
0.000519114
0.000527628
0.000423716
0.000403404
0.000520861
0.000529968
0.000426083
0.000406795
0.000522266
0.000532125
0.000429019
0.000411103
0.000524119
0.000532809
0.000432546
0.000416311
0.000526428
0.00052902
0.000436801
0.00042242
0.000529106
0.000519149
0.000442016
0.000429421
0.00053213
0.000505676
0.000448152
0.000437283
0.00053549
0.000491285
0.0004534
0.000445959
0.000539169
0.000477135
0.000454826
0.000455391
0.00054314
0.000463619
0.000452495
0.000465513
0.000547364
0.00045068
0.000448566
0.000476245
0.000551792
0.000438212
0.000445012
0.000487507
0.00055637
0.000426167
0.000442376
0.000499183
0.000561038
0.000414531
0.000440599
0.000511136
0.000565731
0.00040329
0.000439493
0.000523339
0.000570389
0.000392422
0.000438947
0.000536117
0.000574963
0.000381896
0.000438893
0.000549664
0.000579423
0.000371677
0.000439271
0.000562381
0.000583706
0.000361721
0.000439913
0.000571727
0.000587738
0.000351978
0.000440465
0.000576827
0.000591419
0.000342384
0.000440416
0.000578957
0.000594606
0.000332866
0.000439281
0.0005799
0.000597093
0.000323348
0.000436818
0.000580518
0.000598614
0.000313729
0.000433029
0.000580916
0.000598864
0.000303902
0.000428012
0.000581033
0.000597522
0.000293741
0.000421775
0.000580638
0.000594269
0.000283082
0.000414194
0.00057946
0.000588809
0.00027172
0.000405034
0.000577145
0.000580853
0.000259421
0.000394016
0.000573227
0.000570102
0.000245963
0.000380889
0.000567143
0.000556245
0.00023119
0.000365458
0.000558273
0.000538967
0.000215037
0.000347583
0.000546036
0.00051796
0.000197531
0.000327183
0.000529893
0.00049295
0.000178788
0.000304242
0.000509384
0.000463723
0.000159009
0.000278837
0.00048414
0.000430161
0.000138458
0.000251154
0.000453907
0.000392289
0.000117594
0.000221525
0.000418583
0.000350334
9.7082e-05
0.000190351
0.000378276
0.00030481
7.76521e-05
0.000158431
0.000333387
0.000256366
6.0001e-05
0.000127052
0.000284723
0.000206747
4.46819e-05
9.77054e-05
0.000233425
0.000158573
3.20088e-05
7.17831e-05
0.000181896
0.000114827
2.20162e-05
5.02572e-05
0.000133525
7.80779e-05
1.44967e-05
3.34676e-05
9.16558e-05
4.96749e-05
9.08832e-06
2.1138e-05
5.85361e-05
2.94578e-05
5.37327e-06
1.25851e-05
3.46427e-05
1.61459e-05
2.94911e-06
6.9781e-06
1.88625e-05
8.03018e-06
1.46532e-06
3.52584e-06
9.29275e-06
3.49667e-06
6.33037e-07
1.56317e-06
4.00262e-06
1.24679e-06
2.22384e-07
5.68359e-07
1.41145e-06
3.22343e-07
5.77892e-08
1.50587e-07
3.62187e-07
6.71232e-08
1.81599e-08
3.43137e-08
7.96836e-08
1.80677e-07
8.01706e-08
1.02415e-07
2.37459e-07
0.000204122
0.000190695
0.00034097
0.000234615
0.00020041
0.000185491
0.00035201
0.000232551
0.000198425
0.000178681
0.000362461
0.000232648
0.000197956
0.000171035
0.000372279
0.000234862
0.00019884
0.000163165
0.000381608
0.000239079
0.000200951
0.000155524
0.000390525
0.000245156
0.000204198
0.00014845
0.000398355
0.000252938
0.000208515
0.000142202
0.000403938
0.000262271
0.000213856
0.000136992
0.000407004
0.000272878
0.000220182
0.00013301
0.000408173
0.000284536
0.000227434
0.000130436
0.000408235
0.000297185
0.000235518
0.000129436
0.000407795
0.000310734
0.000244375
0.000130139
0.000407253
0.000325088
0.000253971
0.000132555
0.000406873
0.000340144
0.000264258
0.000136473
0.000406838
0.000355796
0.000275183
0.000141558
0.000407285
0.000371931
0.000286693
0.000147523
0.000408324
0.000388432
0.000298729
0.000154148
0.000410046
0.000405235
0.000311221
0.000161264
0.000412538
0.000422489
0.000324111
0.000168733
0.000415888
0.000440379
0.000337671
0.000176451
0.000420204
0.000458766
0.000352447
0.000184335
0.000425599
0.000477308
0.000368383
0.000192324
0.000432117
0.000495121
0.0003841
0.000200368
0.000439653
0.000511042
0.000397417
0.00020843
0.00044796
0.000524405
0.000407356
0.000216481
0.000456791
0.000535191
0.000414771
0.000224499
0.000466069
0.000543869
0.00042122
0.000232478
0.000475926
0.000551059
0.000427861
0.000240423
0.000486576
0.000557323
0.00043494
0.000248348
0.000498042
0.000563092
0.000442498
0.000256282
0.000509873
0.000568656
0.000450518
0.000264308
0.000521082
0.000574194
0.000458717
0.000272569
0.000530468
0.000579804
0.000466798
0.000281209
0.000537129
0.000585528
0.000474601
0.00029029
0.00054083
0.000591372
0.000482143
0.000299775
0.000541994
0.000597325
0.000489552
0.00030961
0.000541363
0.000603368
0.000496973
0.000319757
0.000539636
0.000609477
0.00050448
0.000330143
0.000537302
0.000615601
0.000512041
0.000340701
0.000534618
0.000621639
0.000519561
0.000351345
0.000531645
0.000627402
0.000526928
0.000361966
0.000528304
0.000632617
0.00053406
0.000372435
0.000524423
0.00063696
0.000540934
0.000382616
0.000519792
0.000640109
0.000547568
0.000392367
0.000514206
0.00064179
0.000553975
0.000401544
0.000507498
0.000641813
0.000560109
0.000409997
0.000499545
0.00064008
0.00056581
0.000417573
0.000490271
0.000636548
0.000570805
0.000424112
0.000479634
0.000631188
0.000574742
0.000429446
0.000467603
0.000623962
0.000577262
0.000433396
0.000454144
0.000614815
0.000578056
0.000435773
0.00043919
0.00060367
0.000576882
0.000436355
0.000422681
0.000590435
0.000573542
0.000434923
0.000404565
0.000575001
0.000567853
0.000431232
0.000384802
0.00055723
0.000559601
0.000425036
0.000363374
0.000536965
0.000548535
0.000416091
0.000340288
0.000514065
0.000534371
0.000404159
0.00031558
0.000488406
0.000516802
0.00038902
0.000289314
0.000459893
0.000495517
0.000370485
0.000261579
0.000428474
0.000470224
0.000348421
0.00023252
0.000394169
0.000440679
0.000322783
0.00020253
0.000357081
0.000406729
0.000293654
0.000172242
0.00031729
0.000368369
0.000261261
0.000142478
0.000275157
0.000325821
0.000225897
0.000114209
0.000231584
0.000279541
0.000188587
8.84268e-05
0.000188013
0.000230632
0.000150957
6.59676e-05
0.000146329
0.000181314
0.000115056
4.73376e-05
0.000108578
0.000134563
8.29813e-05
3.26286e-05
7.649e-05
9.34711e-05
5.63527e-05
2.15561e-05
5.10101e-05
6.03486e-05
3.58832e-05
1.35911e-05
3.2111e-05
3.59939e-05
2.13098e-05
8.1118e-06
1.89806e-05
1.96614e-05
1.16859e-05
4.51945e-06
1.04198e-05
9.67062e-06
5.80412e-06
2.2968e-06
5.20307e-06
4.14077e-06
2.51869e-06
1.02423e-06
2.27658e-06
1.44615e-06
8.93194e-07
3.74077e-07
8.15337e-07
3.65631e-07
2.28749e-07
9.81789e-08
2.10203e-07
7.64248e-08
4.48324e-08
1.70014e-08
3.76686e-08
2.16665e-07
1.09784e-07
2.80619e-08
7.30977e-08
0.000179978
0.000474827
0.000324243
0.000286784
0.000179863
0.00048142
0.000335655
0.000285043
0.000180719
0.000486768
0.000347539
0.000282836
0.000182454
0.000491361
0.000357825
0.000280532
0.000185027
0.000495632
0.000362557
0.000278491
0.000188429
0.000499946
0.000360405
0.000276979
0.000192673
0.00050459
0.00035649
0.00027618
0.000197785
0.000509785
0.000352926
0.000276223
0.000203806
0.000515722
0.000350091
0.000277193
0.000210714
0.000522683
0.000348267
0.000279142
0.000218439
0.000530882
0.000347684
0.000282099
0.00022698
0.000539629
0.000348508
0.000286069
0.000236366
0.000546213
0.000350812
0.000291037
0.000246614
0.000547468
0.000354621
0.000296971
0.000257703
0.000544277
0.000359905
0.000303819
0.000269586
0.000541774
0.000366597
0.000311515
0.000282202
0.000540732
0.00037461
0.000319976
0.000295484
0.000540909
0.000383866
0.000329108
0.000309349
0.000542021
0.000394138
0.000338804
0.000323708
0.000544042
0.000404856
0.000348948
0.000338485
0.000546972
0.000415018
0.000359414
0.000353671
0.000550749
0.0004234
0.000370072
0.000369446
0.000555282
0.000429498
0.000380799
0.000385956
0.000560478
0.000434882
0.000391493
0.000402446
0.000566249
0.000440552
0.00040209
0.000418305
0.000572522
0.000446686
0.000412564
0.000431751
0.000579245
0.000453128
0.000422926
0.000438647
0.000586411
0.000459821
0.000433211
0.000441012
0.000594094
0.000466685
0.000443463
0.000442292
0.000602467
0.000473597
0.000453729
0.000443598
0.000611513
0.000480413
0.000464048
0.000445074
0.000620449
0.00048699
0.000474455
0.000446623
0.000626777
0.000493194
0.000484988
0.000448336
0.000627177
0.000498914
0.000495714
0.000450279
0.000620919
0.000504059
0.00050677
0.000452454
0.000612406
0.000508575
0.000518229
0.000454844
0.000604497
0.000512434
0.0005297
0.00045742
0.000597291
0.000515617
0.000540097
0.000460148
0.000590196
0.000518113
0.000547934
0.000462987
0.000582902
0.000519913
0.000551822
0.000465894
0.000575382
0.000521004
0.000553116
0.000468815
0.000567663
0.00052137
0.000553589
0.000471693
0.000559728
0.000520992
0.000553911
0.000474463
0.000551518
0.00051985
0.000554027
0.000477053
0.000542963
0.000517923
0.000553765
0.000479381
0.000533983
0.00051519
0.000553039
0.000481357
0.000524499
0.000511631
0.000551843
0.000482881
0.000514429
0.000507223
0.000550162
0.000483866
0.000503687
0.000501931
0.000547961
0.00048423
0.000492178
0.000495706
0.0005452
0.000483885
0.000479791
0.000488478
0.000541829
0.000482721
0.000466405
0.000480157
0.000537768
0.000480581
0.000451881
0.00047063
0.000532877
0.000477253
0.000436066
0.000459754
0.000526961
0.000472477
0.000418794
0.000447326
0.000519751
0.000465947
0.000399888
0.0004331
0.000510917
0.000457329
0.000379172
0.000416833
0.000500091
0.000446265
0.000356487
0.000398299
0.000486887
0.000432392
0.000331714
0.000377305
0.000470918
0.000415345
0.00030481