/*--------------------------------*- C++ -*----------------------------------*\
| =========                 |                                                 |
| \\      /  F ield         | OpenFOAM: The Open Source CFD Toolbox           |
|  \\    /   O peration     | Version:  v1912                                 |
|   \\  /    A nd           | Website:  www.openfoam.com                      |
|    \\/     M anipulation  |                                                 |
\*---------------------------------------------------------------------------*/
FoamFile
{
    version     2.0;
    format      ascii;
    class       volScalarField;
    location    "100";
    object      p;
}
// * * * * * * * * * * * * * * * * * * * * * * * * * * * * * * * * * * * * * //

dimensions      [1 -1 -2 0 0 0 0];


internalField   nonuniform List<scalar> 
2528
(
100000
99902.7
99922.3
99903.5
99999.9
99902.7
99922.3
99903.5
99999.7
99902.7
99922.2
99903.5
99999.4
99902.7
99922.2
99903.5
99999.2
99902.8
99922.2
99903.6
99999
99902.8
99922.2
99903.6
99998.7
99902.8
99922.2
99903.6
99998.4
99902.9
99922.2
99903.7
99998.2
99902.9
99922.1
99903.7
99997.8
99903
99922.1
99903.8
99997.5
99903.1
99922
99903.8
99997.1
99903.2
99922
99903.9
99996.7
99903.3
99921.9
99904
99996.2
99903.4
99921.8
99904.1
99995.7
99903.5
99921.7
99904.2
99995.1
99903.7
99921.7
99904.3
99994.4
99903.8
99921.5
99904.5
99993.7
99904
99921.4
99904.6
99993
99904.2
99921.3
99904.8
99992.2
99904.5
99921.2
99905
99991.4
99904.7
99921
99905.2
99990.5
99905
99920.9
99905.4
99989.5
99905.2
99920.7
99905.6
99988.6
99905.5
99920.6
99905.9
99987.5
99905.8
99920.4
99906.1
99986.5
99906.2
99920.2
99906.4
99985.3
99906.5
99920
99906.7
99984.2
99906.9
99919.8
99907
99983
99907.3
99919.6
99907.3
99981.7
99907.7
99919.4
99907.7
99980.5
99908.1
99919.2
99908
99979.1
99908.6
99919
99908.4
99977.8
99909
99918.8
99908.8
99976.4
99909.5
99918.6
99909.2
99975
99910
99918.3
99909.6
99973.6
99910.5
99918.1
99910.1
99972.2
99911.1
99917.9
99910.5
99970.8
99911.6
99917.6
99911
99969.3
99912.1
99917.4
99911.5
99967.9
99912.7
99917.2
99912
99966.4
99913.2
99917
99912.5
99964.9
99913.7
99916.8
99913
99963.4
99914.3
99916.6
99913.5
99961.8
99914.8
99916.4
99914
99960.3
99915.4
99916.3
99914.5
99958.9
99915.9
99916.1
99915.1
99957.4
99916.5
99915.9
99915.6
99956
99917
99915.8
99916.1
99954.5
99917.5
99915.7
99916.6
99953
99918
99915.5
99917.1
99951.4
99918.6
99915.4
99917.7
99949.8
99919.1
99915.3
99918.2
99948.2
99919.6
99915.2
99918.7
99946.7
99920
99915.1
99919.2
99945.3
99920.5
99915
99919.7
99943.9
99921
99914.9
99920.2
99942.5
99921.5
99914.8
99920.6
99941.3
99921.9
99914.7
99921.1
99940.1
99922.3
99914.6
99921.6
99938.9
99922.7
99914.5
99922
99937.8
99923.1
99914.4
99922.4
99936.8
99923.5
99914.3
99922.9
99935.9
99923.8
99914.2
99923.3
99934.9
99924.1
99914.1
99923.7
99934.1
99924.4
99914
99924
99933.3
99924.7
99913.9
99924.4
99932.5
99924.9
99913.8
99924.7
99931.8
99925.1
99913.8
99925.1
99931.1
99925.3
99913.7
99925.4
99930.4
99925.5
99913.7
99925.6
99929.8
99925.6
99913.6
99925.9
99929.1
99925.7
99913.5
99926.2
99928.6
99925.8
99913.4
99926.4
99928
99925.8
99913.3
99926.6
99927.5
99925.9
99913.2
99926.8
99927
99925.9
99913.1
99927
99926.5
99925.9
99913
99927.1
99926.1
99925.9
99912.8
99927.3
99925.7
99925.9
99912.7
99927.4
99498.3
99627.7
99473.8
99636.5
99498.3
99627.7
99473.8
99636.5
99498.3
99627.7
99473.8
99636.5
99498.3
99627.6
99473.8
99636.4
99498.4
99627.6
99473.9
99636.4
99498.4
99627.6
99473.9
99636.4
99498.5
99627.5
99474
99636.3
99498.5
99627.4
99474
99636.2
99498.6
99627.4
99474.1
99636.2
99498.7
99627.3
99474.2
99636.1
99498.8
99627.1
99474.3
99636
99499
99627
99474.4
99635.8
99499.1
99626.8
99474.6
99635.7
99499.3
99626.7
99474.8
99635.5
99499.5
99626.5
99474.9
99635.3
99499.7
99626.2
99475.2
99635
99499.9
99626
99475.4
99634.7
99500.2
99625.7
99475.7
99634.4
99500.6
99625.4
99476
99634.1
99500.9
99625
99476.3
99633.7
99501.3
99624.6
99476.7
99633.2
99501.8
99624.2
99477.1
99632.7
99502.2
99623.7
99477.5
99632.2
99502.8
99623.2
99478
99631.6
99503.3
99622.7
99478.6
99631
99504
99622.2
99479.1
99630.3
99504.6
99621.5
99479.7
99629.6
99505.3
99620.9
99480.4
99628.8
99506.1
99620.2
99481.1
99628
99506.9
99619.5
99481.8
99627.2
99507.7
99618.7
99482.6
99626.3
99508.6
99617.9
99483.5
99625.3
99509.5
99617
99484.4
99624.3
99510.5
99616.1
99485.3
99623.3
99511.5
99615.3
99486.3
99622.2
99512.5
99614.6
99487.3
99621.1
99513.6
99613.9
99488.1
99619.9
99514.7
99613.3
99488.9
99618.7
99515.9
99612.5
99489.7
99617.5
99517
99611.6
99490.6
99616.2
99518.3
99610.5
99491.7
99614.9
99519.5
99609.4
99493
99613.6
99520.8
99608.3
99494.4
99612.2
99522.2
99607.2
99495.8
99610.8
99523.5
99606.1
99497.2
99609.4
99524.9
99605
99498.6
99608
99526.3
99603.9
99500.1
99606.8
99527.7
99602.7
99501.6
99605.9
99529
99601.5
99503.1
99605.1
99530.2
99600.4
99504.6
99604.3
99531
99599.2
99506.2
99603.1
99531.7
99598
99507.8
99601.6
99532.6
99596.7
99509.2
99600
99533.8
99595.5
99510.3
99598.4
99535.3
99594.2
99511.1
99596.9
99536.7
99592.9
99512
99595.4
99538.2
99591.5
99513.3
99593.9
99539.6
99590.1
99514.9
99592.4
99541
99588.6
99516.5
99590.9
99542.4
99587.2
99518.1
99589.4
99543.8
99585.6
99519.7
99587.9
99544.9
99584
99521.3
99586.4
99545.7
99582.4
99522.8
99584.9
99546.3
99580.7
99524.3
99583.5
99546.9
99579
99525.8
99582
99547.8
99577.3
99527.2
99580.6
99548.9
99575.5
99528.5
99579.1
99549.9
99573.7
99529.4
99577.7
99550.9
99571.9
99530.1
99576.3
99551.9
99570.1
99530.8
99574.9
99552.8
99568.2
99531.8
99573.5
99553.6
99566.3
99532.9
99572.1
99554.5
99564.4
99534.1
99570.7
99555.3
99562.5
99535.2
99569.3
99556.1
99560.6
99536.2
99567.9
99556.8
99558.6
99537.3
99566.6
99557.6
99556.8
99538.3
99565.3
99558.3
99555.5
99539.3
99564.3
99559.1
99554.7
99540.2
99563.4
99163
99134.1
99146.4
99139.2
99163
99134.1
99146.4
99139.2
99163
99134.1
99146.4
99139.2
99163
99134.1
99146.4
99139.2
99162.9
99134.1
99146.4
99139.3
99162.9
99134.1
99146.4
99139.3
99162.9
99134.1
99146.4
99139.3
99162.9
99134.1
99146.4
99139.3
99162.9
99134.1
99146.4
99139.3
99162.9
99134.2
99146.4
99139.3
99162.8
99134.2
99146.4
99139.3
99162.8
99134.2
99146.3
99139.4
99162.7
99134.2
99146.3
99139.4
99162.7
99134.3
99146.3
99139.4
99162.6
99134.3
99146.3
99139.5
99162.6
99134.4
99146.2
99139.5
99162.5
99134.4
99146.2
99139.6
99162.4
99134.5
99146.2
99139.6
99162.3
99134.5
99146.1
99139.7
99162.2
99134.6
99146.1
99139.7
99162.1
99134.7
99146
99139.8
99161.9
99134.8
99146
99139.9
99161.8
99134.9
99146
99140
99161.6
99135
99145.9
99140.1
99161.4
99135.1
99145.8
99140.2
99161.2
99135.2
99145.8
99140.3
99161
99135.3
99145.7
99140.4
99160.8
99135.4
99145.6
99140.5
99160.5
99135.6
99145.6
99140.6
99160.3
99135.7
99145.5
99140.8
99160
99135.9
99145.4
99140.9
99159.7
99136.1
99145.3
99141.1
99159.4
99136.2
99145.2
99141.3
99159.1
99136.4
99145.2
99141.5
99158.8
99136.6
99145.1
99141.7
99158.4
99136.7
99145
99141.8
99158.1
99136.9
99144.9
99142.1
99157.7
99137.1
99144.8
99142.3
99157.3
99137.3
99144.7
99142.5
99156.9
99137.5
99144.6
99142.7
99156.6
99137.7
99144.5
99142.9
99156.2
99137.9
99144.4
99143.2
99155.8
99138.1
99144.3
99143.4
99155.3
99138.3
99144.2
99143.6
99154.9
99138.6
99144.1
99143.9
99154.5
99138.8
99144
99144.1
99154.1
99139
99143.9
99144.4
99153.8
99139.2
99143.8
99144.6
99153.4
99139.5
99143.7
99144.8
99153
99139.7
99143.6
99145.1
99152.7
99139.9
99143.5
99145.3
99152.4
99140.1
99143.4
99145.5
99152.1
99140.3
99143.3
99145.8
99151.8
99140.6
99143.2
99146
99151.5
99140.8
99143.2
99146.2
99151.1
99141
99143.1
99146.4
99150.8
99141.2
99143
99146.6
99150.6
99141.4
99143
99146.8
99150.3
99141.6
99142.9
99147
99150.1
99141.7
99142.8
99147.2
99149.9
99141.9
99142.8
99147.4
99149.7
99142.1
99142.7
99147.5
99149.5
99142.2
99142.7
99147.7
99149.4
99142.4
99142.6
99147.8
99149.2
99142.5
99142.6
99148
99149.1
99142.6
99142.6
99148.1
99148.9
99142.8
99142.5
99148.3
99148.7
99142.9
99142.5
99148.4
99148.6
99143
99142.5
99148.5
99148.4
99143
99142.5
99148.6
99148.3
99143.1
99142.4
99148.7
99148.2
99143.2
99142.4
99148.7
99148.1
99143.2
99142.4
99148.8
99148
99143.3
99142.4
99148.9
99147.9
99143.3
99142.4
99148.9
99147.8
99143.4
99142.4
99149
99147.8
99143.4
99142.4
99149
99147.7
99143.4
99142.4
99149.1
99147.6
99143.4
99142.4
99149.1
98916
98948.6
98904.4
98943.7
98916
98948.6
98904.4
98943.7
98916
98948.6
98904.4
98943.7
98916
98948.6
98904.4
98943.7
98916
98948.6
98904.4
98943.7
98916
98948.6
98904.4
98943.7
98916
98948.6
98904.4
98943.7
98916
98948.6
98904.5
98943.7
98916.1
98948.5
98904.5
98943.6
98916.1
98948.5
98904.5
98943.6
98916.1
98948.5
98904.5
98943.6
98916.1
98948.5
98904.5
98943.6
98916.2
98948.4
98904.6
98943.6
98916.2
98948.4
98904.6
98943.5
98916.2
98948.3
98904.6
98943.5
98916.3
98948.3
98904.7
98943.4
98916.3
98948.2
98904.7
98943.4
98916.4
98948.2
98904.8
98943.3
98916.5
98948.1
98904.9
98943.3
98916.5
98948.1
98904.9
98943.2
98916.6
98948
98905
98943.1
98916.7
98947.9
98905.1
98943.1
98916.8
98947.8
98905.1
98943
98916.8
98947.7
98905.2
98942.9
98916.9
98947.6
98905.3
98942.8
98917
98947.5
98905.5
98942.7
98917.1
98947.4
98905.6
98942.6
98917.2
98947.2
98905.7
98942.5
98917.3
98947.1
98905.8
98942.3
98917.5
98946.9
98906
98942.2
98917.6
98946.8
98906.2
98942.1
98917.8
98946.6
98906.3
98941.9
98917.9
98946.4
98906.5
98941.7
98918.1
98946.2
98906.7
98941.6
98918.2
98946
98906.8
98941.4
98918.4
98945.8
98907
98941.1
98918.5
98945.6
98907.2
98940.9
98918.6
98945.4
98907.4
98940.7
98918.8
98945.2
98907.6
98940.5
98918.9
98944.9
98907.9
98940.2
98919.1
98944.7
98908.2
98940
98919.3
98944.5
98908.4
98939.7
98919.5
98944.4
98908.7
98939.5
98919.7
98944.2
98909
98939.2
98919.9
98944
98909.3
98938.9
98920.2
98943.7
98909.6
98938.6
98920.4
98943.4
98909.9
98938.3
98920.6
98943.1
98910.2
98938
98920.7
98942.7
98910.5
98937.7
98921
98942.4
98910.9
98937.4
98921.2
98942.1
98911.2
98937.1
98921.4
98941.7
98911.5
98936.8
98921.7
98941.3
98911.9
98936.5
98921.9
98941
98912.2
98936.2
98922.2
98940.6
98912.6
98935.9
98922.5
98940.2
98912.9
98935.6
98922.7
98939.8
98913.2
98935.3
98923
98939.3
98913.6
98934.9
98923.3
98938.9
98913.9
98934.6
98923.5
98938.4
98914.3
98934.4
98923.8
98938
98914.6
98934.2
98924.1
98937.5
98914.9
98934.1
98924.3
98937
98915.2
98933.9
98924.6
98936.5
98915.6
98933.7
98924.8
98936
98915.9
98933.4
98925.1
98935.4
98916.2
98933.1
98925.3
98934.9
98916.5
98932.8
98925.6
98934.4
98916.8
98932.5
98925.8
98933.8
98917.1
98932.3
98926
98933.2
98917.4
98932
98926.3
98932.7
98917.7
98931.7
98926.5
98932.1
98918
98931.4
98926.7
98931.5
98918.3
98931.1
98926.9
98930.9
98918.5
98930.9
98927.1
98930.4
98918.8
98930.6
98927.3
98929.8
98919.1
98930.3
98927.5
98929.2
98919.4
98930
98927.7
98928.6
98919.6
98929.7
98927.9
98927.9
98919.9
98929.5
99925.4
99925.9
99912.6
99927.5
99925
99925.9
99912.5
99927.7
99924.7
99925.9
99912.4
99927.8
99924.4
99925.9
99912.3
99927.9
99924.1
99926
99912.2
99928.1
99923.9
99926.1
99912.1
99928.2
99923.6
99926.1
99912
99928.4
99923.4
99926.2
99911.8
99928.5
99923.2
99926.3
99911.7
99928.7
99923
99926.4
99911.6
99928.8
99922.8
99926.5
99911.4
99929
99922.6
99926.7
99911.3
99929.2
99922.5
99926.8
99911.1
99929.3
99922.4
99926.9
99910.9
99929.5
99922.3
99927.1
99910.8
99929.7
99922.1
99927.2
99910.6
99929.9
99922
99927.3
99910.4
99930.1
99921.9
99927.5
99910.2
99930.2
99921.8
99927.6
99910
99930.4
99921.7
99927.8
99909.9
99930.6
99921.6
99927.9
99909.7
99930.8
99921.5
99928.1
99909.5
99931
99921.4
99928.2
99909.3
99931.2
99921.3
99928.4
99909.1
99931.3
99921.2
99928.5
99908.9
99931.5
99921.1
99928.6
99908.7
99931.7
99920.9
99928.8
99908.5
99931.9
99920.8
99929
99908.3
99932.1
99920.6
99929.1
99908.1
99932.3
99920.4
99929.3
99908
99932.5
99920.3
99929.4
99907.8
99932.7
99920.1
99929.6
99907.6
99932.9
99919.9
99929.7
99907.4
99933
99919.6
99929.9
99907.3
99933.2
99919.4
99930.1
99907.1
99933.4
99919.2
99930.2
99907
99933.6
99919
99930.4
99906.8
99933.8
99918.7
99930.6
99906.7
99934
99918.5
99930.8
99906.5
99934.1
99918.3
99930.9
99906.4
99934.3
99918
99931.1
99906.3
99934.5
99917.8
99931.3
99906.2
99934.6
99917.6
99931.4
99906
99934.8
99917.4
99931.6
99905.9
99934.9
99917.2
99931.7
99905.8
99935.1
99916.9
99931.9
99905.7
99935.2
99916.7
99932
99905.6
99935.4
99916.5
99932.2
99905.6
99935.5
99916.4
99932.3
99905.5
99935.6
99916.2
99932.4
99905.4
99935.7
99916
99932.5
99905.3
99935.8
99915.9
99932.6
99905.3
99935.9
99915.7
99932.7
99905.2
99936
99915.6
99932.8
99905.1
99936.1
99915.5
99932.9
99905.1
99936.2
99915.3
99933
99905
99936.3
99915.2
99933.1
99905
99936.3
99915.1
99933.1
99905
99936.4
99915.1
99933.2
99904.9
99936.5
99915
99933.2
99904.9
99936.5
99914.9
99933.3
99904.9
99936.5
99914.8
99933.3
99904.8
99936.6
99914.8
99933.4
99904.8
99936.6
99914.7
99933.4
99904.8
99936.7
99914.7
99933.4
99904.8
99936.7
99914.6
99933.5
99904.7
99936.7
99914.6
99933.5
99904.7
99936.7
99914.6
99933.5
99904.7
99936.7
99914.6
99933.5
99904.7
99936.8
99914.5
99933.5
99904.7
99936.8
99914.5
99933.5
99904.7
99936.8
99914.5
99933.6
99904.7
99936.8
99914.5
99933.6
99904.7
99936.8
99914.5
99933.6
99904.6
99936.8
99914.5
99933.6
99904.6
99936.8
99914.5
99933.6
99904.6
99936.8
99914.4
99933.6
99904.6
99936.8
99914.4
99933.6
99904.6
99936.8
99914.4
99933.6
99904.6
99936.8
99559.9
99553.9
99541.2
99562.4
99560.7
99552.7
99542.2
99561.2
99561.6
99550.8
99543.2
99559.9
99562.6
99548.5
99544.3
99558.5
99563.7
99546
99545.3
99557
99564.8
99543.4
99546
99555.6
99566
99540.7
99546.5
99554.1
99567.2
99537.8
99547.2
99552.6
99568.5
99534.9
99548.3
99551
99569.8
99532
99549.8
99549.5
99571.1
99529
99551.4
99548
99572.5
99526
99553.2
99546.5
99574
99522.9
99555
99545
99575.5
99519.9
99556.8
99543.5
99577
99516.8
99558.7
99542
99578.6
99513.8
99560.6
99540.5
99580.2
99510.8
99562.5
99539
99581.9
99507.8
99564.4
99537.5
99583.6
99504.9
99566.4
99535.9
99585.4
99502
99568.4
99534.4
99587.2
99499.2
99570.4
99532.8
99589.1
99496.4
99572.3
99531.4
99590.7
99493.7
99574.3
99530.3
99592
99491
99576.3
99529.2
99593.1
99488.4
99578.2
99527.9
99594.2
99485.8
99580.2
99526.4
99595.8
99483.1
99582.1
99524.7
99597.8
99480.6
99584
99523
99599.9
99478.4
99585.8
99521.3
99602
99476.8
99587.7
99519.7
99604
99475.4
99589.5
99518
99606.1
99474
99591.1
99516.4
99608.2
99472.3
99592.3
99514.8
99610.2
99470.2
99593.3
99513.2
99612.1
99468.2
99594.3
99511.7
99614.1
99466.3
99595.6
99510.2
99616
99464.4
99597
99508.7
99617.9
99462.6
99598.5
99507.2
99619.7
99461
99600
99505.8
99621.5
99459.4
99601.4
99504.3
99623.2
99457.9
99602.8
99502.9
99624.8
99456.5
99604.1
99501.6
99626.4
99455.2
99605.3
99500.5
99627.9
99453.9
99606.5
99499.6
99629.4
99452.8
99607.5
99498.7
99630.7
99451.7
99608.4
99497.7
99632
99450.7
99609.3
99496.6
99633.2
99449.7
99610.1
99495.5
99634.3
99448.9
99610.8
99494.5
99635.3
99448.1
99611.6
99493.6
99636.2
99447.3
99612.3
99492.7
99637.1
99446.7
99613
99491.8
99637.9
99446
99613.6
99491.1
99638.7
99445.5
99614.2
99490.4
99639.4
99445
99614.7
99489.7
99640
99444.5
99615.2
99489.2
99640.6
99444.1
99615.6
99488.6
99641.2
99443.7
99616
99488.2
99641.7
99443.3
99616.4
99487.7
99642.1
99443
99616.7
99487.3
99642.5
99442.7
99617
99487
99642.8
99442.4
99617.3
99486.7
99643.1
99442.2
99617.5
99486.4
99643.4
99441.9
99617.7
99486.2
99643.6
99441.7
99617.9
99485.9
99643.9
99441.6
99618.1
99485.8
99644
99441.4
99618.2
99485.6
99644.2
99441.2
99618.4
99485.5
99644.3
99441.1
99618.5
99485.3
99644.4
99441
99618.6
99485.2
99644.5
99440.9
99618.7
99485.2
99644.6
99440.8
99618.8
99485.1
99644.7
99440.7
99618.9
99485
99644.8
99440.6
99618.9
99484.9
99644.8
99440.5
99619
99484.9
99644.9
99440.5
99619
99484.8
99644.9
99440.4
99619.1
99484.8
99644.9
99440.4
99619.1
99484.8
99645
99440.4
99619.1
99484.8
99147.6
99143.5
99142.4
99149.1
99147.5
99143.5
99142.4
99149.2
99147.5
99143.5
99142.4
99149.2
99147.4
99143.5
99142.4
99149.2
99147.4
99143.5
99142.4
99149.2
99147.3
99143.5
99142.4
99149.2
99147.3
99143.5
99142.4
99149.3
99147.2
99143.5
99142.4
99149.3
99147.2
99143.6
99142.4
99149.3
99147.1
99143.6
99142.4
99149.3
99147.1
99143.6
99142.4
99149.4
99147
99143.6
99142.4
99149.4
99147
99143.6
99142.4
99149.4
99146.9
99143.6
99142.3
99149.5
99146.9
99143.7
99142.3
99149.5
99146.8
99143.7
99142.3
99149.5
99146.8
99143.7
99142.3
99149.6
99146.7
99143.8
99142.3
99149.6
99146.6
99143.8
99142.2
99149.7
99146.6
99143.8
99142.2
99149.7
99146.5
99143.9
99142.2
99149.7
99146.5
99143.9
99142.1
99149.8
99146.4
99144
99142.1
99149.8
99146.4
99144.1
99142.1
99149.8
99146.3
99144.1
99142
99149.9
99146.3
99144.2
99142
99149.9
99146.2
99144.2
99141.9
99150
99146.1
99144.3
99141.9
99150
99146
99144.4
99141.9
99150.1
99146
99144.4
99141.8
99150.1
99145.9
99144.5
99141.8
99150.2
99145.8
99144.6
99141.7
99150.2
99145.7
99144.7
99141.7
99150.3
99145.7
99144.7
99141.7
99150.4
99145.6
99144.8
99141.6
99150.4
99145.5
99144.9
99141.6
99150.5
99145.4
99145
99141.6
99150.6
99145.3
99145.1
99141.5
99150.6
99145.2
99145.1
99141.5
99150.7
99145.2
99145.2
99141.4
99150.7
99145.1
99145.3
99141.4
99150.8
99145
99145.4
99141.4
99150.8
99144.9
99145.4
99141.3
99150.9
99144.9
99145.5
99141.3
99150.9
99144.8
99145.6
99141.3
99151
99144.7
99145.6
99141.2
99151
99144.7
99145.7
99141.2
99151.1
99144.6
99145.8
99141.2
99151.1
99144.6
99145.8
99141.1
99151.2
99144.5
99145.9
99141.1
99151.2
99144.4
99145.9
99141.1
99151.2
99144.4
99146
99141.1
99151.3
99144.4
99146
99141
99151.3
99144.3
99146.1
99141
99151.3
99144.3
99146.1
99141
99151.4
99144.2
99146.2
99141
99151.4
99144.2
99146.2
99141
99151.4
99144.2
99146.2
99140.9
99151.5
99144.1
99146.3
99140.9
99151.5
99144.1
99146.3
99140.9
99151.5
99144.1
99146.3
99140.9
99151.5
99144.1
99146.3
99140.9
99151.5
99144.1
99146.3
99140.9
99151.5
99144
99146.4
99140.9
99151.6
99144
99146.4
99140.9
99151.6
99144
99146.4
99140.9
99151.6
99144
99146.4
99140.9
99151.6
99144
99146.4
99140.9
99151.6
99144
99146.4
99140.9
99151.6
99144
99146.4
99140.8
99151.6
99144
99146.4
99140.8
99151.6
99144
99146.4
99140.8
99151.6
99144
99146.4
99140.8
99151.6
99144
99146.5
99140.8
99151.6
99144
99146.5
99140.8
99151.6
99144
99146.5
99140.8
99151.6
99144
99146.5
99140.8
99151.6
99144
99146.5
99140.8
99151.6
99144
99146.5
99140.8
99151.6
98928.1
98927.3
98920.2
98929.2
98928.3
98926.7
98920.5
98928.9
98928.6
98926
98920.8
98928.6
98928.8
98925.2
98921
98928.2
98929.1
98924.4
98921.2
98927.9
98929.5
98923.6
98921.4
98927.5
98929.8
98922.7
98921.7
98927.2
98930.1
98921.7
98922.2
98926.8
98930.5
98920.7
98922.6
98926.4
98930.9
98919.7
98923.1
98926
98931.3
98918.6
98923.6
98925.6
98931.7
98917.6
98924.1
98925.1
98932.2
98916.9
98924.6
98924.7
98932.6
98916.3
98925.1
98924.2
98933.1
98915.7
98925.7
98923.8
98933.6
98914.8
98926.3
98923.3
98934.1
98913.7
98926.9
98922.8
98934.6
98912.5
98927.5
98922.3
98935.1
98911.3
98928.2
98921.8
98935.7
98910.1
98928.8
98921.3
98936.3
98908.9
98929.3
98920.8
98936.9
98907.8
98929.8
98920.2
98937.5
98906.6
98930.3
98919.7
98938.1
98905.4
98931
98919.1
98938.7
98904.3
98931.7
98918.6
98939.2
98903.2
98932.4
98918
98939.6
98902
98933.2
98917.4
98940
98900.9
98933.9
98916.8
98940.5
98899.8
98934.6
98916.2
98941.1
98898.7
98935.4
98915.6
98941.8
98897.6
98936.1
98915
98942.5
98896.6
98936.8
98914.4
98943.2
98895.9
98937.6
98913.8
98943.9
98895.3
98938.3
98913.2
98944.6
98894.8
98939
98912.5
98945.2
98894.2
98939.7
98911.9
98945.9
98893.4
98940.4
98911.3
98946.5
98892.5
98941.1
98910.9
98947.2
98891.6
98941.8
98910.5
98947.8
98890.8
98942.4
98910.1
98948.4
98890
98943.1
98909.7
98949
98889.2
98943.7
98909.2
98949.6
98888.5
98944.3
98908.7
98950.1
98887.8
98944.9
98908.1
98950.6
98887.2
98945.5
98907.6
98951.1
98886.5
98946
98907.2
98951.6
98885.9
98946.5
98906.7
98952.1
98885.4
98947
98906.3
98952.5
98884.9
98947.5
98905.9
98952.9
98884.4
98947.9
98905.5
98953.3
98883.9
98948.4
98905.1
98953.7
98883.5
98948.7
98904.7
98954
98883.1
98949.1
98904.4
98954.3
98882.7
98949.4
98904.1
98954.6
98882.4
98949.8
98903.8
98954.9
98882.1
98950
98903.6
98955.1
98881.8
98950.3
98903.3
98955.4
98881.6
98950.5
98903.1
98955.6
98881.4
98950.7
98903
98955.7
98881.2
98950.9
98902.8
98955.9
98881
98951.1
98902.6
98956
98880.8
98951.2
98902.5
98956.2
98880.7
98951.3
98902.4
98956.3
98880.6
98951.4
98902.3
98956.4
98880.5
98951.5
98902.2
98956.5
98880.4
98951.6
98902.1
98956.5
98880.3
98951.7
98902
98956.6
98880.2
98951.8
98902
98956.7
98880.2
98951.8
98901.9
98956.7
98880.1
98951.9
98901.9
98956.7
98880.1
98951.9
98901.9
98956.8
98880
98951.9
98901.8
98956.8
98880
98952
98901.8
98956.8
98879.9
98952
98901.8
98956.9
98879.9
98952
98901.8
98956.9
98879.9
98952.1
98901.7
98956.9
98879.9
98952.1
98901.7
98956.9
98879.9
98952.1
98901.7
98956.9
98879.9
98952.1
98901.7
)
;

boundaryField
{
    leftWall
    {
        type            calculated;
        value           nonuniform List<scalar> 
16
(
100000
99498.3
99163
98916
99902.7
99627.7
99134.1
98948.6
99922.3
99473.8
99146.4
98904.4
99903.5
99636.5
99139.2
98943.7
)
;
    }
    rightWall
    {
        type            calculated;
        value           nonuniform List<scalar> 
16
(
99914.4
99645
99144
98956.9
99933.6
99440.4
99146.5
98879.9
99904.6
99619.1
99140.8
98952.1
99936.8
99484.8
99151.6
98901.7
)
;
    }
    leftSides_periodic0
    {
        type            cyclic;
    }
    leftSides_periodic1
    {
        type            cyclic;
    }
    rightSides_periodic0
    {
        type            cyclic;
    }
    rightSides_periodic1
    {
        type            cyclic;
    }
    leftInOut_periodic0
    {
        type            cyclic;
    }
    leftInOut_periodic1
    {
        type            cyclic;
    }
    rightInOut_periodic0
    {
        type            cyclic;
    }
    rightInOut_periodic1
    {
        type            cyclic;
    }
}


// ************************************************************************* //
