/*--------------------------------*- C++ -*----------------------------------*\
| =========                 |                                                 |
| \\      /  F ield         | OpenFOAM: The Open Source CFD Toolbox           |
|  \\    /   O peration     | Version:  v1912                                 |
|   \\  /    A nd           | Website:  www.openfoam.com                      |
|    \\/     M anipulation  |                                                 |
\*---------------------------------------------------------------------------*/
FoamFile
{
    version     2.0;
    format      ascii;
    class       surfaceScalarField;
    location    "98.4";
    object      phi;
}
// * * * * * * * * * * * * * * * * * * * * * * * * * * * * * * * * * * * * * //

dimensions      [1 0 -1 0 0 0 0];
oriented        oriented;


internalField   nonuniform List<scalar> 
6304
(
9.81092e-06
-2.76861e-05
4.19468e-06
-7.51428e-06
1.60969e-05
3.67363e-06
6.62527e-06
-1.75838e-05
4.29379e-06
1.46565e-05
2.921e-06
1.24119e-05
-5.69202e-05
9.85675e-06
-1.21646e-05
3.88931e-05
1.0221e-05
1.05093e-05
-4.52093e-05
1.06744e-05
3.52999e-05
7.95657e-06
1.03606e-05
-8.15163e-05
1.49674e-05
-1.45258e-05
6.21961e-05
1.65792e-05
1.25921e-05
-7.71298e-05
1.65743e-05
5.67064e-05
1.28146e-05
8.54357e-06
-0.000102124
2.03328e-05
-1.66284e-05
8.59096e-05
2.31176e-05
1.4409e-05
-0.000112925
2.26772e-05
7.87474e-05
1.78945e-05
7.2352e-06
-0.000120029
2.59943e-05
-1.82738e-05
0.00010995
2.98488e-05
1.56419e-05
-0.00015181
2.90063e-05
0.000101055
2.32291e-05
6.2216e-06
-0.000135911
3.18365e-05
-1.96145e-05
0.000134314
3.6673e-05
1.65036e-05
-0.00019318
3.54513e-05
0.000123465
2.87304e-05
5.39431e-06
-0.000150163
3.77903e-05
-2.07085e-05
0.000158993
4.35255e-05
1.70813e-05
-0.000236506
4.19444e-05
0.000145874
3.4339e-05
4.6836e-06
-0.000163003
4.38023e-05
-2.15763e-05
0.000183932
5.03544e-05
1.74148e-05
-0.000281283
4.8434e-05
0.000168173
4.00027e-05
4.03965e-06
-0.000174519
4.98236e-05
-2.22274e-05
0.000209022
5.71118e-05
1.75301e-05
-0.000327012
5.48731e-05
0.000190231
4.56689e-05
3.43482e-06
-0.000184734
5.58106e-05
-2.26769e-05
0.000234135
6.37549e-05
1.74575e-05
-0.000373224
6.12191e-05
0.000211928
5.12881e-05
2.86505e-06
-0.000193661
6.17304e-05
-2.29516e-05
0.00025916
7.02542e-05
1.72357e-05
-0.000419514
6.74428e-05
0.000233184
5.68214e-05
2.34173e-06
-0.000201354
6.75663e-05
-2.30863e-05
0.000284022
7.65996e-05
1.69071e-05
-0.000465569
7.35315e-05
0.000253976
6.22475e-05
1.88281e-06
-0.000207928
7.33174e-05
-2.31157e-05
0.0003087
8.28007e-05
1.65087e-05
-0.000511174
7.94929e-05
0.00027433
6.7562e-05
1.51687e-06
-0.00021356
7.89913e-05
-2.30812e-05
0.00033324
8.88713e-05
1.60773e-05
-0.000556204
8.53415e-05
0.000294326
7.27756e-05
1.26824e-06
-0.000218471
8.4594e-05
-2.30149e-05
0.000357745
9.48275e-05
1.56413e-05
-0.000600591
9.10924e-05
0.00031409
7.79073e-05
1.12499e-06
-0.000222865
9.01286e-05
-2.29179e-05
0.000382307
0.000100688
1.52041e-05
-0.00064427
9.67582e-05
0.000333751
8.29733e-05
1.05352e-06
-0.000226867
9.55954e-05
-2.27888e-05
0.000406985
0.000106466
1.47635e-05
-0.000687171
0.000102346
0.00035341
8.79854e-05
1.03338e-06
-0.000230553
0.000100995
-2.26355e-05
0.000431825
0.000112171
1.43263e-05
-0.00072924
0.00010786
0.000373146
9.29533e-05
1.05695e-06
-0.000233988
0.000106334
-2.24646e-05
0.00045687
0.000117812
1.38983e-05
-0.00077043
0.000113307
0.000393031
9.78887e-05
1.11911e-06
-0.00023724
0.000111622
-2.22801e-05
0.000482163
0.000123399
1.34827e-05
-0.000810701
0.000118689
0.000413129
0.000102803
1.21554e-06
-0.000240391
0.000116874
-2.2085e-05
0.000507743
0.000128942
1.30141e-05
-0.000849955
0.000124018
0.000433422
0.00010771
1.34256e-06
-0.000243541
0.000122101
-2.18816e-05
0.000533643
0.000134453
1.25726e-05
-0.000888195
0.000129309
0.000453963
0.00011262
1.49774e-06
-0.000246801
0.000127316
-2.16715e-05
0.000559886
0.000139949
1.21567e-05
-0.000925449
0.000134583
0.000474786
0.000117546
1.68152e-06
-0.000250283
0.000132533
-2.14561e-05
0.000586489
0.00014545
1.17653e-05
-0.000961766
0.000139852
0.000495917
0.000122498
1.89556e-06
-0.000254077
0.000137767
-2.12372e-05
0.000613458
0.000150975
1.13977e-05
-0.000997215
0.000145133
0.000517355
0.00012749
2.13946e-06
-0.000258237
0.000143033
-2.10158e-05
0.00064079
0.000156539
1.10534e-05
-0.00103187
0.000150437
0.000539072
0.000132531
2.41225e-06
-0.000262854
0.000148343
-2.07933e-05
0.000668481
0.000162157
1.07323e-05
-0.00106579
0.000155779
0.000561085
0.000137631
2.71353e-06
-0.000268017
0.000153703
-2.0571e-05
0.000696544
0.000167841
1.04344e-05
-0.00109904
0.000161169
0.000583427
0.000142799
3.04141e-06
-0.000273815
0.000159121
-2.03494e-05
0.000725043
0.000173601
1.01593e-05
-0.00113165
0.000166613
0.000606138
0.000148041
3.39047e-06
-0.00028034
0.000164604
-2.01282e-05
0.000754125
0.000179442
9.90681e-06
-0.00116368
0.000172118
0.000629275
0.000153364
3.75198e-06
-0.000287683
0.000170163
-1.99072e-05
0.000783992
0.000185364
9.6765e-06
-0.00119515
0.000177691
0.00065291
0.000158775
4.11719e-06
-0.000295972
0.000175813
-1.96864e-05
0.000814799
0.00019136
9.46825e-06
-0.00122611
0.000183342
0.000677124
0.000164283
4.48141e-06
-0.000305443
0.000181571
-1.94662e-05
0.000846524
0.000197425
9.27987e-06
-0.00125671
0.000189077
0.000701986
0.000169895
4.84293e-06
-0.00031638
0.000187457
-1.92459e-05
0.000878925
0.000203604
9.10688e-06
-0.00128704
0.000194904
0.000727586
0.000175615
5.19567e-06
-0.000328782
0.000193487
-1.90203e-05
0.000911628
0.000209987
8.93912e-06
-0.00131698
0.000200824
0.000754124
0.00018145
5.52522e-06
-0.000342027
0.000199672
-1.87788e-05
0.000944216
0.000216667
8.75883e-06
-0.001346
0.000206836
0.000781924
0.000187399
5.81696e-06
-0.000355364
0.000206004
-1.85125e-05
0.000976461
0.000223507
8.54788e-06
-0.0013736
0.000212928
0.000811183
0.000193457
6.06443e-06
-0.00036892
0.000212464
-1.82228e-05
0.00100858
0.000230112
8.30077e-06
-0.0013999
0.000219083
0.000841709
0.000199614
6.26397e-06
-0.000383152
0.000219028
-1.79229e-05
0.00104079
0.000236472
8.02714e-06
-0.00142525
0.000225295
0.00087319
0.000205865
6.41043e-06
-0.000398322
0.000225679
-1.76297e-05
0.0010731
0.000242835
7.74218e-06
-0.00144991
0.000231566
0.000905414
0.000212208
6.50387e-06
-0.000414446
0.000232399
-1.73579e-05
0.00110537
0.000249323
7.45943e-06
-0.00147399
0.000237906
0.000938284
0.000218641
6.55675e-06
-0.00043147
0.00023918
-1.71173e-05
0.00113755
0.000255897
7.19009e-06
-0.00149756
0.000244322
0.000971767
0.000225167
6.59188e-06
-0.000449398
0.000246016
-1.68803e-05
0.0011696
0.00026252
6.94218e-06
-0.00152067
0.000250822
0.00100585
0.000231786
6.63269e-06
-0.000468285
0.000252914
-1.66661e-05
0.00120152
0.000269189
6.7175e-06
-0.00154352
0.000257547
0.00104053
0.000238497
6.69148e-06
-0.000488214
0.000259882
-1.64778e-05
0.00123333
0.0002759
6.51629e-06
-0.00156662
0.000264833
0.00107582
0.0002453
6.764e-06
-0.00050929
0.00026696
-1.63242e-05
0.00126505
0.000282653
6.35033e-06
-0.00159084
0.000272996
0.00111174
0.000252199
6.83671e-06
-0.000531715
0.000274282
-1.62491e-05
0.00129671
0.000289447
6.26061e-06
-0.00161705
0.000281816
0.00114835
0.000259195
6.90248e-06
-0.00055578
0.000281959
-1.63108e-05
0.0013284
0.000296282
6.30226e-06
-0.00164504
0.000289936
0.00118573
0.000266294
6.9759e-06
-0.000581707
0.00028991
-1.64991e-05
0.0013602
0.000303159
6.47812e-06
-0.00167415
0.000297286
0.001224
0.000273506
7.10603e-06
-0.000609345
0.000297734
-1.67083e-05
0.00139212
0.000310087
6.70029e-06
-0.00170317
0.000304719
0.00126316
0.000280843
7.33736e-06
-0.000638484
0.000305352
-1.68178e-05
0.00142409
0.000317084
6.86217e-06
-0.00173038
0.000312547
0.00130309
0.000288319
7.65774e-06
-0.000669164
0.000313066
-1.68085e-05
0.001456
0.000324165
6.96101e-06
-0.00175598
0.000320539
0.00134363
0.00029595
8.01678e-06
-0.000701433
0.000320988
-1.67857e-05
0.0014878
0.000331341
7.10668e-06
-0.00178095
0.000328509
0.00138469
0.00030375
8.4336e-06
-0.000735242
0.000329055
-1.68783e-05
0.0015196
0.000338618
7.41939e-06
-0.00180623
0.000336449
0.00142626
0.000311729
9.02589e-06
-0.000770612
0.000337257
-1.71808e-05
0.0015517
0.000346012
7.94746e-06
-0.00183245
0.000344394
0.00146832
0.000319885
9.98228e-06
-0.000807786
0.000345633
-1.77532e-05
0.00158462
0.000353553
8.65544e-06
-0.00186007
0.000352366
0.0015107
0.000328383
1.13398e-05
-0.000847067
0.00035422
-1.85866e-05
0.00161892
0.000361275
9.47566e-06
-0.00188946
0.00036037
0.00155282
0.000337554
1.27946e-05
-0.000888438
0.000363187
-1.9507e-05
0.0016547
0.000369178
1.03621e-05
-0.00192079
0.000368403
0.00159358
0.000347807
1.38174e-05
-0.000931393
0.000372926
-2.04504e-05
0.00169155
0.000377226
1.12754e-05
-0.00195411
0.000376462
0.00163176
0.000359051
1.41421e-05
-0.00097536
0.000383725
-2.14138e-05
0.00172877
0.000385373
1.21427e-05
-0.0019894
0.000384547
0.00166789
0.00036941
1.41229e-05
-0.00102044
0.000395313
-2.24094e-05
0.00176601
0.000393586
1.28794e-05
-0.00202655
0.000392656
0.00170272
0.000378864
1.44393e-05
-0.00106675
0.000406072
-2.35293e-05
0.00180365
0.000401877
1.34057e-05
-0.00206549
0.000400787
0.00173643
0.000388378
1.54354e-05
-0.00111471
0.000415908
-2.48496e-05
0.00184243
0.000410291
1.37043e-05
-0.00210616
0.000408935
0.00176902
0.000398338
1.68063e-05
-0.00116349
0.000425942
-2.63443e-05
0.0018828
0.000418848
1.38088e-05
-0.0021485
0.000417083
0.00180043
0.000408621
1.8098e-05
-0.00121011
0.000436567
-2.80088e-05
0.00192474
0.000427556
1.37362e-05
-0.00219244
0.000425211
0.00183024
0.000419105
1.93591e-05
-0.00125423
0.000447402
-2.9985e-05
0.00196834
0.000436472
1.35028e-05
-0.00223806
0.00043332
0.00185772
0.000429779
2.09919e-05
-0.00129726
0.000458223
-3.25417e-05
0.00201427
0.000445704
1.31429e-05
-0.00228579
0.000441446
0.0018824
0.000440645
2.29184e-05
-0.00134088
0.000469068
-3.59226e-05
0.00206346
0.000455368
1.26971e-05
-0.00233639
0.000449635
0.00190442
0.000451704
2.39698e-05
-0.00138485
0.000479984
-4.0031e-05
0.00211582
0.000465504
1.22089e-05
-0.0023906
0.000457908
0.00192399
0.000462956
2.28627e-05
-0.00142711
0.000490972
-4.43196e-05
0.00216967
0.000475971
1.1716e-05
-0.00244862
0.000466247
0.0019412
0.000474393
2.04107e-05
-0.00146636
0.00050204
-4.8174e-05
0.00222356
0.000486474
1.12454e-05
-0.00251004
0.000474623
0.00195606
0.000486005
1.78509e-05
-0.00150251
0.000513198
-5.14287e-05
0.00227693
0.000496769
1.08122e-05
-0.00257429
0.000483005
0.00196861
0.000497773
1.61568e-05
-0.00153647
0.000524453
-5.4442e-05
0.00233028
0.000506873
1.04194e-05
-0.00264112
0.000491373
0.0019789
0.000509666
1.53293e-05
-0.00156918
0.000535812
-5.73901e-05
0.0023843
0.000516855
1.00552e-05
-0.00271046
0.000499709
0.00198697
0.000521644
1.48812e-05
-0.00160111
0.000547278
-5.95828e-05
0.00243866
0.000526617
9.68875e-06
-0.00278151
0.000508
0.00199289
0.000533656
1.46174e-05
-0.00163259
0.000558853
-6.09297e-05
0.00249289
0.000535996
9.26457e-06
-0.00285334
0.000516232
0.00199672
0.000545639
1.45857e-05
-0.00166409
0.00057054
-6.17774e-05
0.00254679
0.000545011
8.70245e-06
-0.00292532
0.000524399
0.00199835
0.000557529
1.48221e-05
-0.00169618
0.000582327
-6.20756e-05
0.00259948
0.000553804
7.8993e-06
-0.0029967
0.000532483
0.00199719
0.000569256
1.52447e-05
0.000594122
-0.00172912
-6.18254e-05
0.000561829
0.00264969
6.70306e-06
0.000540386
-0.00306641
0.000580699
0.001993
1.75411e-06
-3.92499e-06
4.51473e-06
-8.74633e-08
3.60979e-07
5.15445e-06
2.21233e-07
-6.77045e-07
4.65737e-06
7.01594e-07
4.30064e-06
1.53909e-06
-9.46801e-06
1.14175e-05
-2.27364e-07
-9.64376e-07
1.3312e-05
1.25312e-06
-3.73089e-06
1.22328e-05
1.63223e-06
1.07483e-05
1.71485e-07
-1.43316e-05
1.75192e-05
-5.24616e-07
-4.6223e-06
2.09329e-05
2.7301e-06
-9.60396e-06
1.91701e-05
2.71481e-06
1.66454e-05
-1.07941e-06
-1.86253e-05
2.37611e-05
-6.90242e-07
-1.05042e-05
2.86132e-05
4.08235e-06
-1.79139e-05
2.61889e-05
4.05794e-06
2.26365e-05
-2.07265e-06
-2.27557e-05
3.02768e-05
-7.04884e-07
-1.83809e-05
3.6365e-05
5.16654e-06
-2.81802e-05
3.33769e-05
5.6813e-06
2.87629e-05
-2.92988e-06
-2.6864e-05
3.68982e-05
-6.36998e-07
-2.80861e-05
4.40955e-05
6.09768e-06
-4.00801e-05
4.05964e-05
7.62688e-06
3.49375e-05
-3.70179e-06
-3.10006e-05
4.35402e-05
-5.21437e-07
-3.9481e-05
5.17505e-05
6.92247e-06
-5.33704e-05
4.77751e-05
9.94806e-06
4.11113e-05
-4.41326e-06
-3.51734e-05
5.01498e-05
-3.7855e-07
-5.24425e-05
5.9291e-05
7.66188e-06
-6.78567e-05
5.48679e-05
1.26843e-05
4.72488e-05
-5.07951e-06
-3.93669e-05
5.66866e-05
-2.18767e-07
-6.68645e-05
6.66824e-05
8.32738e-06
-8.33781e-05
6.18394e-05
1.58513e-05
5.3318e-05
-5.70833e-06
-4.35578e-05
6.31176e-05
-4.90142e-08
-8.26546e-05
7.38952e-05
8.92636e-06
-9.98002e-05
6.86596e-05
1.94426e-05
5.92888e-05
-6.29895e-06
-4.77287e-05
6.94211e-05
1.25915e-07
-9.97254e-05
8.09116e-05
9.46361e-06
-0.000117008
7.53099e-05
2.34371e-05
6.5138e-05
-6.84421e-06
-5.18786e-05
7.55902e-05
3.07569e-07
-0.000117996
8.77317e-05
9.94084e-06
-0.000134892
8.17856e-05
2.78086e-05
7.08531e-05
-7.33977e-06
-5.6031e-05
8.16358e-05
4.94497e-07
-0.000137389
9.43737e-05
1.03604e-05
-0.000153361
8.81026e-05
3.25384e-05
7.64348e-05
-7.792e-06
-6.02225e-05
8.75759e-05
6.83777e-07
-0.000157841
0.000100861
1.07291e-05
-0.000172341
9.42816e-05
3.76118e-05
8.1898e-05
-8.21269e-06
-6.44669e-05
9.34152e-05
8.71408e-07
-0.00017929
0.000107205
1.10569e-05
-0.000191759
0.00010033
4.30132e-05
8.72613e-05
-8.61006e-06
-6.87469e-05
9.91493e-05
1.05475e-06
-0.000201668
0.000113415
1.13562e-05
-0.000211549
0.000106254
4.8737e-05
9.25316e-05
-8.98962e-06
-7.30195e-05
0.000104776
1.23201e-06
-0.000224909
0.000119499
1.16371e-05
-0.000231658
0.000112058
5.47784e-05
9.77117e-05
-9.35646e-06
-7.72096e-05
0.000110298
1.40127e-06
-0.000248948
0.000125464
1.19058e-05
-0.000252042
0.000117747
6.1113e-05
0.000102809
-9.71458e-06
-8.12932e-05
0.000115721
1.56042e-06
-0.000273719
0.000131318
1.21657e-05
-0.00027266
0.000123326
6.77768e-05
0.000107835
-1.00669e-05
-8.52367e-05
0.000121058
1.70736e-06
-0.000299157
0.00013707
1.24184e-05
-0.000293477
0.000128798
7.48011e-05
0.0001128
-1.04147e-05
-8.90042e-05
0.000126322
1.84098e-06
-0.000325195
0.000142727
1.26634e-05
-0.000314456
0.000134174
8.22145e-05
0.000117717
-1.07564e-05
-9.25623e-05
0.000131525
1.96242e-06
-0.000351767
0.000148304
1.28994e-05
-0.000335557
0.000139472
9.00442e-05
0.000122598
-1.10863e-05
-9.58843e-05
0.000136682
2.07529e-06
-0.000378801
0.000153816
1.31244e-05
-0.000356737
0.00014471
9.83166e-05
0.000127454
-1.13975e-05
-9.89536e-05
0.000141805
2.18446e-06
-0.000406227
0.000159285
1.33362e-05
-0.000377945
0.000149905
0.000107058
0.000132298
-1.16838e-05
-0.000101766
0.000146914
2.29418e-06
-0.000433974
0.000164733
1.35326e-05
-0.00039913
0.000155075
0.000116295
0.000137141
-1.19401e-05
-0.000104331
0.00015203
2.40844e-06
-0.000461978
0.000170181
1.37119e-05
-0.000420241
0.00016024
0.000126054
0.000141997
-1.2163e-05
-0.000106667
0.00015717
2.53094e-06
-0.000490179
0.000175648
1.38742e-05
-0.00044123
0.00016542
0.000136355
0.00014688
-1.23519e-05
-0.000108794
0.000162342
2.66386e-06
-0.000518517
0.000181145
1.40213e-05
-0.000462049
0.000170623
0.000147212
0.000151801
-1.25086e-05
-0.000110723
0.000167551
2.80831e-06
-0.000546936
0.000186683
1.41554e-05
-0.000482645
0.000175854
0.000158641
0.000156768
-1.26356e-05
-0.000112459
0.000172801
2.96389e-06
-0.000575387
0.000192269
1.42773e-05
-0.000502967
0.000181117
0.00017066
0.000161786
-1.27343e-05
-0.000114002
0.000178099
3.12943e-06
-0.000603827
0.000197911
1.43876e-05
-0.000522962
0.000186417
0.000183289
0.000166861
-1.28077e-05
-0.000115338
0.00018345
3.30226e-06
-0.000632231
0.000203618
1.44868e-05
-0.000542578
0.000191759
0.00019655
0.000171998
-1.28574e-05
-0.000116442
0.000188861
3.48309e-06
-0.000660593
0.000209398
1.45754e-05
-0.000561758
0.000197149
0.000210464
0.000177203
-1.28089e-05
-0.000117344
0.000194335
3.74821e-06
-0.000688919
0.000215313
1.46539e-05
-0.00058037
0.00020259
0.000225057
0.000182481
-1.24992e-05
-0.000118227
0.000199879
4.19711e-06
-0.000717154
0.000221485
1.47224e-05
-0.000598181
0.000208089
0.000240351
0.000187836
-1.18877e-05
-0.000119304
0.000205496
4.82232e-06
-0.000745222
0.000228026
1.47808e-05
-0.00061498
0.000213651
0.000256362
0.000193272
-1.1287e-05
-0.000120492
0.000211195
5.47113e-06
-0.000773199
0.000234739
1.48293e-05
-0.000630723
0.000219285
0.000273093
0.000198795
-1.11223e-05
-0.000121309
0.000216986
5.88543e-06
-0.00080127
0.000241149
1.48686e-05
-0.000645657
0.000225001
0.000290534
0.000204412
-1.12163e-05
-0.000121482
0.000222877
6.08738e-06
-0.000829441
0.000247293
1.49001e-05
-0.00066002
0.000230809
0.000308659
0.000210128
-1.12276e-05
-0.000121101
0.000228874
6.27111e-06
-0.000857612
0.000253468
1.49251e-05
-0.00067386
0.000236712
0.000327437
0.000215947
-1.10768e-05
-0.000120354
0.000234984
6.53978e-06
-0.000885729
0.000259786
1.49451e-05
-0.000687123
0.000242717
0.000346831
0.000221874
-1.0857e-05
-0.000119356
0.000241214
6.85552e-06
-0.000913772
0.000266189
1.49625e-05
-0.000699786
0.000248822
0.000366803
0.000227913
-1.0627e-05
-0.000118168
0.000247572
7.16752e-06
-0.000941726
0.00027264
1.4981e-05
-0.000711876
0.000255025
0.000387306
0.000234069
-1.03907e-05
-0.000116848
0.000254066
7.43234e-06
-0.00096954
0.000279138
1.49747e-05
-0.000723427
0.000261458
0.000408265
0.000240346
-1.01477e-05
-0.000115451
0.0002607
7.62137e-06
-0.000997136
0.000285684
1.48532e-05
-0.000734341
0.000268437
0.000429502
0.000246751
-9.8953e-06
-0.000114016
0.000267508
7.76095e-06
-0.00102447
0.000292282
1.45277e-05
-0.00074435
0.000276258
0.000450739
0.000253291
-9.59135e-06
-0.000112596
0.000274614
7.83043e-06
-0.00105143
0.000298936
1.41021e-05
-0.00075343
0.000284687
0.000471788
0.000259971
-9.16056e-06
-0.000111349
0.000282133
7.83614e-06
-0.00107784
0.000305649
1.40031e-05
-0.000762037
0.000292348
0.000492945
0.0002668
-8.68957e-06
-0.000110318
0.000289973
7.91566e-06
-0.00110376
0.000312426
1.41787e-05
-0.000770161
0.000299078
0.000514393
0.000273786
-8.42353e-06
-0.000109175
0.000297701
8.08932e-06
-0.00112952
0.000319272
1.43377e-05
-0.000777424
0.000305679
0.000535883
0.000280939
-8.26451e-06
-0.000107775
0.000305233
8.25002e-06
-0.0011552
0.000326192
1.4401e-05
-0.000783601
0.000312524
0.000557241
0.000288267
-8.03144e-06
-0.000106247
0.000312877
8.35951e-06
-0.00118068
0.000333191
1.44408e-05
-0.000788701
0.000319511
0.000578458
0.000295782
-7.74317e-06
-0.000104625
0.00032074
8.43906e-06
-0.00120585
0.000340272
1.45071e-05
-0.000792819
0.000326511
0.0005995
0.000303492
-7.45223e-06
-0.000102846
0.000328748
8.49118e-06
-0.00123069
0.000347441
1.4616e-05
-0.000796049
0.000333504
0.000620314
0.000311406
-7.16808e-06
-0.000100815
0.00033688
8.51278e-06
-0.00125512
0.000354699
1.47871e-05
-0.00079847
0.000340487
0.000640848
0.000319528
-6.89292e-06
-9.86224e-05
0.000345145
8.50121e-06
-0.00127908
0.000362049
1.4819e-05
-0.000799939
0.000347459
0.000661061
0.00032802
-6.63314e-06
-9.68164e-05
0.000353538
8.45456e-06
-0.00130246
0.00036949
1.43111e-05
-0.000799905
0.000354417
0.000681018
0.000337288
-6.37012e-06
-9.59418e-05
0.000362193
8.37111e-06
-0.00132512
0.000377021
1.3234e-05
-0.00079779
0.000361358
0.000700688
0.000347839
-5.92381e-06
-9.6042e-05
0.000371543
8.24911e-06
-0.00134678
0.000384639
1.2085e-05
-0.000793512
0.000368275
0.000719847
0.000359407
-5.05023e-06
-9.62428e-05
0.000382004
8.08535e-06
-0.00136696
0.000392339
1.20967e-05
-0.000788218
0.000375163
0.000738574
0.000369741
-4.03558e-06
-9.59196e-05
0.000393317
7.87537e-06
-0.00138548
0.000400116
1.28087e-05
-0.000782592
0.000382015
0.000756917
0.000379024
-3.87037e-06
-9.37526e-05
0.000403635
7.61382e-06
-0.00140313
0.000407961
1.33885e-05
-0.000776487
0.000388819
0.000774366
0.000388396
-4.15267e-06
-8.9388e-05
0.000412805
7.29467e-06
-0.00142024
0.000415865
1.36409e-05
-0.000769553
0.000395564
0.000790954
0.000398208
-4.22e-06
-8.32565e-05
0.000421968
6.9138e-06
-0.00143644
0.000423818
1.37797e-05
-0.00076166
0.000402233
0.000807096
0.000408261
-4.11096e-06
-7.53691e-05
0.000431537
6.46788e-06
-0.00145136
0.000431806
1.39745e-05
-0.000752846
0.000408812
0.000822952
0.000418422
-4.02925e-06
-6.55325e-05
0.000441273
5.95261e-06
-0.00146477
0.000439814
1.4236e-05
-0.000743181
0.000415318
0.000838557
0.000428678
-4.01495e-06
-5.36448e-05
0.000451052
5.36625e-06
-0.00147637
0.000447827
1.45541e-05
-0.000732775
0.000421818
0.000853972
0.000439031
-4.07142e-06
-3.94314e-05
0.000460888
4.70886e-06
-0.0014857
0.000455827
1.49163e-05
-0.000721764
0.000428392
0.000869109
0.000449474
-4.1957e-06
-2.27981e-05
0.000470787
3.9848e-06
-0.00149227
0.000463794
1.5315e-05
-0.000710301
0.000435091
0.00088409
0.000460002
-4.37436e-06
-3.65372e-06
0.000480763
3.21469e-06
-0.00149568
0.000471704
1.57457e-05
-0.000698532
0.000441923
0.000899021
0.000470605
-4.5827e-06
1.8058e-05
0.000490829
2.44186e-06
-0.00149584
0.000479534
1.62016e-05
-0.000686571
0.000448877
0.000913997
0.000481273
-4.78854e-06
4.23581e-05
0.000501003
1.75274e-06
-0.00149296
0.000487266
1.66718e-05
-0.000674451
0.000455941
0.000929094
0.000491998
-4.95923e-06
6.92084e-05
0.000511305
1.02654e-06
-0.00148703
0.00049489
1.71391e-05
-0.000662323
0.000463109
0.000944356
0.000502772
-5.06583e-06
9.85067e-05
0.000521754
3.12206e-07
-0.00147802
0.000502401
1.75797e-05
-0.000650288
0.000470384
0.00095979
0.000513593
-5.08378e-06
0.000130082
0.000532372
-3.13902e-07
-0.00146603
0.000509798
1.79634e-05
-0.000638364
0.000477777
0.00097535
0.000524459
-4.99782e-06
0.000163688
0.000543182
-8.38765e-07
-0.00145132
0.000517079
1.82523e-05
-0.000626549
0.000485308
0.000990928
0.000535367
-4.60286e-06
0.000198802
0.000554214
-1.06333e-06
-0.00143427
0.000524382
1.8395e-05
-0.000614634
0.000493009
0.00100636
0.000546308
-3.55458e-06
0.000234471
0.000565488
-6.65852e-07
-0.00141539
0.000532008
1.83384e-05
-0.000602078
0.00050091
0.00102143
0.000557257
-2.29974e-06
0.000576904
0.00027023
-2.55489e-07
0.000539487
-0.00139515
1.81344e-05
0.000508937
-0.000589028
0.000568089
0.00103595
1.69646e-06
-1.81289e-06
2.94688e-06
-1.90786e-06
6.02558e-06
2.72202e-06
1.82644e-06
-2.03741e-06
2.95748e-06
5.89226e-06
1.91843e-06
1.59163e-06
-3.59286e-06
9.58221e-06
-3.05547e-06
1.39923e-05
9.95503e-06
3.29499e-06
-5.76897e-06
9.60379e-06
1.44574e-05
7.49525e-06
5.52522e-07
-4.78148e-06
1.6641e-05
-3.6627e-06
2.131e-05
1.77664e-05
4.33199e-06
-1.12476e-05
1.66379e-05
2.32974e-05
1.36391e-05
-4.46969e-07
-5.22224e-06
2.36705e-05
-4.29952e-06
2.81307e-05
2.55582e-05
5.32936e-06
-1.83579e-05
2.36492e-05
3.24504e-05
1.97728e-05
-1.34527e-06
-4.68371e-06
3.06013e-05
-4.89219e-06
3.46612e-05
3.32786e-05
6.21503e-06
-2.66915e-05
3.05785e-05
4.20334e-05
2.58539e-05
-2.17287e-06
-3.14308e-06
3.75085e-05
-5.44676e-06
4.09533e-05
4.09676e-05
6.98319e-06
-3.60377e-05
3.74853e-05
5.20126e-05
3.19384e-05
-2.93981e-06
-6.64453e-07
4.44024e-05
-5.963e-06
4.70041e-05
4.86148e-05
7.62541e-06
-4.62539e-05
4.43732e-05
6.22944e-05
3.80326e-05
-3.64394e-06
2.64877e-06
5.12675e-05
-6.43846e-06
5.27944e-05
5.61938e-05
8.22062e-06
-5.73031e-05
5.12258e-05
7.28411e-05
4.4124e-05
-4.29234e-06
6.68681e-06
5.80793e-05
-6.87033e-06
5.82884e-05
6.36737e-05
8.75042e-06
-6.91394e-05
5.80205e-05
8.35788e-05
5.01935e-05
-4.8885e-06
1.13374e-05
6.48121e-05
-7.24486e-06
6.34311e-05
7.10245e-05
9.20684e-06
-8.17003e-05
6.47338e-05
9.44129e-05
5.62205e-05
-5.43189e-06
1.64858e-05
7.1445e-05
-7.53384e-06
6.8146e-05
7.82223e-05
9.58792e-06
-9.48919e-05
7.13457e-05
0.000105242
6.2186e-05
-5.92009e-06
2.20218e-05
7.7962e-05
-7.80354e-06
7.244e-05
8.52522e-05
9.89614e-06
-0.000108678
7.78408e-05
0.000115972
6.80745e-05
-6.34998e-06
2.78397e-05
8.43587e-05
-8.05578e-06
7.63342e-05
9.21227e-05
1.01375e-05
-0.000123011
8.42133e-05
0.000126532
7.38746e-05
-6.72444e-06
3.38373e-05
9.06511e-05
-8.2921e-06
7.98479e-05
9.88576e-05
1.03192e-05
-0.000137845
9.04783e-05
0.000136878
7.95851e-05
-7.05217e-06
3.99147e-05
9.68542e-05
-8.50875e-06
8.29851e-05
0.000105473
1.04465e-05
-0.000153145
9.66515e-05
0.000146971
8.52191e-05
-7.34081e-06
4.59732e-05
0.000102974
-8.70365e-06
8.57391e-05
0.000111977
1.0523e-05
-0.000168877
0.000102739
0.000156769
9.07886e-05
-7.59523e-06
5.19152e-05
0.000109017
-8.8777e-06
8.81012e-05
0.000118377
1.05537e-05
-0.000185013
0.000108745
0.000166229
9.62979e-05
-7.81935e-06
5.76469e-05
0.000114986
-9.0316e-06
9.00604e-05
0.000124679
1.05441e-05
-0.00020153
0.000114675
0.000175316
0.00010175
-8.01684e-06
6.30851e-05
0.000120885
-9.16595e-06
9.16033e-05
0.000130891
1.04994e-05
-0.000218416
0.000120534
0.000184006
0.000107147
-8.19118e-06
6.81668e-05
0.00012671
-9.28122e-06
9.27134e-05
0.000137019
1.04242e-05
-0.000235661
0.000126329
0.000192286
0.000112492
-8.34575e-06
7.28542e-05
0.000132455
-9.37769e-06
9.33732e-05
0.000143073
1.03228e-05
-0.000253256
0.000132064
0.000200155
0.000117788
-8.48372e-06
7.71349e-05
0.000138114
-9.45533e-06
9.35663e-05
0.000149058
1.01992e-05
-0.000271178
0.000137737
0.000207626
0.000123036
-8.60718e-06
8.10118e-05
0.000143687
-9.514e-06
9.32836e-05
0.000154984
1.0057e-05
-0.00028938
0.000143342
0.000214725
0.000128235
-8.71553e-06
8.44852e-05
0.000149191
-9.55401e-06
9.25293e-05
0.000160859
9.89933e-06
-0.000307801
0.000148876
0.000221492
0.000133383
-8.80494e-06
8.75458e-05
0.000154653
-9.57868e-06
9.13309e-05
0.000166688
9.73026e-06
-0.00032637
0.000154341
0.000227984
0.000138483
-8.87032e-06
9.0176e-05
0.000160092
-9.59105e-06
8.97386e-05
0.00017248
9.55328e-06
-0.000345019
0.000159754
0.000234267
0.000143544
-8.91114e-06
9.23522e-05
0.00016553
-9.58809e-06
8.78044e-05
0.000178247
9.36927e-06
-0.000363684
0.000165141
0.000240405
0.000148588
-8.93185e-06
9.40484e-05
0.000170981
-9.5654e-06
8.5557e-05
0.000184017
9.17705e-06
-0.000382309
0.000170523
0.000246451
0.000153633
-8.93539e-06
9.52371e-05
0.000176454
-9.5212e-06
8.29677e-05
0.000189851
8.97578e-06
-0.000400847
0.000175915
0.000252446
0.000158697
-8.92218e-06
9.58887e-05
0.000181959
-9.45437e-06
7.99123e-05
0.000195852
8.76632e-06
-0.000419257
0.000181328
0.000258424
0.000163793
-8.8925e-06
9.59694e-05
0.000187507
-9.36389e-06
7.61861e-05
0.000202106
8.54994e-06
-0.000437502
0.000186773
0.000264414
0.000168931
-8.84683e-06
9.54669e-05
0.000193082
-9.24891e-06
7.16114e-05
0.000208593
8.3276e-06
-0.000455525
0.000192234
0.000270451
0.000174112
-8.78576e-06
9.44393e-05
0.000198621
-9.10883e-06
6.61808e-05
0.000215153
8.10039e-06
-0.000473215
0.00019766
0.000276608
0.000179307
-8.70991e-06
9.29291e-05
0.000204144
-8.94327e-06
6.01295e-05
0.000221601
7.86957e-06
-0.000490497
0.000203093
0.000282949
0.000184529
-8.61974e-06
9.07338e-05
0.000209901
-8.75174e-06
5.38437e-05
0.000227909
7.63665e-06
-0.000507499
0.000208739
0.000289402
0.00018992
-8.51616e-06
8.72499e-05
0.000216298
-8.53427e-06
4.77411e-05
0.000234156
7.40386e-06
-0.00052462
0.000214872
0.000295691
0.000195692
-8.4023e-06
8.19621e-05
0.000223255
-8.2932e-06
4.19575e-05
0.000240425
7.17437e-06
-0.000542145
0.000221383
0.000301589
0.000201809
-8.28256e-06
7.50909e-05
0.00023005
-8.03275e-06
3.61161e-05
0.000246757
6.93657e-06
-0.000559836
0.000227766
0.000307235
0.000207899
-8.15966e-06
6.70461e-05
0.000236505
-7.75669e-06
2.98831e-05
0.000253142
6.6832e-06
-0.000577328
0.000233906
0.000312912
0.000213816
-8.03523e-06
5.81556e-05
0.000242755
-7.47011e-06
2.32434e-05
0.000259565
6.43166e-06
-0.000594385
0.000239914
0.000318785
0.000219655
-7.91096e-06
4.85242e-05
0.000248994
-7.18095e-06
1.63067e-05
0.000266018
6.18264e-06
-0.000610916
0.000245933
0.000324947
0.000225532
-7.7884e-06
3.8157e-05
0.000255332
-6.84054e-06
9.07675e-06
0.0002725
5.93656e-06
-0.000626857
0.000252038
0.000331443
0.000231495
-7.66875e-06
2.70739e-05
0.000261765
-6.47888e-06
1.54896e-06
0.000279011
5.69326e-06
-0.000642176
0.000258225
0.000338323
0.000237545
-7.55314e-06
1.53018e-05
0.000268294
-6.10634e-06
-6.26991e-06
0.000285545
5.45218e-06
-0.000656718
0.000264497
0.000345637
0.000243686
-7.44299e-06
2.86998e-06
0.000274926
-5.72595e-06
-1.43662e-05
0.000292102
5.21225e-06
-0.000670024
0.000270863
0.000353432
0.000249922
-7.33984e-06
-1.01613e-05
0.000281664
-5.34097e-06
-2.27194e-05
0.000298678
4.97184e-06
-0.000681328
0.00027731
0.000361751
0.000256262
-7.24482e-06
-2.35843e-05
0.000288512
-4.95339e-06
-3.13013e-05
0.000305271
4.73035e-06
-0.000689975
0.000283714
0.000370613
0.000262713
-7.15848e-06
-3.7069e-05
0.000295474
-4.56358e-06
-4.0076e-05
0.000311876
4.48885e-06
-0.000696572
0.000289957
0.000380028
0.000269282
-7.08135e-06
-5.04205e-05
0.00030255
-4.17364e-06
-4.89993e-05
0.000318492
4.24671e-06
-0.000702213
0.000296363
0.000390046
0.000275977
-7.01409e-06
-6.38627e-05
0.000309738
-3.78632e-06
-5.80198e-05
0.000325117
4.00224e-06
-0.000708111
0.000303854
0.000400707
0.000282805
-6.95649e-06
-7.76975e-05
0.000317035
-3.40281e-06
-6.70806e-05
0.000331754
3.75515e-06
-0.000715328
0.000312649
0.00041205
0.000289775
-6.90779e-06
-9.19149e-05
0.000324443
-3.0244e-06
-7.61201e-05
0.000338404
3.5064e-06
-0.000723321
0.000321038
0.000424112
0.000296893
-6.86707e-06
-0.000106396
0.000331962
-2.60721e-06
-8.51171e-05
0.000345068
3.25711e-06
-0.000731277
0.000328668
0.000436929
0.000304165
-6.83315e-06
-0.000121091
0.000339591
-2.20652e-06
-9.39912e-05
0.000351749
3.00821e-06
-0.000738666
0.000335742
0.000450535
0.000311601
-6.80468e-06
-0.000135972
0.000347333
-1.83098e-06
-0.00010265
0.000358446
2.76058e-06
-0.000745342
0.000342637
0.000464955
0.000319208
-6.78042e-06
-0.000151003
0.000355191
-1.48058e-06
-0.000110996
0.000365159
2.4828e-06
-0.000751347
0.000349564
0.000480332
0.000326998
-6.75911e-06
-0.000166153
0.000363166
-1.15591e-06
-0.000118932
0.000371887
2.20919e-06
-0.000756723
0.00035649
0.000497238
0.00033498
-6.73929e-06
-0.000181265
0.000371267
-8.57905e-07
-0.000126354
0.000378627
1.94025e-06
-0.000761501
0.000363398
0.000516737
0.000343165
-6.71906e-06
-0.000195754
0.000379505
-5.87502e-07
-0.000133157
0.000385376
1.68284e-06
-0.000765715
0.000370277
0.00053963
0.000351553
-6.69666e-06
-0.000208628
0.000387906
-3.45487e-07
-0.000139235
0.000392133
1.45498e-06
-0.000769418
0.000377122
0.000564479
0.000360125