/*--------------------------------*- C++ -*----------------------------------*\
| =========                 |                                                 |
| \\      /  F ield         | OpenFOAM: The Open Source CFD Toolbox           |
|  \\    /   O peration     | Version:  v1906                                 |
|   \\  /    A nd           | Web:      www.OpenFOAM.com                      |
|    \\/     M anipulation  |                                                 |
\*---------------------------------------------------------------------------*/
FoamFile
{
    version     2.0;
    format      ascii;
    class       volScalarField;
    location    "100";
    object      alphat;
}
// * * * * * * * * * * * * * * * * * * * * * * * * * * * * * * * * * * * * * //

dimensions      [1 -1 -1 0 0 0 0];


internalField   nonuniform List<scalar> 
634
(
0.00905134
0.0111805
0.0151313
0.0109985
0.00899389
0.0111627
0.0152235
0.0110215
0.00890549
0.0111297
0.0152547
0.0110373
0.00879235
0.0110808
0.0152252
0.0110481
0.00865382
0.0110156
0.0151464
0.00892455
0.00848889
0.0109336
0.0150218
0.00555368
0.0082992
0.0108353
0.0148744
0.00608243
0.00809034
0.0107227
0.0147043
0.0110244
0.00786852
0.0105999
0.0145134
0.0110205
0.00763757
0.0104805
0.0143057
0.010986
0.00740125
0.0103772
0.0140827
0.0109243
0.00716308
0.0102883
0.0138432
0.0108389
0.00692618
0.0102109
0.0135831
0.0107506
0.00669341
0.010138
0.0132974
0.0106568
0.00646732
0.0100681
0.0129844
0.0105546
0.0062504
0.00726448
0.0126493
0.0104415
0.00604691
0.00514467
0.0122972
0.0103149
0.00585885
0.00651479
0.0119324
0.0101728
0.00568711
0.00976255
0.0115584
0.0100145
0.00553238
0.00972386
0.0111783
0.00983957
0.00539422
0.00966824
0.0107945
0.00964821
0.0052716
0.0095921
0.0104092
0.00944174
0.00516281
0.00949854
0.0100244
0.00922236
0.00506697
0.00938663
0.00964157
0.00899225
0.00498353
0.00925736
0.00926228
0.00875355
0.00491145
0.00911121
0.00888781
0.00850829
0.00436864
0.00894977
0.00851928
0.00825841
0.00384622
0.00877441
0.00815772
0.00800566
0.00465587
0.00858652
0.00780277
0.00775155
0.00457558
0.00838764
0.00745445
0.00749732
0.00449297
0.00817928
0.00711256
0.00724404
0.00440421
0.00796295
0.00622347
0.00699275
0.00430988
0.00774009
0.00497541
0.0067446
0.00421071
0.00751211
0.00439053
0.00650066
0.00411572
0.00728024
0.0046541
0.00626071
0.00402415
0.00704548
0.00533841
0.00602456
0.00393518
0.00680903
0.00505283
0.00579304
0.00384812
0.00657229
0.00476102
0.00556686
0.00376573
0.00633658
0.0044683
0.00534569
0.00369278
0.00610053
0.00418007
0.00512517
0.00362986
0.00586008
0.00390013
0.00490603
0.00357467
0.00561531
0.00357
0.00468916
0.00352466
0.00536783
0.0031956
0.00447541
0.00347713
0.00511923
0.00285459
0.00411582
0.0034294
0.00487094
0.00263011
0.00339765
0.00331021
0.00462422
0.00250425
0.00286921
0.00296613
0.00438016
0.00238642
0.0027664
0.00270575
0.00406106
0.00221632
0.00300366
0.00260936
0.00357504
0.00197963
0.00323165
0.00264176
0.0030737
0.00175276
0.00309457
0.0027031
0.00273595
0.001559
0.00292291
0.00269401
0.00261861
0.00139722
0.00271838
0.00258642
0.0026295
0.00125711
0.00249907
0.00242258
0.00261887
0.00112965
0.00227477
0.00225335
0.00249134
0.00101015
0.00204827
0.00210027
0.00226514
0.000897177
0.00183991
0.00195616
0.00201843
0.000790519
0.00165938
0.00181558
0.00180101
0.000690051
0.00149811
0.0016768
0.00161611
0.000595417
0.00134764
0.00153827
0.00145111
0.000505552
0.00120329
0.00139987
0.00129564
0.000409841
0.00106343
0.00126198
0.00114531
0.000323179
0.000928061
0.00112509
0.000999586
0.000246788
0.000797689
0.000989784
0.000859156
0.00018164
0.000672957
0.00085689
0.000724859
0.00012824
0.00055394
0.000727479
0.000596694
8.644e-05
0.000433934
0.000602846
0.000466469
5.53754e-05
0.000313696
0.000483876
0.000337037
3.35619e-05
0.000211345
0.000363637
0.000227113
1.91456e-05
0.000130776
0.000245569
0.000140681
1.02104e-05
7.33017e-05
0.000149925
7.90172e-05
5.04198e-06
3.67887e-05
8.08574e-05
3.97826e-05
2.27237e-06
1.63604e-05
3.76998e-05
1.77655e-05
9.13853e-07
6.35399e-06
1.49049e-05
6.93462e-06
3.16373e-07
2.09611e-06
4.87891e-06
2.3011e-06
8.8847e-08
5.56602e-07
1.26384e-06
6.15054e-07
1.82425e-08
1.07422e-07
2.35768e-07
1.19539e-07
2.28541e-09
1.24225e-08
2.62117e-08
1.39023e-08
1.98218e-10
7.91041e-10
1.56491e-09
8.57699e-10
1.16636e-10
3.27025e-10
6.12813e-10
3.27651e-10
0.00280458
0.00590952
0.00925662
0.00587798
0.00310648
0.00559556
0.00952256
0.00590238
0.0034363
0.00531853
0.00975587
0.005954
0.00378173
0.00509247
0.00995267
0.006031
0.0041342
0.00492971
0.0101111
0.006122
0.0044867
0.00483974
0.0102378
0.00621169
0.00483501
0.00482942
0.0103403
0.00629352
0.00517476
0.00489782
0.0104183
0.00636405
0.00550078
0.00503093
0.0104719
0.00642154
0.0058079
0.00521028
0.0105012
0.00646555
0.00609264
0.00541913
0.010507
0.00649897
0.00635417
0.00564281
0.0104903
0.00652514
0.00658957
0.00587275
0.0104526
0.0065476
0.00679647
0.00610673
0.0103954
0.00656999
0.00697432
0.00634036
0.0103186
0.00659589
0.00712312
0.0065644
0.0100253
0.00662842
0.00724301
0.00677314
0.00786392
0.00666937
0.00733428
0.00696246
0.00597663
0.00671682
0.00739742
0.00712934
0.00548867
0.00676617
0.00743317
0.00727157
0.00651625
0.00681424
0.0074425
0.00738782
0.00857354
0.00685951
0.00742671
0.00747746
0.00950609
0.00690104
0.00738734
0.00754059
0.00934639
0.00693471
0.00732619
0.00757783
0.00917768
0.00695711
0.00724518
0.00759023
0.00893047
0.00696578
0.00707126
0.00757926
0.00832275
0.00695881
0.00689359
0.00754664
0.00774135
0.00693485
0.00677838
0.00749429
0.007467
0.00689312
0.00673098
0.00742443
0.00757626
0.00683324
0.00662799
0.00733975
0.00786635
0.00675523
0.00647793
0.00724203
0.00806332
0.00665937
0.0063191
0.00713116
0.00807276
0.00654557
0.00615206
0.00700663
0.00795886
0.00641096
0.00597742
0.00686824
0.0078099
0.00625752
0.00579487
0.00671322
0.00763408
0.00608715
0.00560514
0.00654205
0.00743872
0.0059016
0.00541027
0.00635585
0.00722622
0.00570247
0.00520785
0.00615634
0.00699859
0.00549132
0.0049938
0.00594509
0.00675787
0.00526977
0.00477043
0.00572427
0.00650363
0.00503968
0.00453976
0.00549584
0.00623886
0.00480295
0.00430376
0.00526161
0.00596675
0.00456138
0.00406432
0.00502326
0.00568941
0.00431667
0.00382328
0.00478237
0.00540875
0.00407042
0.00358232
0.0045404
0.00512616
0.00382415
0.003343
0.00429874
0.00484293
0.00357925
0.00310668
0.00405856
0.00455447
0.00333704
0.00287461
0.0038207
0.00425952
0.0030988
0.00264788
0.0035857
0.00395421
0.00286572
0.00242745
0.00335285
0.0036403
0.00263879
0.00221412
0.00309196
0.00333265
0.00241399
0.00200856
0.00282143
0.00304211
0.00216784
0.00180057
0.0025541
0.00276934
0.00192422
0.00159493
0.00230304
0.00251069
0.00169738
0.00140121
0.00207295
0.00226666
0.00149386
0.00122316
0.00186021
0.00203626
0.00131094
0.00106124
0.00166103
0.00181869
0.00114488
0.000914225
0.00147329
0.00161347
0.000993082
0.000780893
0.00129624
0.00142028
0.000854136
0.000660201
0.00112975
0.00123889
0.000727256
0.000551198
0.00097388
0.00106919
0.000611845
0.000452566
0.000828696
0.000911153
0.000507187
0.000354752
0.000694251
0.000764787
0.000410852
0.000268176
0.000570162
0.000629817
0.000314997
0.000194629
0.000451589
0.00050385
0.00023221
0.000134642
0.0003354
0.000377001
0.000163398
8.81246e-05
0.000235927
0.000267463
0.000108895
5.41722e-05
0.000155381
0.000177748
6.81868e-05
3.10572e-05
9.46589e-05
0.000109169
3.98036e-05
1.64896e-05
5.27203e-05
6.10878e-05
2.14907e-05
8.03844e-06
2.65502e-05
3.06972e-05
1.06346e-05
3.55267e-06
1.19466e-05
1.36388e-05
4.76215e-06
1.39489e-06
4.72053e-06
5.25376e-06
1.89141e-06
4.705e-07
1.58959e-06
1.70275e-06
6.4459e-07
1.28876e-07
4.32274e-07
4.42088e-07
1.78238e-07
2.60926e-08
8.61653e-08
8.43766e-08
3.63691e-08
3.53224e-09
1.08146e-08
1.03391e-08
4.89092e-09
6.73794e-10
1.26962e-09
1.27397e-09
8.51264e-10
5.76367e-10
8.86403e-10
1.02029e-09
7.05246e-10
)
;

boundaryField
{
    leftWall
    {
        type            compressible::alphatWallFunction;
        Prt             0.85;
        value           nonuniform 0();
    }
    rightWall
    {
        type            compressible::alphatWallFunction;
        Prt             0.85;
        value           uniform 0;
    }
    leftSides_periodic0
    {
        type            cyclic;
    }
    leftSides_periodic1
    {
        type            cyclic;
    }
    rightSides_periodic0
    {
        type            cyclic;
    }
    rightSides_periodic1
    {
        type            cyclic;
    }
    leftInOut_periodic0
    {
        type            cyclic;
    }
    leftInOut_periodic1
    {
        type            cyclic;
    }
    rightInOut_periodic0
    {
        type            cyclic;
    }
    rightInOut_periodic1
    {
        type            cyclic;
    }
    procBoundary1to0
    {
        type            processor;
        value           nonuniform List<scalar> 
11
(
0.00907779
0.0111841
0.0149865
0.0109763
0.0109763
0.00897296
0.00588009
0.00255193
0.0062424
0.00897296
0.00588009
)
;
    }
    procBoundary1to0throughleftInOut_periodic0
    {
        type            processorCyclic;
        value           uniform 0.0149865;
    }
    procBoundary1to2throughleftSides_periodic0
    {
        type            processorCyclic;
        value           nonuniform List<scalar> 2(0.0122168 0.00323216);
    }
    procBoundary1to2throughrightSides_periodic0
    {
        type            processorCyclic;
        value           nonuniform List<scalar> 2(0.00387344 0.00595902);
    }
    procBoundary1to3
    {
        type            processor;
        value           nonuniform List<scalar> 
316
(
0.0139728
0.00976362
0.00641653
0.00947886
0.01391
0.00977366
0.00634186
0.00947102
0.0138209
0.00977888
0.00623987
0.00426591
0.0137118
0.00977484
0.00611312
0.00380815
0.0135886
0.00975978
0.00597087
0.00596819
0.0134568
0.00973296
0.00581467
0.0104779
0.0133206
0.00969456
0.00564723
0.0108157
0.0131864
0.00964537
0.00547096
0.010939
0.0126721
0.00958637
0.00528826
0.0110243
0.00716734
0.00952008
0.00510149
0.0110746
0.0053459
0.00945322
0.00491156
0.0110883
0.00605112
0.00745783
0.00471922
0.0110709
0.00896377
0.00392691
0.00452697
0.0110251
0.0122144
0.00365191
0.00433753
0.010953
0.0126257
0.00550718
0.00415325
0.0108564
0.0124973
0.00888768
0.00397561
0.0107361
0.0123473
0.00977242
0.00380656
0.0106099
0.0121749
0.00978906
0.00365545
0.010496
0.0119813
0.00976202
0.00353787
0.00938069
0.0117647
0.00969169
0.00345481
0.00538342
0.0115257
0.00958173
0.00339923
0.0045745
0.0112662
0.00943936
0.00336844
0.00585035
0.0109893
0.00927814
0.00335361
0.00846073
0.0106993
0.00910056
0.00335558
0.010294
0.0103933
0.0089091
0.00337482
0.0102676
0.00850593
0.00870626
0.00341246
0.0102137
0.00608189
0.00849685
0.00208279
0.0101314
0.00503777
0.00819721
0.00164076
0.0100203
0.00538477
0.0056677
0.00185994
0.00988183
0.00675727
0.00503361
0.00266317
0.00971738
0.0080818
0.00594372
0.00374199
0.00952847
0.00848206
0.00724759
0.00400094
0.00931658
0.00824922
0.00724942
0.00403624
0.00908763
0.00799602
0.00705872
0.004052
0.00884405
0.0077244
0.00685948
0.00405067
0.00858827
0.00743689
0.00665267
0.00403427
0.00832261
0.00713618
0.0064395
0.00400305
0.00804919
0.00682823
0.00622042
0.0039062
0.00776994
0.00651778
0.00599644
0.0038289
0.00748637
0.00620531
0.00576952
0.00376046
0.00719982
0.00589347
0.0055412
0.00369159
0.00691147
0.0055845
0.00531255
0.00361816
0.00662221
0.00527963
0.00508428
0.0035394
0.00633273
0.00497932
0.00485676
0.00345614
0.00604367
0.00468363
0.00463013
0.00336815
0.00575552
0.0043925
0.00440454
0.00327351
0.00546848
0.00410578
0.00417989
0.00317207
0.00518268
0.00382335
0.00395603
0.00306589
0.00489818
0.00354515
0.00373282
0.00295576
0.00461509
0.00327119
0.00351031
0.00283866
0.0043335
0.00300132
0.00328867
0.00270883
0.00405366
0.00273461
0.00306812
0.00256236
0.00377605
0.00247162
0.00284901
0.00240007
0.00349857
0.00221376
0.00263173
0.00222961
0.00322081
0.00196254
0.00241682
0.00206016
0.00294428
0.00171958
0.00220396
0.00189566
0.0026706
0.00148667
0.00199247
0.00173654
0.0024014
0.00126572
0.00178386
0.00158194
0.00213814
0.00105879
0.00157967
0.0014311
0.00188251
0.000867865
0.00138084
0.00128385
0.00163639
0.000694836
0.00118527
0.00114044
0.00140155
0.000541369
0.0010029
0.00100139
0.0011797
0.000408753
0.000835357
0.000867348
0.000972482
0.000297698
0.00067549
0.000739101
0.000781544
0.000208118
0.000528339
0.000617572
0.000608323
0.000138959
0.000396324
0.00050379
0.000454645
8.8176e-05
0.000282062
0.000398043
0.000322885
5.29071e-05
0.000188065
0.000288364
0.000215203
2.98576e-05
0.000115814
0.000192852
0.000132707
1.57424e-05
6.49163e-05
0.00011741
7.45959e-05
7.68251e-06
3.26667e-05
6.38383e-05
3.76798e-05
3.42142e-06
1.45622e-05
3.04711e-05
1.68704e-05
1.36018e-06
5.65528e-06
1.25705e-05
6.58381e-06
4.66007e-07
1.86033e-06
4.38531e-06
2.178e-06
1.29865e-07
4.92134e-07
1.23208e-06
5.79854e-07
2.67017e-08
9.51002e-08
2.50422e-07
1.12762e-07
3.55541e-09
1.14882e-08
3.0306e-08
1.36324e-08
5.38218e-10
1.24934e-09
2.55528e-09
1.39771e-09
4.19209e-10
8.44086e-10
1.25305e-09
9.03996e-10
)
;
    }
    procBoundary1to3throughrightSides_periodic0
    {
        type            processorCyclic;
        value           nonuniform List<scalar> 
314
(
0.00340751
0.00291114
0.00238483
0.00183388
0.00127031
0.000715359
0.000250811
7.4989e-05
9.16227e-05
7.13798e-05
6.66706e-05
6.2122e-05
4.52036e-06
0.000179073
0.000453771
0.000758385
0.00105928
0.00134423
0.00161168
0.00186295
0.00209995
0.00232447
0.00253793
0.00274146
0.00293595
0.00312186
0.00329861
0.00346387
0.00361338
0.00372629
0.00367431
0.00360947
0.00358599
0.00360226
0.00363024
0.0036457
0.00364102
0.00361811
0.00357999
0.00352845
0.00346499
0.00339138
0.00330968
0.00322146
0.00312685
0.00302491
0.00291495
0.00279731
0.00267314
0.00254368
0.00240955
0.00226948
0.0021156
0.00196067
0.00180744
0.00165516
0.00150318
0.00135163
0.00120117
0.00105222
0.000898234
0.000728081
0.000568385
0.000424077
0.000299817
0.00019909
0.000123173
7.05287e-05
3.7174e-05
1.79269e-05
7.83033e-06
3.04022e-06
1.01457e-06
2.74394e-07
5.40879e-08
6.32389e-09
3.06885e-10
4.33279e-11
0.0056738
0.00539593
0.00513098
0.0048832
0.00465467
0.00444644
0.00425951
0.00409503
0.0039591
0.00386126
0.0038132
0.00381292
0.00387266
0.00399156
0.00415506
0.00434627
0.00455112
0.0047592
0.00496326
0.00515826
0.00533821
0.00549521
0.00563065
0.00574564
0.00584132
0.00591875
0.0059791
0.00602363
0.00605378
0.00552466
0.00489127
0.00461737
0.0047954
0.00523037
0.00559191
0.00568831
0.0055383
0.00525403
0.00495964
0.00472241
0.0045444
0.00439664
0.00424998
0.00409295
0.00393157
0.00377657
0.0036302
0.00348577
0.00333532
0.0031749
0.00300466
0.00282657
0.0026428
0.00245423
0.00225701
0.00206083
0.00186782
0.00167841
0.00149289
0.00131189
0.00113649
0.000967936
0.000804918
0.000630843
0.000472336
0.000334245
0.000220853
0.000134539
7.46674e-05
3.73538e-05
1.66607e-05
6.51897e-06
2.17244e-06
5.83568e-07
1.14022e-07
1.3336e-08
8.25581e-10
3.12844e-10
0.0124369
0.0126433
0.0128331
0.0130034
0.0131433
0.0132511
0.0133263
0.0133695
0.0133816
0.013364
0.0133188
0.0132488
0.0131572
0.0130462
0.0129177
0.0127733
0.0126145
0.0124429
0.0122606
0.0120703
0.0118744
0.011676
0.0114756
0.011272
0.0110641
0.0108509
0.010632
0.0104067
0.0101728
0.0099314
0.00968428
0.00943277
0.00917763
0.00886548
0.00831604
0.00779953
0.00737451
0.00702336
0.00671344
0.00642305
0.00614248
0.00586805
0.00559828
0.00533251
0.00507082
0.00481496
0.00456809
0.00433224
0.00410583
0.00388429
0.00366293
0.00343923
0.00321313
0.00298585
0.00275826
0.00252853
0.00229895
0.00207414
0.00185505
0.00164223
0.0014365
0.00123892
0.00105043
0.000864729
0.000677016
0.000507112
0.000359644
0.00023861
0.000146226
8.17651e-05
4.1258e-05
1.85713e-05
7.33365e-06
2.46615e-06
6.68351e-07
1.31756e-07
1.55992e-08
1.042e-09
4.51216e-10
0.00305162
0.0029229
0.00287011
0.00291466
0.0030585
0.00326694
0.00350072
0.00373156
0.00394476
0.00413548
0.0043022
0.00444539
0.00456672
0.00466822
0.00475259
0.00482316
0.00488514
0.00494357
0.00500238
0.00506525
0.0051353
0.00521095
0.00528981
0.00535793
0.00535827
0.0053671
0.00536679
0.00535503
0.00533243
0.00529995
0.00526215
0.00521473
0.00512695
0.00497066
0.00476442
0.00455878
0.00438998
0.00426012
0.00414944
0.00403758
0.00391509
0.00378244
0.00364369
0.00350189
0.00335813
0.00321218
0.00306341
0.00291181
0.00275891
0.0026073
0.00245767
0.00230435
0.00214461
0.00198539
0.00182724
0.0016703
0.00151506
0.00136216
0.00121227
0.00106605
0.000923683
0.000774409
0.00062333
0.000483842
0.000359595
0.000253858
0.000168834
0.000104967
6.05911e-05
3.22753e-05
1.57528e-05
6.96653e-06
2.7377e-06
9.24166e-07
2.52716e-07
5.03917e-08
6.01613e-09
3.70343e-10
1.31882e-10
)
;
    }
}


// ************************************************************************* //
