0 	0 	0 	0
5.01672e-05 	-2.17788e-05 	-4.44339e-06 	0.0203384
0.000100334 	-4.35575e-05 	-8.88678e-06 	0.0406767
0.000150502 	-6.53363e-05 	-1.33302e-05 	0.0610151
0.000200669 	-8.7115e-05 	-1.77736e-05 	0.0813535
0.000250836 	-0.000108894 	-2.22169e-05 	0.101692
0.000301003 	-0.000130673 	-2.66603e-05 	0.12203
0.000351171 	-0.000150469 	-3.18102e-05 	0.140262
0.000401338 	-0.000162771 	-3.96315e-05 	0.150528
0.000451505 	-0.000175072 	-4.74528e-05 	0.160795
0.000501672 	-0.000187373 	-5.52742e-05 	0.171061
0.000551839 	-0.000199675 	-6.30955e-05 	0.181327
0.000602007 	-0.000211976 	-7.09168e-05 	0.191593
0.000652174 	-0.000224278 	-7.87382e-05 	0.201859
0.000702341 	-0.000236579 	-8.65595e-05 	0.212126
0.000752508 	-0.000246152 	-9.46089e-05 	0.220961
0.000802676 	-0.000248959 	-0.000103224 	0.226247
0.000852843 	-0.000251766 	-0.000111839 	0.231533
0.00090301 	-0.000254573 	-0.000120454 	0.23682
0.000953177 	-0.00025738 	-0.000129069 	0.242106
0.00100334 	-0.000260187 	-0.000137684 	0.247393
0.00105351 	-0.000262994 	-0.000146299 	0.252679
0.00110368 	-0.000265801 	-0.000154914 	0.257965
0.00115385 	-0.000268608 	-0.000163529 	0.263252
0.00120401 	-0.000271218 	-0.000172103 	0.268433
0.00125418 	-0.000269784 	-0.000179841 	0.271446
0.00130435 	-0.00026835 	-0.000187579 	0.27446
0.00135452 	-0.000266916 	-0.000195317 	0.277474
0.00140468 	-0.000265482 	-0.000203055 	0.280488
0.00145485 	-0.000264048 	-0.000210793 	0.283501
0.00150502 	-0.000262614 	-0.000218531 	0.286515
0.00155518 	-0.00026118 	-0.000226269 	0.289529
0.00160535 	-0.000259746 	-0.000234007 	0.292543
0.00165552 	-0.000258312 	-0.000241745 	0.295556
0.00170569 	-0.000256878 	-0.000249483 	0.29857
0.00175585 	-0.000255191 	-0.000256822 	0.301295
0.00180602 	-0.000252809 	-0.000263065 	0.303225
0.00185619 	-0.000250427 	-0.000269308 	0.305156
0.00190635 	-0.000248045 	-0.000275551 	0.307086
0.00195652 	-0.000245663 	-0.000281794 	0.309016
0.00200669 	-0.000243281 	-0.000288037 	0.310946
0.00205686 	-0.000240899 	-0.00029428 	0.312877
0.00210702 	-0.000238517 	-0.000300523 	0.314807
0.00215719 	-0.000236135 	-0.000306766 	0.316737
0.00220736 	-0.000233753 	-0.000313009 	0.318668
0.00225753 	-0.000231371 	-0.000319252 	0.320598
0.00230769 	-0.000228989 	-0.000325495 	0.322528
0.00235786 	-0.000226607 	-0.000331738 	0.324459
0.00240803 	-0.00022446 	-0.000336829 	0.325956
0.00245819 	-0.000222418 	-0.000341406 	0.327261
0.00250836 	-0.000220376 	-0.000345984 	0.328566
0.00255853 	-0.000218334 	-0.000350561 	0.32987
0.0026087 	-0.000216292 	-0.000355139 	0.331175
0.00265886 	-0.000214251 	-0.000359716 	0.332479
0.00270903 	-0.000212209 	-0.000364294 	0.333784
0.0027592 	-0.000210167 	-0.000368871 	0.335089
0.00280936 	-0.000208125 	-0.000373449 	0.336393
0.00285953 	-0.000206083 	-0.000378027 	0.337698
0.0029097 	-0.000204041 	-0.000382604 	0.339003
0.00295987 	-0.000201999 	-0.000387182 	0.340307
0.00301003 	-0.000199957 	-0.000391759 	0.341612
0.0030602 	-0.000197916 	-0.000396337 	0.342916
0.00311037 	-0.000195888 	-0.000400884 	0.344211
0.00316054 	-0.000194457 	-0.000404125 	0.345088
0.0032107 	-0.000193026 	-0.000407365 	0.345965
0.00326087 	-0.000191596 	-0.000410606 	0.346841
0.00331104 	-0.000190165 	-0.000413847 	0.347718
0.0033612 	-0.000188735 	-0.000417088 	0.348594
0.00341137 	-0.000187304 	-0.000420328 	0.349471
0.00346154 	-0.000185873 	-0.000423569 	0.350347
0.00351171 	-0.000184443 	-0.00042681 	0.351224
0.00356187 	-0.000183012 	-0.00043005 	0.3521
0.00361204 	-0.000181582 	-0.000433291 	0.352977
0.00366221 	-0.000180151 	-0.000436532 	0.353853
0.00371237 	-0.00017872 	-0.000439773 	0.35473
0.00376254 	-0.00017729 	-0.000443013 	0.355606
0.00381271 	-0.000175859 	-0.000446254 	0.356483
0.00386288 	-0.000174429 	-0.000449495 	0.357359
0.00391304 	-0.000172998 	-0.000452736 	0.358236
0.00396321 	-0.000171567 	-0.000455976 	0.359112
0.00401338 	-0.000170536 	-0.000458375 	0.359691
0.00406355 	-0.000169544 	-0.000460691 	0.360241
0.00411371 	-0.000168552 	-0.000463006 	0.360791
0.00416388 	-0.00016756 	-0.000465322 	0.361341
0.00421405 	-0.000166568 	-0.000467638 	0.36189
0.00426421 	-0.000165576 	-0.000469954 	0.36244
0.00431438 	-0.000164584 	-0.00047227 	0.36299
0.00436455 	-0.000163592 	-0.000474586 	0.36354
0.00441472 	-0.0001626 	-0.000476901 	0.36409
0.00446488 	-0.000161608 	-0.000479217 	0.364639
0.00451505 	-0.000160616 	-0.000481533 	0.365189
0.00456522 	-0.000159624 	-0.000483849 	0.365739
0.00461538 	-0.000158632 	-0.000486165 	0.366289
0.00466555 	-0.00015764 	-0.000488481 	0.366839
0.00471572 	-0.000156648 	-0.000490796 	0.367388
0.00476589 	-0.000155656 	-0.000493112 	0.367938
0.00481605 	-0.000154664 	-0.000495428 	0.368488
0.00486622 	-0.000153672 	-0.000497744 	0.369038
0.00491639 	-0.00015268 	-0.00050006 	0.369587
0.00496656 	-0.000151688 	-0.000502376 	0.370137
0.00501672 	-0.000150901 	-0.000503975 	0.370438
0.00506689 	-0.000150125 	-0.000505535 	0.370725
0.00511706 	-0.000149349 	-0.000507096 	0.371012
0.00516722 	-0.000148573 	-0.000508656 	0.3713
0.00521739 	-0.000147797 	-0.000510217 	0.371587
0.00526756 	-0.00014702 	-0.000511777 	0.371874
0.00531773 	-0.000146244 	-0.000513338 	0.372162
0.00536789 	-0.000145468 	-0.000514898 	0.372449
0.00541806 	-0.000144692 	-0.000516459 	0.372736
0.00546823 	-0.000143916 	-0.000518019 	0.373024
0.00551839 	-0.00014314 	-0.00051958 	0.373311
0.00556856 	-0.000142364 	-0.00052114 	0.373598
0.00561873 	-0.000141588 	-0.000522701 	0.373886
0.0056689 	-0.000140812 	-0.000524261 	0.374173
0.00571906 	-0.000140036 	-0.000525822 	0.37446
0.00576923 	-0.00013926 	-0.000527382 	0.374747
0.0058194 	-0.000138484 	-0.000528943 	0.375035
0.00586957 	-0.000137708 	-0.000530503 	0.375322
0.00591973 	-0.000136932 	-0.000532064 	0.375609
0.0059699 	-0.000136156 	-0.000533625 	0.375897
0.00602007 	-0.00013538 	-0.000535185 	0.376184
0.00607023 	-0.000134604 	-0.000536746 	0.376471
0.0061204 	-0.000133828 	-0.000538306 	0.376759
0.00617057 	-0.000133149 	-0.000539353 	0.3769
0.00622074 	-0.000132519 	-0.000540138 	0.376967
0.0062709 	-0.000131889 	-0.000540924 	0.377034
0.00632107 	-0.000131259 	-0.000541709 	0.377101
0.00637124 	-0.000130629 	-0.000542495 	0.377168
0.0064214 	-0.000129999 	-0.000543281 	0.377235
0.00647157 	-0.000129369 	-0.000544066 	0.377302
0.00652174 	-0.000128739 	-0.000544852 	0.377369
0.00657191 	-0.000128109 	-0.000545638 	0.377436
0.00662207 	-0.000127479 	-0.000546423 	0.377503
0.00667224 	-0.000126849 	-0.000547209 	0.37757
0.00672241 	-0.000126219 	-0.000547995 	0.377637
0.00677258 	-0.000125589 	-0.00054878 	0.377704
0.00682274 	-0.000124959 	-0.000549566 	0.377771
0.00687291 	-0.000124328 	-0.000550352 	0.377838
0.00692308 	-0.000123698 	-0.000551137 	0.377905
0.00697324 	-0.000123068 	-0.000551923 	0.377972
0.00702341 	-0.000122438 	-0.000552708 	0.378039
0.00707358 	-0.000121808 	-0.000553494 	0.378106
0.00712375 	-0.000121178 	-0.00055428 	0.378173
0.00717391 	-0.000120548 	-0.000555065 	0.37824
0.00722408 	-0.000119918 	-0.000555851 	0.378307
0.00727425 	-0.000119288 	-0.000556637 	0.378375
0.00732441 	-0.000118658 	-0.000557422 	0.378442
0.00737458 	-0.000118028 	-0.000558208 	0.378509
0.00742475 	-0.000117398 	-0.000558994 	0.378576
0.00747492 	-0.000116768 	-0.000559779 	0.378643
0.00752508 	-0.000116196 	-0.000560181 	0.378611
0.00757525 	-0.00011568 	-0.000560198 	0.378479
0.00762542 	-0.000115165 	-0.000560215 	0.378348
0.00767559 	-0.00011465 	-0.000560233 	0.378217
0.00772575 	-0.000114134 	-0.00056025 	0.378086
0.00777592 	-0.000113619 	-0.000560267 	0.377955
0.00782609 	-0.000113104 	-0.000560285 	0.377824
0.00787625 	-0.000112589 	-0.000560302 	0.377693
0.00792642 	-0.000112073 	-0.000560319 	0.377561
0.00797659 	-0.000111558 	-0.000560337 	0.37743
0.00802676 	-0.000111043 	-0.000560354 	0.377299
0.00807692 	-0.000110527 	-0.000560371 	0.377168
0.00812709 	-0.000110012 	-0.000560389 	0.377037
0.00817726 	-0.000109497 	-0.000560406 	0.376906
0.00822742 	-0.000108982 	-0.000560423 	0.376775
0.00827759 	-0.000108466 	-0.000560441 	0.376643
0.00832776 	-0.000107951 	-0.000560458 	0.376512
0.00837793 	-0.000107436 	-0.000560475 	0.376381
0.00842809 	-0.00010692 	-0.000560493 	0.37625
0.00847826 	-0.000106405 	-0.00056051 	0.376119
0.00852843 	-0.00010589 	-0.000560527 	0.375988
0.0085786 	-0.000105374 	-0.000560545 	0.375857
0.00862876 	-0.000104859 	-0.000560562 	0.375725
0.00867893 	-0.000104344 	-0.000560579 	0.375594
0.0087291 	-0.000103829 	-0.000560597 	0.375463
0.00877926 	-0.000103313 	-0.000560614 	0.375332
0.00882943 	-0.000102798 	-0.000560631 	0.375201
0.0088796 	-0.000102336 	-0.000560333 	0.374989
0.00892977 	-0.00010198 	-0.000559411 	0.374618
0.00897993 	-0.000101624 	-0.000558489 	0.374247
0.0090301 	-0.000101268 	-0.000557567 	0.373876
0.00908027 	-0.000100912 	-0.000556645 	0.373505
0.00913043 	-0.000100556 	-0.000555723 	0.373134
0.0091806 	-0.0001002 	-0.000554801 	0.372763
0.00923077 	-9.98435e-05 	-0.000553879 	0.372392
0.00928094 	-9.94874e-05 	-0.000552957 	0.372021
0.0093311 	-9.91313e-05 	-0.000552035 	0.37165
0.00938127 	-9.87752e-05 	-0.000551113 	0.371279
0.00943144 	-9.84191e-05 	-0.000550191 	0.370908
0.00948161 	-9.8063e-05 	-0.000549269 	0.370538
0.00953177 	-9.77068e-05 	-0.000548347 	0.370167
0.00958194 	-9.73507e-05 	-0.000547425 	0.369796
0.00963211 	-9.69946e-05 	-0.000546503 	0.369425
0.00968227 	-9.66385e-05 	-0.000545581 	0.369054
0.00973244 	-9.62824e-05 	-0.000544659 	0.368683
0.00978261 	-9.59263e-05 	-0.000543737 	0.368312
0.00983278 	-9.55702e-05 	-0.000542815 	0.367941
0.00988294 	-9.5214e-05 	-0.000541893 	0.36757
0.00993311 	-9.48579e-05 	-0.000540971 	0.367199
0.00998328 	-9.45018e-05 	-0.000540049 	0.366828
0.0100334 	-9.41631e-05 	-0.000539071 	0.366443
0.0100836 	-9.41501e-05 	-0.000537048 	0.365788
0.0101338 	-9.4137e-05 	-0.000535025 	0.365134
0.0101839 	-9.41239e-05 	-0.000533002 	0.364479
0.0102341 	-9.41109e-05 	-0.000530979 	0.363825
0.0102843 	-9.40978e-05 	-0.000528956 	0.363171
0.0103344 	-9.40847e-05 	-0.000526934 	0.362516
0.0103846 	-9.40717e-05 	-0.000524911 	0.361862
0.0104348 	-9.40586e-05 	-0.000522888 	0.361207
0.0104849 	-9.40455e-05 	-0.000520865 	0.360553
0.0105351 	-9.40325e-05 	-0.000518842 	0.359898
0.0105853 	-9.40194e-05 	-0.000516819 	0.359244
0.0106355 	-9.40063e-05 	-0.000514797 	0.35859
0.0106856 	-9.39933e-05 	-0.000512774 	0.357935
0.0107358 	-9.39802e-05 	-0.000510751 	0.357281
0.010786 	-9.39671e-05 	-0.000508728 	0.356626
0.0108361 	-9.39541e-05 	-0.000506705 	0.355972
0.0108863 	-9.3941e-05 	-0.000504682 	0.355318
0.0109365 	-9.39279e-05 	-0.000502659 	0.354663
0.0109866 	-9.39149e-05 	-0.000500637 	0.354009
0.0110368 	-9.39567e-05 	-0.000498471 	0.353321
0.011087 	-9.45579e-05 	-0.000494856 	0.3523
0.0111371 	-9.5159e-05 	-0.00049124 	0.351279
0.0111873 	-9.57602e-05 	-0.000487624 	0.350257
0.0112375 	-9.63614e-05 	-0.000484008 	0.349236
0.0112876 	-9.69626e-05 	-0.000480392 	0.348214
0.0113378 	-9.75638e-05 	-0.000476776 	0.347193
0.011388 	-9.8165e-05 	-0.00047316 	0.346172
0.0114381 	-9.87662e-05 	-0.000469544 	0.34515
0.0114883 	-9.93674e-05 	-0.000465928 	0.344129
0.0115385 	-9.99686e-05 	-0.000462312 	0.343108
0.0115886 	-0.00010057 	-0.000458696 	0.342086
0.0116388 	-0.000101171 	-0.00045508 	0.341065
0.011689 	-0.000101772 	-0.000451464 	0.340043
0.0117391 	-0.000102373 	-0.000447848 	0.339022
0.0117893 	-0.000102974 	-0.000444232 	0.338001
0.0118395 	-0.000103576 	-0.000440616 	0.336979
0.0118896 	-0.000104177 	-0.000437 	0.335958
0.0119398 	-0.000105647 	-0.000430897 	0.3344
0.01199 	-0.000107137 	-0.000424736 	0.332829
0.0120401 	-0.000108627 	-0.000418575 	0.331259
0.0120903 	-0.000110116 	-0.000412415 	0.329688
0.0121405 	-0.000111606 	-0.000406254 	0.328118
0.0121906 	-0.000113096 	-0.000400094 	0.326547
0.0122408 	-0.000114586 	-0.000393933 	0.324977
0.012291 	-0.000116076 	-0.000387772 	0.323406
0.0123411 	-0.000117566 	-0.000381612 	0.321836
0.0123913 	-0.000119056 	-0.000375451 	0.320265
0.0124415 	-0.000120546 	-0.000369291 	0.318695
0.0124916 	-0.000122036 	-0.00036313 	0.317124
0.0125418 	-0.000123526 	-0.000356969 	0.315554
0.012592 	-0.000125016 	-0.000350809 	0.313983
0.0126421 	-0.000126755 	-0.000343686 	0.312129
0.0126923 	-0.000129055 	-0.000334406 	0.309638
0.0127425 	-0.000131355 	-0.000325125 	0.307146
0.0127926 	-0.000133655 	-0.000315845 	0.304655
0.0128428 	-0.000135955 	-0.000306564 	0.302164
0.012893 	-0.000138255 	-0.000297284 	0.299673
0.0129431 	-0.000140556 	-0.000288003 	0.297182
0.0129933 	-0.000142856 	-0.000278723 	0.294691
0.0130435 	-0.000145156 	-0.000269442 	0.2922
0.0130936 	-0.000147456 	-0.000260162 	0.289708
0.0131438 	-0.000149756 	-0.000250881 	0.287217
0.013194 	-0.000152056 	-0.000241601 	0.284726
0.0132441 	-0.000154356 	-0.00023232 	0.282235
0.0132943 	-0.000156354 	-0.000221447 	0.278532
0.0133445 	-0.000158243 	-0.000209995 	0.274387
0.0133946 	-0.000160132 	-0.000198543 	0.270243
0.0134448 	-0.000162021 	-0.000187091 	0.266099
0.013495 	-0.00016391 	-0.000175639 	0.261954
0.0135452 	-0.000165799 	-0.000164187 	0.25781
0.0135953 	-0.000167688 	-0.000152735 	0.253666
0.0136455 	-0.000169577 	-0.000141283 	0.249521
0.0136957 	-0.000171466 	-0.000129831 	0.245377
0.0137458 	-0.000173355 	-0.000118379 	0.241233
0.013796 	-0.000175244 	-0.000106927 	0.237088
0.0138462 	-0.00017325 	-9.70878e-05 	0.229651
0.0138963 	-0.000171066 	-8.73275e-05 	0.222052
0.0139465 	-0.000168883 	-7.75672e-05 	0.214454
0.0139967 	-0.000166699 	-6.78069e-05 	0.206856
0.0140468 	-0.000164516 	-5.80466e-05 	0.199258
0.014097 	-0.000162332 	-4.82862e-05 	0.19166
0.0141472 	-0.000160148 	-3.85259e-05 	0.184062
0.0141973 	-0.000157965 	-2.87656e-05 	0.176464
0.0142475 	-0.000155781 	-1.90053e-05 	0.168866
0.0142977 	-0.000148369 	-1.38859e-05 	0.158321
0.0143478 	-0.000138848 	-1.06383e-05 	0.146588
0.014398 	-0.000129326 	-7.39073e-06 	0.134854
0.0144482 	-0.000119805 	-4.14313e-06 	0.123121
0.0144983 	-0.000110284 	-8.95535e-07 	0.111388
0.0145485 	-0.000100763 	2.35206e-06 	0.0996549
0.0145987 	-9.12419e-05 	5.59966e-06 	0.0879218
0.0146488 	-8.17207e-05 	8.84726e-06 	0.0761886
0.014699 	-7.04442e-05 	8.417e-06 	0.0651476
0.0147492 	-5.87035e-05 	7.01417e-06 	0.0542897
0.0147993 	-4.69628e-05 	5.61133e-06 	0.0434317
0.0148495 	-3.52221e-05 	4.2085e-06 	0.0325738
0.0148997 	-2.34814e-05 	2.80567e-06 	0.0217159
0.0149498 	-1.17407e-05 	1.40283e-06 	0.0108579
0.015 	0 	0 	0
