/*--------------------------------*- C++ -*----------------------------------*\
| =========                 |                                                 |
| \\      /  F ield         | OpenFOAM: The Open Source CFD Toolbox           |
|  \\    /   O peration     | Version:  v1912                                 |
|   \\  /    A nd           | Website:  www.openfoam.com                      |
|    \\/     M anipulation  |                                                 |
\*---------------------------------------------------------------------------*/
FoamFile
{
    version     2.0;
    format      ascii;
    class       volScalarField;
    location    "8.4";
    object      omega;
}
// * * * * * * * * * * * * * * * * * * * * * * * * * * * * * * * * * * * * * //

dimensions      [0 0 -1 0 0 0 0];


internalField   nonuniform List<scalar> 
34128
(
156508
156508
156508
156508
156508
156508
156508
156508
156508
156508
156508
156508
25803.2
25805.3
25810.6
25809.2
25805.4
25804.1
25806.4
25808.5
25807.2
25807.9
25808
25804.1
8854.03
8855.3
8859.67
8858.72
8855.73
8854.9
8856.93
8858.66
8857.24
8857.36
8857.39
8854.5
4228.27
4228.83
4232.36
4231.77
4229.63
4229.18
4230.82
4232.21
4230.67
4230.18
4230.19
4228.34
2440.35
2440.31
2443.27
2442.97
2441.54
2441.39
2442.66
2443.81
2442.08
2440.96
2440.96
2440.03
1594.61
1594.07
1596.59
1596.52
1595.74
1595.83
1596.66
1597.62
1595.71
1593.99
1594
1593.94
1140.79
1139.89
1142
1142.1
1141.93
1142.18
1142.47
1143.24
1141.26
1139.03
1139.04
1139.81
875.991
874.887
876.583
876.779
877.204
877.526
877.159
877.716
875.821
873.228
873.235
874.758
711.973
710.847
712.099
712.323
713.297
713.611
712.476
712.808
711.164
708.385
708.386
710.557
605.512
604.548
605.342
605.523
606.99
607.21
605.233
605.329
604.097
601.324
601.306
603.98
533.529
532.891
533.244
533.32
535.212
535.251
532.397
532.254
531.575
528.994
528.938
531.945
482.915
482.735
482.696
482.62
484.849
484.637
480.905
480.526
480.513
478.295
478.178
481.336
445.882
446.252
445.881
445.633
448.101
447.583
443.004
442.399
443.14
441.428
441.222
444.351
417.629
418.599
417.964
417.555
420.159
419.294
413.924
413.111
414.66
413.573
413.244
416.178
395.124
396.702
395.873
395.332
397.981
396.739
390.659
389.659
392.035
391.669
391.179
393.774
376.416
378.569
377.626
376.988
379.604
377.973
371.281
370.121
373.307
373.714
373.042
375.188
360.224
362.885
361.925
361.231
363.743
361.727
354.542
353.25
357.203
358.396
357.529
359.143
345.715
348.794
347.911
347.203
349.534
347.16
339.622
338.226
342.877
344.838
343.769
344.798
332.338
335.739
335.002
334.321
336.378
333.701
325.975
324.502
329.758
332.448
331.174
331.592
319.717
323.341
322.798
322.181
323.892
320.978
313.23
311.704
317.453
320.81
319.337
319.141
307.59
311.34
311.013
310.496
311.802
308.73
301.127
299.569
305.68
309.615
307.972
307.175
295.769
299.555
299.421
299.05
299.911
296.768
289.475
287.907
294.226
298.613
296.869
295.501
284.101
287.845
287.867
287.66
288.071
284.954
278.131
276.57
282.917
287.621
285.863
283.97
272.46
276.087
276.241
276.156
276.16
273.159
266.976
265.441
271.631
276.523
274.826
272.466
260.742
264.175
264.455
264.444
264.062
261.278
255.91
254.421
260.275
265.223
263.647
260.89
248.854
252.014
252.41
252.443
251.671
249.215
244.845
243.425
248.772
253.642
252.229
249.153
236.71
239.513
240.005
240.071
238.886
236.879
233.701
232.373
237.04
241.701
240.478
237.171
224.215
226.57
227.14
227.22
225.598
224.172
222.399
221.188
224.987
229.299
228.302
224.854
211.252
213.05
213.698
213.771
211.674
210.978
210.863
209.791
212.513
216.324
215.595
212.092
197.682
198.81
199.534
199.58
196.972
197.162
198.91
198.095
199.493
202.638
202.221
198.746
183.448
183.99
184.664
184.644
181.922
182.665
186.425
185.889
185.787
188.138
188.068
184.718
169.572
169.944
170.501
170.379
167.777
168.673
173.308
173.076
171.884
173.848
173.967
170.933
156.628
156.863
157.273
157.04
154.57
155.612
160.374
160.27
158.831
160.473
160.737
158.005
144.547
144.624
144.846
144.493
142.162
143.394
148.256
148.272
146.637
147.909
148.315
145.88
133.19
133.086
133.076
132.591
130.419
131.879
136.884
137.033
135.164
136.006
136.546
134.416
122.435
122.138
121.854
121.228
119.248
120.954
126.122
126.42
124.279
124.646
125.303
123.488
112.193
111.701
111.114
110.341
108.594
110.54
115.855
116.31
113.887
113.757
114.495
113.008
102.409
101.727
100.826
99.9053
98.4324
100.591
106.003
106.617
103.931
103.302
104.077
102.928
93.0533
92.1957
90.985
89.9251
88.7561
91.0818
96.5193
97.288
94.3818
93.2763
94.0343
93.2282
84.118
83.0962
81.6104
80.4263
79.572
82.0181
87.392
88.3013
85.2377
83.6994
84.393
83.9187
75.6105
74.4443
72.7329
71.4468
70.9001
73.4189
78.6319
79.6612
76.5142
74.6067
75.1939
75.0258
67.5503
66.2744
64.3903
63.0301
62.7743
65.3125
70.2686
71.3916
68.2403
66.0425
66.4899
66.5907
59.9586
58.6219
56.6216
55.2192
55.2273
57.7311
62.3433
63.5296
60.4521
58.0526
58.3333
58.6619
52.8724
51.5209
49.4626
48.0517
48.2876
50.7065
54.9022
56.1188
53.1888
50.68
50.7788
51.2866
46.3256
45.0012
42.9426
41.5553
41.9771
44.2677
47.988
49.1998
46.4893
43.9631
43.8772
44.5083
40.3468
39.0864
37.0812
35.745
36.3091
38.4385
41.6319
42.7963
40.3885
37.9309
37.6795
38.3629
34.9572
33.7918
31.8843
30.6199
31.2845
33.2348
35.9123
36.9947
34.9083
32.5638
32.1754
32.8721
30.146
29.0773
27.2627
26.084
26.8108
28.5914
30.8367
31.8264
30.0357
27.7891
27.2945
27.9829
25.8331
24.8597
23.1466
22.0704
22.8181
24.4209
26.3067
27.2078
25.6899
23.5819
23.016
23.6178
21.9942
21.1478
19.6048
18.6436
19.3749
20.7753
22.2773
23.0896
21.8396
19.9501
19.3413
19.8218
18.674
17.9541
16.593
15.7504
16.4391
17.6448
18.8157
19.5368
18.5284
16.8655
16.2461
16.6024
15.8378
15.2389
14.0578
13.3298
13.9599
14.9848
15.8825
16.5071
15.7165
14.2761
13.6666
13.9086
13.4451
12.9564
11.9455
11.3235
11.8864
12.7486
13.4285
13.9597
13.3563
12.1247
11.5401
11.6841
11.4481
11.0562
10.2007
9.67376
10.1664
10.8859
11.3975
11.8446
11.3944
10.3523
9.80275
9.86748
9.79686
9.4874
8.77017
8.32637
8.74989
9.34629
9.73075
10.1057
9.77694
8.90229
8.39354
8.39718
8.44215
8.20108
7.60429
7.23175
7.59007
8.08225
8.37232
8.68688
8.45202
7.72226
7.25679
7.21548
7.33779
7.1522
6.6585
6.34597
6.64483
7.04989
7.27113
7.53589
7.37198
6.76542
6.34325
6.27052
6.44178
6.30039
5.89369
5.63104
5.87707
6.21009
6.3819
6.60572
6.49439
5.99113
5.61061
5.51736
5.71717
5.61045
5.27645
5.05483
5.25486
5.52879
5.66558
5.8557
5.78253
5.36501
5.02349
4.91813
5.13224
5.05245
4.77877
4.59068
4.75129
4.977
5.08922
5.25145
5.20539
4.85851
4.55281
4.44166
4.6604
4.60138
4.37755
4.21675
4.344
4.53052
4.62551
4.76451
4.73728
4.44835
4.17513
4.06252
4.27973
4.23671
4.05398
3.9154
4.0147
4.1694
4.25206
4.37175
4.35708
4.11578
3.87173
3.76039
3.97239
3.94176
3.79292
3.67246
3.74855
3.87741
3.95099
4.05455
4.04782
3.84583
3.62779
3.51971
3.72402
3.70307
3.5822
3.47657
3.5336
3.64148
3.70815
3.79803
3.79606
3.62671
3.43165
3.32804
3.52309
3.50983
3.41209
3.31867
3.36026
3.4511
3.51229
3.59011
3.5911
3.4491
3.27419
3.17552
3.36012
3.35341
3.2748
3.1915
3.22091
3.29795
3.3545
3.42157
3.42438
3.30511
3.14814
3.05456
3.22664
3.22685
3.16409
3.0893
3.10953
3.17551
3.22778
3.28517
3.28902
3.18813
3.04751
2.95888
3.11896
3.12465
3.07491
3.00805
3.02002
3.07829
3.1266
3.17514
3.17951
3.09375
2.96798
2.88358
3.03387
3.04237
3.00328
2.94333
2.94963
3.00137
3.04663
3.08685
3.09138
3.01825
2.90604
2.82488
2.96681
2.97643
2.94628
2.89218
2.89484
2.9409
2.98399
3.01661
3.02105
2.95854
2.85878
2.77984
2.91316
2.92396
2.90095
2.85236
2.85305
2.89456
2.93575
2.96143
2.96559
2.91212
2.82393
2.74618
2.87004
2.88253
2.86531
2.82198
2.82215
2.86095
2.89962
2.91891
2.92265
2.87699
2.79956
2.72215
2.83592
2.85034
2.83786
2.79954
2.80045
2.83767
2.87376
2.8871
2.89034
2.85152
2.78333
2.70646
2.80946
2.82589
2.81733
2.78387
2.78659
2.82322
2.85667
2.86445
2.86715
2.83439
2.77295
2.69822
2.78952
2.80803
2.80278
2.77405
2.77951
2.81646
2.84719
2.8497
2.85185
2.82455
2.76895
2.69638
2.77522
2.7959
2.79352
2.76943
2.77837
2.8164
2.84438
2.84188
2.84348
2.82118
2.77077
2.69849
2.76583
2.78889
2.78913
2.7696
2.78252
2.8222
2.84749
2.84027
2.84131
2.82357
2.77787
2.70445
2.76086
2.78664
2.7894
2.77436
2.7917
2.83356
2.85611
2.84431
2.84479
2.83126
2.78979
2.71489
2.76003
2.78901
2.7944
2.7838
2.80569
2.85072
2.86986
2.85378
2.85362
2.84393
2.80631
2.72968
156508
156508
156508
156508
156508
156508
156508
156508
156508
156508
156508
156508
25805.3
25806.9
25812.4
25811.1
25807.3
25806.4
25808.9
25811
25809.3
25810
25809.9
25805.9
8856.41
8857.36
8861.8
8860.87
8858.02
8857.42
8859.49
8861.14
8859.53
8859.62
8859.56
8856.65
4230.9
4231.28
4234.8
4234.2
4232.24
4231.91
4233.37
4234.67
4233.1
4232.63
4232.58
4230.77
2443.4
2443.32
2446.23
2445.87
2444.67
2444.52
2445.34
2446.38
2444.83
2443.82
2443.76
2442.89
1598.14
1597.74
1600.17
1600.02
1599.49
1599.41
1599.51
1600.32
1598.86
1597.4
1597.3
1597.27
1144.76
1144.19
1146.21
1146.19
1146.28
1146.18
1145.44
1146.04
1144.81
1143.02
1142.86
1143.56
880.29
879.726
881.346
881.41
882.06
881.833
880.164
880.529
879.703
877.777
877.529
878.819
716.437
716.067
717.303
717.392
718.513
718.076
715.432
715.55
715.288
713.427
713.069
714.77
609.972
609.956
610.842
610.911
612.391
611.678
608.063
607.926
608.361
606.769
606.277
608.192
537.836
538.299
538.882
538.901
540.617
539.586
535.045
534.651
535.876
534.739
534.093
536.027
486.948
487.973
488.306
488.27
490.106
488.726
483.333
482.689
484.758
484.23
483.415
485.186
449.541
451.16
451.318
451.233
453.087
451.335
445.193
444.315
447.237
447.437
446.442
447.895
420.838
423.039
423.112
422.991
424.768
422.639
415.879
414.789
418.536
419.531
418.36
419.369
397.834
400.562
400.645
400.516
402.122
399.63
392.404
391.131
395.643
397.446
396.115
396.587
378.609
381.784
381.956
381.862
383.204
380.382
372.857
371.433
376.623
379.212
377.733
377.607
361.931
365.458
365.761
365.751
366.751
363.647
356
354.456
360.207
363.531
361.926
361.172
346.974
350.759
351.215
351.327
351.936
348.61
341.017
339.383
345.553
349.529
347.835
346.456
333.182
337.124
337.749
338.009
338.22
334.736
327.358
325.662
332.089
336.608
334.884
332.906
320.169
324.175
324.971
325.388
325.204
321.641
314.643
312.911
319.419
324.353
322.672
320.146
307.664
311.646
312.612
313.168
312.608
309.051
302.601
300.855
307.262
312.483
310.912
307.911
295.463
299.341
300.488
301.13
300.224
296.764
291.026
289.288
295.417
300.814
299.392
296.008
283.428
287.116
288.443
289.124
287.894
284.62
279.755
278.049
283.745
289.203
287.947
284.29
271.408
274.849
276.336
277.052
275.462
272.51
268.653
267.005
272.117
277.509
276.441
272.637
259.316
262.424
264.046
264.79
262.827
260.315
257.603
256.044
260.422
265.614
264.764
260.943
247.074
249.773
251.451
252.194
249.903
247.954
246.497
245.063
248.556
253.416
252.815
249.117
234.613
236.824
238.461
239.138
236.607
235.35
235.233
233.966
236.434
240.746
240.499
237.062
221.862
223.506
224.974
225.514
222.847
222.426
223.708
222.659
223.952
227.517
227.715
224.681
208.745
209.74
210.866
211.187
208.509
209.092
211.814
211.038
211.021
213.617
214.347
211.813
195.141
195.401
195.994
196.018
193.478
195.209
199.558
198.991
197.529
198.907
200.235
198.319
180.903
180.58
180.728
180.551
178.306
180.664
186.779
186.516
183.38
183.598
185.273
184.055
166.955
166.475
166.285
165.987
164.034
166.496
173.345
173.447
169.257
169.118
170.757
169.777
153.89
153.308
152.763
152.344
150.714
153.237
159.89
160.175
155.99
155.59
157.136
156.327
141.682
140.977
140.053
139.488
138.229
140.839
147.249
147.671
143.577
142.892
144.315
143.689
130.201
129.34
128.028
127.298
126.451
129.172
135.361
135.92
131.888
130.884
132.155
131.728
119.329
118.281
116.593
115.691
115.284
118.124
124.094
124.791
120.803
119.461
120.55
120.326
108.979
107.729
105.696
104.629
104.664
107.617
113.339
114.168
110.236
108.559
109.439
109.405
99.0967
97.6475
95.3149
94.1015
94.5628
97.6108
103.031
103.979
100.136
98.1475
98.8038
98.9259
89.6557
88.0314
85.4545
84.1245
84.9793
88.0953
93.1422
94.1857
90.4839
88.2275
88.6518
88.8854
80.6546
78.9069
76.136
74.7264
75.9352
79.0734
83.6764
84.7865
81.2847
78.8211
79.0032
79.3038
72.1106
70.3026
67.3903
65.9421
67.4591
70.5604
74.6607
75.8033
72.5597
69.9603
69.8962
70.2193
64.0536
62.2406
59.2515
57.8053
59.5729
62.5794
66.1383
67.2764
64.3412
61.6796
61.3792
61.6803
56.5263
54.7474
51.7523
50.3449
52.2985
55.1563
58.1618
59.2581
56.6659
54.0141
53.5093
53.7378
49.5573
47.8495
44.9208
43.5822
45.6547
48.3168
50.788
51.8089
49.5714
46.9934
46.3302
46.4405
43.1749
41.5716
38.779
37.5323
39.6558
42.0831
44.0736
44.9968
43.0911
40.6408
39.869
39.8299
37.4048
35.935
33.3398
32.1995
34.3091
36.4726
38.0685
38.8999
37.2523
34.977
34.1266
33.9408
32.2489
30.9156
28.5024
27.4742
29.5394
31.4859
32.7314
33.493
32.0621
29.9578
29.0471
28.7238
27.6151
26.417
24.1777
23.2726
25.2521
27.0317
27.963
28.6656
27.4341
25.494
24.5684
24.1115
23.4584
22.4296
20.4533
19.6767
21.5023
23.0496
23.7085
24.34
23.3121
21.5954
20.6986
20.1644
19.8545
18.9917
17.2828
16.6315
18.2764
19.5997
20.0507
20.5931
19.756
18.2586
17.4147
16.8535
16.7706
16.065
14.613
14.0768
15.5298
16.6455
16.9469
17.3953
16.7297
15.4418
14.6636
14.104
14.1681
13.6046
12.3885
11.954
13.2157
14.1461
14.3441
14.7127
14.1862
13.0906
12.3838
11.845
11.998
11.558
10.5521
10.2045
11.2836
12.053
12.1815
12.4871
12.0708
11.1463
10.5115
10.0056
10.2076
9.87149
9.04797
8.77259
9.68313
10.3155
10.3988
10.6552
10.3265
9.55089
8.98551
8.51882
8.74412
8.49245
7.82396
7.60707
8.36618
8.88395
8.93999
9.15722
8.89819
8.24978
7.74898
7.32391
7.55705
7.37194
6.83284
6.66226
7.28846
7.71167
7.75313
7.93842
7.73455
7.1933
6.75123
6.36744
6.5999
6.46579
6.03308
5.89848
6.41021
6.75622
6.79152
6.95018
6.7897
6.33777
5.9482
5.60368
5.83136
5.73535
5.38915
5.28199
5.69665
5.98014
6.01434
6.15036
6.02376
5.64578
5.30261
4.99441
5.2158
5.14768
4.87125
4.78468
5.11801
5.35113
5.38688
5.50329
5.403
5.08598
4.78352
4.50831
4.72331
4.67529
4.45487
4.38351
4.64931
4.84193
4.8802
4.97941
4.89942
4.63264
4.36574
4.12026
4.3293
4.29565
4.12011
4.05979
4.26985
4.42993
4.47071
4.5546
4.49023
4.26488
4.02898
3.81057
4.0139
3.99053
3.85096
3.7985
3.96276
4.09665
4.13956
4.20941
4.15725
3.96594
3.75707
3.56361
3.7611
3.74528
3.63459
3.58764
3.7143
3.82708
3.87148
3.92835
3.88599
3.72244
3.53719
3.36605
3.55835
3.54824
3.4608
3.41761
3.51343
3.60914
3.65422
3.69914
3.66473
3.52373
3.35915
3.20761
3.39585
3.39006
3.32143
3.2807
3.35123
3.43313
3.47797
3.51242
3.48415
3.36147
3.21494
3.08035
3.26624
3.2633
3.20999
3.17069
3.22051
3.29123
3.33493
3.36038
3.33679
3.22967
3.09835
2.97795
3.16484
3.16201
3.1213
3.08252
3.11566
3.17709
3.2189
3.23676
3.21666
3.12371
3.00481
2.896
3.08414
3.08142
3.05114
3.01158
3.03359
3.0863
3.12506
3.13656
3.11893
3.03855
2.9299
2.8308
3.0179
3.01773
2.99602
2.95512
2.96871
3.01582
3.04968
3.05578
3.03974
2.97035
2.87019
2.77942
2.96249
2.96794
2.95283
2.91041
2.91777
2.96267
2.99021
2.99121
2.976
2.91615
2.82307
2.73942
2.91842
2.92989
2.91912
2.87665
2.87948
2.92337
2.94424
2.94028
2.92521
2.87368
2.78654
2.70879
2.88444
2.90038
2.8933
2.85156
2.85168
2.89466
2.90966
2.90088
2.88537
2.84111
2.75911
2.68588
2.85858
2.87884
2.87481
2.83366
2.83281
2.87534
2.8848
2.8713
2.85487
2.81698
2.74044
2.66934
2.83934
2.86359
2.86199
2.82181
2.82153
2.86404
2.86838
2.85018
2.83239
2.80007
2.73054
2.65805
2.82555
2.85355
2.85384
2.815
2.81675
2.86057
2.85938
2.83642
2.81686
2.78942
2.72702
2.65171
2.81634
2.84794
2.84969
2.81251
2.81754
2.86375
2.85705
2.82917
2.80741
2.78429
2.72908
2.65182
2.81107
2.84625
2.84913
2.81387
2.82325
2.87283
2.8607
2.82782
2.80337
2.78406
2.73587
2.65759
2.80934
2.84817
2.85202
2.81886
2.8333
2.88692
2.87006
2.83193
2.80421
2.78835
2.74604
2.66798
2.81087
2.85371
2.85848
2.82743
2.84732
2.90465
2.8848
2.84134
2.80958
2.79691
2.75979
2.68268
156508
156508
156508
156508
156508
156508
156508
156508
156508
156508
156508
156508
25806.2
25807.5
25812.9
25811.7
25808.2
25807.2
25809.6
25811.6
25810.1
25810.8
25810.7
25806.7
8857.14
8857.92
8862.27
8861.47
8858.77
8858.14
8860.01
8861.62
8860.18
8860.34
8860.23
8857.32
4231.53
4231.81
4235.28
4234.79
4232.93
4232.53
4233.79
4235.06
4233.7
4233.34
4233.2
4231.34
2443.98
2443.87
2446.76
2446.51
2445.36
2445.09
2445.71
2446.73
2445.42
2444.57
2444.4
2443.41
1598.7
1598.3
1600.77
1600.72
1600.18
1599.95
1599.87
1600.67
1599.48
1598.22
1597.98
1597.77
1145.29
1144.76
1146.86
1146.95
1146.97
1146.69
1145.82
1146.4
1145.45
1143.91
1143.59
1144.03
880.766
880.28
882.02
882.209
882.707
882.301
880.576
880.923
880.341
878.712
878.289
879.261
716.855
716.578
717.968
718.194
719.098
718.495
715.89
715.983
715.903
714.372
713.84
715.182
610.33
610.413
611.47
611.685
612.901
612.047
608.578
608.407
608.932
607.687
607.04
608.577
538.14
538.699
539.453
539.624
541.055
539.906
535.627
535.19
536.388
535.598
534.83
536.387
487.209
488.327
488.816
488.925
490.484
489.007
483.993
483.299
485.203
485.004
484.112
485.524
449.757
451.465
451.767
451.816
453.423
451.58
445.942
445.009
447.62
448.111
447.091
448.217
421.002
423.278
423.509
423.509
425.061
422.846
416.725
415.58
418.865
420.105
418.955
419.683
397.931
400.711
401.001
400.978
402.365
399.795
393.353
392.028
395.926
397.939
396.655
396.907
378.625
381.819
382.27
382.281
383.382
380.501
373.912
372.441
376.871
379.651
378.223
377.954
361.845
365.355
366.03
366.138
366.845
363.713
357.154
355.572
360.425
363.921
362.37
361.569
346.773
350.497
351.436
351.677
351.932
348.617
342.258
340.598
345.74
349.867
348.24
346.922
332.862
336.701
337.919
338.316
338.09
334.671
328.666
326.959
332.243
336.881
335.257
333.458
319.735
323.598
325.085
325.649
324.937
321.502
315.989
314.265
319.537
324.529
323.025
320.793
307.123
310.928
312.65
313.368
312.198
308.842
303.949
302.236
307.339
312.54
311.264
308.655
294.831
298.504
300.422
301.242
299.673
296.494
292.333
290.658
295.437
300.72
299.748
296.84
282.705
286.182
288.249
289.121
287.205
284.308
280.976
279.368
283.685
288.916
288.292
285.189
270.672
273.877
276.006
276.884
274.707
272.163
269.74
268.228
271.963
277.006
276.721
273.57
258.63
261.519
263.589
264.425
262.079
259.976
258.511
257.124
260.17
264.886
264.945
261.868
246.49
249.008
250.929
251.67
249.221
247.654
247.187
245.957
248.22
252.463
252.88
249.976
234.163
236.241
237.922
238.511
236.035
235.103
235.679
234.637
236.041
239.701
240.455
237.788
221.554
223.102
224.46
224.846
222.41
222.23
223.854
223.077
223.564
226.503
227.576
225.198
208.546
209.479
210.417
210.554
208.211
208.927
211.636
211.141
210.685
212.764
214.128
212.139
194.996
195.263
195.637
195.509
193.279
195.057
198.916
198.742
197.274
198.347
199.967
198.456
180.82
180.46
180.358
179.984
178.044
180.52
185.555
185.735
183.206
183.224
185.007
184.011
166.828
166.29
165.87
165.318
163.722
166.319
171.519
172.032
169.054
168.72
170.396
169.603
153.731
153.094
152.31
151.607
150.385
153.034
158.072
158.685
155.751
155.167
156.699
156.05
141.495
140.738
139.569
138.72
137.891
140.612
145.479
146.17
143.307
142.454
143.827
143.314
129.989
129.071
127.517
126.527
126.108
128.924
133.631
134.399
131.591
130.438
131.637
131.254
119.091
117.976
116.058
114.938
114.935
117.856
122.401
123.247
120.482
119.013
120.019
119.754
108.716
107.386
105.138
103.907
104.305
107.331
111.699
112.615
109.893
108.112
108.907
108.744
98.8101
97.2694
94.7349
93.4176
94.1952
97.3043
101.47
102.444
99.7748
97.7066
98.2757
98.1908
89.3469
87.6168
84.8549
83.4812
84.6034
87.76
91.6938
92.7096
90.1096
87.7977
88.1306
88.0978
80.3272
78.4395
75.5203
74.1232
75.5434
78.7014
82.377
83.4129
80.9025
78.4072
78.4979
78.4915
71.7698
69.7617
66.7634
65.377
67.0379
70.1468
73.5418
74.576
72.1757
69.5661
69.416
69.4133
63.7028
61.6177
58.6199
57.277
59.1138
62.1231
65.2209
66.2332
63.9618
61.309
60.9276
60.9119
56.1585
54.045
51.1232
49.8537
51.798
54.6608
57.4502
58.4242
56.2978
53.6705
53.0955
53.0354
49.1709
47.0789
44.3002
43.1294
45.1129
47.7889
50.263
51.1878
49.221
46.68
45.9626
45.8232
42.7705
40.7465
38.168
37.1146
39.0732
41.532
43.6867
44.5561
42.7639
40.3572
39.5551
39.2957
36.9808
35.0614
32.7338
31.8074
33.6833
35.9061
37.742
38.5512
36.9498
34.707
33.8409
33.4588
31.8075
30.0113
27.9203
27.1088
28.8976
30.907
32.4414
33.1883
31.7844
29.717
28.7954
28.3032
27.1747
25.5254
23.6567
22.9508
24.6417
26.4485
27.6949
28.3898
27.1821
25.3049
24.3807
23.8061
23.0405
21.5761
19.9836
19.3924
20.9165
22.4816
23.4743
24.0967
23.0859
21.4229
20.5369
19.9269
19.4691
18.1973
16.8634
16.3806
17.7251
19.0617
19.8542
20.3834
19.5587
18.1108
17.2833
16.6702
16.4232
15.3433
14.2442
13.8578
15.0235
16.1507
16.7853
17.2182
16.5602
15.3173
14.5585
13.9635
13.8542
12.9617
12.069
11.7649
12.7609
13.702
14.2126
14.5685
14.0425
12.9869
12.3006
11.7382
11.7127
10.9947
10.2789
10.0429
10.8831
11.6627
12.0741
12.3703
11.9502
11.0606
10.4463
9.92542
9.95171
9.3845
8.81699
8.63588
9.33684
9.97877
10.3117
10.5611
10.2263
9.48064
8.93471
8.45924
8.51888
8.07607
7.6303
7.49246
8.07171
8.59821
8.87004
9.08185
8.81559
8.19241
7.70973
7.28011
7.36247
7.01893
6.67148
6.56696
7.04178
7.47272
7.69757
7.87841
7.66683
7.14658
6.72113
6.33562
6.43466
6.16839
5.89921
5.81982
6.20637
6.55897
6.74781
6.90263
6.73438
6.29977
5.92529
5.58087
5.69323
5.48601
5.27842
5.21754
5.53032
5.81914
5.98024
6.11279
5.97864
5.61485
5.28529
4.97829
5.10215
4.93947
4.77986
4.73228
4.98393
5.22103
5.36045
5.47361
5.36618
5.06078
4.77054
4.49707
4.63146
4.50214
4.37963
4.34126
4.54254
4.73777
4.85983
4.95591
4.8693
4.61205
4.35611
4.11241
4.25672
4.15242
4.05836
4.02606
4.18598
4.34727
4.45502
4.53588
4.46545
4.248
4.02195
3.80518
3.95826
3.8729
3.80054
3.77193
3.89794
4.03166
4.12716
4.19437
4.13644
3.95205
3.75205
3.56043
3.72029
3.64971
3.5938
3.5671
3.66535
3.77657
3.86118
3.9161
3.8677
3.71095
3.53371
3.36447
3.53044
3.47174
3.42827
3.40222
3.47776
3.57053
3.64516
3.68892
3.6476
3.51415
3.35687
3.20711
3.37896
3.33015
3.2961
3.26987
3.32684
3.40442
3.46966
3.50316
3.46694
3.35319
3.2135
3.08051
3.25808
3.21789
3.19102
3.16421
3.20594
3.27096
3.32724
3.35117
3.31846
3.22135
3.0973
2.9789
3.16107
3.12933
3.10806
3.08059
3.10968
3.16431
3.21199
3.22686
3.19646
3.1134
3.00431
2.89757
3.08327
3.06
3.04326
3.01524
3.03367
3.07971
3.11915
3.12541
3.09643
3.0254
2.9298
2.83282
3.02196
3.0064
2.99351
2.96579
2.97483
3.01337
3.04488
3.04295
3.01483
2.9542
2.87026
2.78163
2.97593
2.96575
2.95633
2.9297
2.93066
2.96236
2.98609
2.9764
2.94877
2.89715
2.82316
2.74156
2.941
2.93562
2.93062
2.90234
2.89678
2.92443
2.94036
2.92328
2.89592
2.85206
2.78642
2.71062
2.91466
2.9158
2.91405
2.88185
2.87146
2.89771
2.90575
2.88163
2.85429
2.81702
2.75829
2.6872
2.89516
2.90267
2.90308
2.8667
2.85456
2.88059
2.88071
2.84986
2.82225
2.79043
2.73726
2.67002
2.88117
2.8948
2.89662
2.8576
2.84461
2.87165
2.864
2.82671
2.7984
2.77089
2.7221
2.65803
2.87167
2.89111
2.89372
2.85297
2.84054
2.86857
2.85464
2.81117
2.78157
2.75728
2.71175
2.65036
2.8659
2.89082
2.89374
2.8519
2.84151
2.87054
2.85191
2.80243
2.7708
2.74884
2.70546
2.64627
2.8633
2.89337
2.89634
2.85399
2.84698
2.87789
2.85524
2.79989
2.76534
2.74468
2.70318
2.6452
2.86347
2.89855
2.90139
2.85918
2.85651
2.89023
2.86439
2.8031
2.7646
2.74471
2.70578
2.64673
2.86629
2.9064
2.90917
2.86749
2.86984
2.90735
2.87911
2.81187
2.76817
2.74911
2.71276
2.65117
156508
156508
156508
156508
156508
156508
156508
156508
156508
156508
156508
156508
25808.6
25809.3
25814.8
25813.9
25810.4
25809.7
25812.3
25814.2
25812.4
25813
25812.8
25808.8
8859.64
8860.04
8864.43
8863.73
8861.18
8860.73
8862.59
8864.12
8862.53
8862.65
8862.46
8859.56
4234.21
4234.27
4237.75
4237.3
4235.6
4235.28
4236.35
4237.52
4236.16
4235.83
4235.63
4233.81
2447.04
2446.85
2449.74
2449.49
2448.5
2448.19
2448.41
2449.31
2448.19
2447.48
2447.24
2446.3
1602.19
1601.9
1604.36
1604.28
1603.88
1603.47
1602.78
1603.43
1602.63
1601.66
1601.35
1601.14
1149.16
1148.93
1151.05
1151.1
1151.21
1150.59
1148.9
1149.3
1148.96
1147.92
1147.5
1147.85
884.905
884.907
886.748
886.883
887.395
886.486
883.769
883.904
884.168
883.245
882.704
883.442
721.107
721.501
723.105
723.292
724.086
722.821
719.111
718.968
719.946
719.35
718.671
719.599
614.529
615.438
616.867
617.085
618.024
616.361
611.752
611.326
613.089
613.007
612.185
613.101
542.119
543.619
544.954
545.198
546.141
544.06
538.691
537.988
540.56
541.145
540.183
540.9
490.819
492.921
494.264
494.551
495.352
492.853
486.901
485.937
489.3
490.656
489.569
489.927
452.915
455.587
457.01
457.375
457.897
455.016
448.663
447.468
451.561
453.741
452.551
452.431
423.678
426.856
428.399
428.889
429.042
425.82
419.25
417.857
422.58
425.583
424.33
423.653
400.145
403.742
405.415
406.073
405.808
402.296
395.687
394.137
399.354
403.126
401.866
400.6
380.418
384.328
386.149
386.98
386.294
382.552
376.074
374.407
379.952
384.389
383.205
381.359
363.258
367.372
369.36
370.345
369.261
365.367
359.172
357.426
363.128
368.106
367.067
364.687
347.847
352.06
354.226
355.346
353.88
349.922
344.156
342.368
348.06
353.438
352.599
349.761
333.637
337.855
340.193
341.414
339.593
335.668
330.466
328.668
334.19
339.828
339.221
336.029
320.248
324.39
326.879
328.152
326.016
322.223
317.705
315.927
321.131
326.914
326.524
323.107
307.409
311.407
314.017
315.29
312.875
309.313
305.583
303.853
308.612
314.402
314.214
310.719
294.919
298.718
301.389
302.629
299.968
296.735
293.877
292.224
296.432
302.084
302.093
298.654
282.624
286.172
288.823
289.993
287.136
284.33
282.409
280.862
284.424
289.804
290.019
286.746
270.404
273.646
276.177
277.238
274.253
271.967
271.032
269.623
272.456
277.438
277.908
274.855
258.166
261.045
263.325
264.243
261.233
259.554
259.623
258.384
260.42
264.888
265.638
262.862
245.829
248.285
250.172
250.874
247.983
246.994
248.064
247.036
248.221
252.048
253.075
250.663
233.321
235.289
236.579
236.985
234.373
234.19
236.237
235.482
235.771
238.746
240.08
238.107
220.561
221.982
222.44
222.47
220.322
221.06
224.126
223.604
222.981
224.887
226.526
225.102
207.458
208.23
207.621
207.187
205.73
207.507
211.625
211.391
209.729
210.345
212.287
211.536
193.893
193.836
192.013
191.031
190.51
193.408
198.618
198.728
195.89
194.988
197.209
197.253
179.705
178.827
176.345
175.216
175.213
178.656
184.994
185.476
181.349
179.425
181.51
182.131
165.485
164.351
161.573
160.386
160.742
164.201
170.683
171.54
166.875
164.761
166.595
167.253
152.057
150.713
147.748
146.483
147.191
150.655
156.744
157.683
153.261
151.036
152.604
153.236
139.473
137.89
134.734
133.382
134.474
137.994
143.682
144.674
140.508
138.134
139.426
140.035
127.63
125.783
122.413
120.979
122.479
126.095
131.406
132.449
128.493
125.938
126.941
127.532
116.419
114.307
110.712
109.214
111.127
114.851
119.793
120.886
117.107
114.369
115.068
115.631
105.761
103.396
99.5944
98.0621
100.377
104.188
108.756
109.888
106.276
103.386
103.77
104.282
95.6149
93.0199
89.0571
87.526
90.2075
94.0636
98.2427
99.3985
95.9623
92.9749
93.0449
93.4721
85.9702
83.1744
79.1166
77.6254
80.6151
84.4658
88.2389
89.3978
86.1561
83.1387
82.915
83.217
76.8329
73.8759
69.8021
68.3891
71.6127
75.4006
78.7539
79.8931
76.8701
73.8884
73.4175
73.5511
68.2209
65.1544
61.1488
59.8479
63.2212
66.8878
69.8146
70.9115
68.131
65.2451
64.5927
64.519
60.1618
57.0471
53.1913
52.0299
55.4652
58.9542
61.4582
62.4919
59.9734
57.2374
56.4746
56.1677
52.6894
49.5935
45.9608
44.9571
48.3694
51.629
53.7255
54.6784
52.4344
49.8953
49.0651
48.5416
45.8386
42.8308
39.4817
38.6443
41.9561
44.9403
46.6566
47.5147
45.5495
43.2484
42.3763
41.6829
39.6394
36.7898
33.7588
33.0829
36.2407
38.9122
40.2873
41.0404
39.3489
37.3209
36.4246
35.6348
34.0936
31.3854
28.6797
28.1543
31.1299
33.5443
34.6434
35.2851
33.8409
32.0392
31.1645
30.3343
29.104
26.5211
24.1684
23.7894
26.5229
28.7357
29.6325
30.1553
28.9238
27.292
26.4888
25.6685
24.6303
22.2934
20.3016
20.0559
22.503
24.4271
25.1791
25.563
24.5289
23.1339
22.4015
21.6199
20.7556
18.6858
17.0303
16.8984
19.0467
20.6938
21.3364
21.6091
20.7365
19.5627
18.9019
18.1795
17.4475
15.6524
14.3001
14.2591
16.1138
17.5034
18.0507
18.2609
17.5106
16.5347
15.9474
15.2918
14.6665
13.1362
12.0479
12.0753
13.6532
14.8118
15.2755
15.4612
14.8025
13.9966
13.4811
12.8941
12.3659
11.073
10.2086
10.2837
11.6091
12.5658
12.9584
13.1268
12.5536
11.8899
11.4417
10.9201
10.4857
9.39814
8.7192
8.82423
9.92526
10.7091
11.0458
11.198
10.7026
10.1561
9.76893
9.30732
8.95848
8.04938
7.52102
7.64209
8.54795
9.18669
9.47982
9.61594
9.19023
8.73903
8.40564
7.99854
7.72528
6.97
6.56178
6.68846
7.42763
7.94637
8.2051
8.32529
7.96105
7.58678
7.29992
6.94193
6.73439
6.10992
5.79614
5.92105
6.52012
6.94081
7.17151
7.27616
6.96548
6.65314
6.40599
6.0918
5.941
5.42635
5.18591
5.30417
5.78701
6.12826
6.33522
6.42487
6.16039
5.89804
5.68455
5.40904
5.30711
4.88372
4.69969
4.80833
5.19566
5.47289
5.65892
5.73425
5.50932
5.28757
5.10258
4.861
4.80117
4.45306
4.31218
4.40952
4.71889
4.94466
5.11158
5.17331
4.98208
4.79364
4.63288
4.42088
4.39742
4.1112
4.00322
4.0885
4.33447
4.51882
4.66786
4.71672
4.5541
4.39339
4.25334
4.06689
4.07516
3.83982
3.75691
3.82991
4.02438
4.17531
4.30734
4.34406
4.20571
4.06839
3.94618
3.78079
3.81787
3.62452
3.5607
3.62159
3.77417
3.898
4.01371
4.03903
3.92124
3.80397
3.69723
3.54763
3.61246
3.454
3.40475
3.45389
3.5723
3.67399
3.77404
3.78869
3.68835
3.58848
3.49523
3.35896
3.44833
3.31935
3.28129
3.31918
3.40957
3.49303
3.57807
3.5828
3.4973
3.4127
3.33122
3.20648
3.31739
3.2135
3.18412
3.21134
3.27863
3.34696
3.41769
3.41327
3.34045
3.26929
3.19812
3.08374
3.21326
3.13084
3.10829
3.12545
3.17365
3.22928
3.28648
3.27369
3.2117
3.15238
3.09007
2.98515
3.13143
3.0668
3.04974
3.05755
3.08997
3.13486
3.17937
3.15894
3.10617
3.05721
3.00132
2.90605
3.06775
3.01762
3.00507
3.00442
3.0239
3.05964
3.09233
3.06494
3.01993
2.97988
2.92918
2.84276
3.01785
2.98032
2.97146
2.96352
2.97253
3.00041
3.02215
2.98841
2.94975
2.91725
2.87122
2.79232
2.9783
2.95262
2.94687
2.93303
2.9336
2.95464
2.96626
2.92665
2.89299
2.86678
2.8251
2.75237
2.94776
2.93253
2.92955
2.91221
2.90591
2.92035
2.92255
2.87749
2.8475
2.82643
2.78874
2.72101
2.92499
2.91829
2.9184