/*--------------------------------*- C++ -*----------------------------------*\
| =========                 |                                                 |
| \\      /  F ield         | OpenFOAM: The Open Source CFD Toolbox           |
|  \\    /   O peration     | Version:  v1912                                 |
|   \\  /    A nd           | Website:  www.openfoam.com                      |
|    \\/     M anipulation  |                                                 |
\*---------------------------------------------------------------------------*/
FoamFile
{
    version     2.0;
    format      ascii;
    class       surfaceScalarField;
    location    "8.4";
    object      phi;
}
// * * * * * * * * * * * * * * * * * * * * * * * * * * * * * * * * * * * * * //

dimensions      [1 0 -1 0 0 0 0];
oriented        oriented;


internalField   nonuniform List<scalar> 
97428
(
-8.57867e-10
3.18455e-09
-1.58787e-07
-4.90217e-10
3.08802e-09
-1.56162e-07
-9.34566e-11
2.86725e-09
-1.58689e-07
2.90284e-10
2.71881e-09
-1.59546e-07
7.79246e-10
2.88288e-09
-1.59813e-07
8.80365e-10
3.18522e-09
-1.60738e-07
2.96224e-10
3.22361e-09
-1.61804e-07
-3.83249e-10
3.15548e-09
-1.62766e-07
-6.33435e-10
2.95083e-09
-1.59159e-07
-5.86708e-10
2.68027e-09
-1.55072e-07
-5.51288e-10
2.74276e-09
-1.55004e-07
2.883e-09
-1.56848e-07
-2.63487e-09
1.23454e-08
-5.03114e-07
-1.46726e-09
1.19217e-08
-4.95101e-07
-2.88667e-10
1.11096e-08
-5.02536e-07
8.17069e-10
1.05477e-08
-5.05181e-07
2.38222e-09
1.10551e-08
-5.06183e-07
2.84016e-09
1.21942e-08
-5.09016e-07
1.06782e-09
1.25254e-08
-5.12075e-07
-9.99903e-10
1.23017e-08
-5.14913e-07
-1.75287e-09
1.15318e-08
-5.04099e-07
-1.69048e-09
1.05823e-08
-4.91709e-07
-1.70104e-09
1.0885e-08
-4.91501e-07
1.13954e-08
-4.9727e-07
-4.51563e-09
2.74053e-08
-8.79993e-07
-2.472e-09
2.64141e-08
-8.6641e-07
-4.87732e-10
2.46865e-08
-8.78595e-07
1.34268e-09
2.34629e-08
-8.83126e-07
4.09458e-09
2.43851e-08
-8.85173e-07
5.02272e-09
2.68424e-08
-8.89951e-07
2.00383e-09
2.78233e-08
-8.9467e-07
-1.53612e-09
2.73959e-08
-8.99304e-07
-2.80839e-09
2.57329e-08
-8.813e-07
-2.76495e-09
2.37768e-08
-8.60382e-07
-2.89489e-09
2.45249e-08
-8.60022e-07
2.55869e-08
-8.70103e-07
-6.51572e-09
4.83342e-08
-1.28912e-06
-3.5193e-09
4.65462e-08
-1.26985e-06
-6.86429e-10
4.36153e-08
-1.28651e-06
1.89947e-09
4.14927e-08
-1.29302e-06
5.94683e-09
4.28145e-08
-1.29652e-06
7.42413e-09
4.70234e-08
-1.30321e-06
3.07633e-09
4.90738e-08
-1.30903e-06
-2.04739e-09
4.84331e-08
-1.31531e-06
-3.85417e-09
4.55793e-08
-1.2903e-06
-3.82199e-09
4.23469e-08
-1.2607e-06
-4.10307e-09
4.37536e-08
-1.26017e-06
4.54953e-08
-1.27503e-06
-8.65581e-09
7.5073e-08
-1.72984e-06
-4.62487e-09
7.22789e-08
-1.70487e-06
-8.83821e-10
6.78921e-08
-1.72562e-06
2.50915e-09
6.46424e-08
-1.73416e-06
7.96238e-09
6.62691e-08
-1.7396e-06
1.0047e-08
7.26168e-08
-1.74811e-06
4.25739e-09
7.62149e-08
-1.75424e-06
-2.5864e-09
7.53855e-08
-1.76197e-06
-4.93451e-09
7.10689e-08
-1.73031e-06
-4.86515e-09
6.63389e-08
-1.69197e-06
-5.29103e-09
6.86116e-08
-1.69124e-06
7.11012e-08
-1.71141e-06
-1.09583e-08
1.07534e-07
-2.20117e-06
-5.80891e-09
1.03555e-07
-2.17058e-06
-1.08422e-09
9.74918e-08
-2.19494e-06
3.18968e-09
9.28902e-08
-2.20556e-06
1.01612e-08
9.46543e-08
-2.21348e-06
1.28916e-08
1.03489e-07
-2.22361e-06
5.52137e-09
1.09172e-07
-2.22907e-06
-3.2e-09
1.08209e-07
-2.23801e-06
-6.08725e-09
1.02172e-07
-2.20025e-06
-5.89119e-09
9.57608e-08
-2.1532e-06
-6.41887e-09
9.90904e-08
-2.15225e-06
1.02332e-07
-2.17829e-06
-1.34459e-08
1.45604e-07
-2.70175e-06
-7.09506e-09
1.40304e-07
-2.66577e-06
-1.29686e-09
1.32371e-07
-2.69318e-06
3.95449e-09
1.26187e-07
-2.70586e-06
1.25584e-08
1.27855e-07
-2.71682e-06
1.5955e-08
1.39499e-07
-2.72832e-06
6.84554e-09
1.47868e-07
-2.73196e-06
-3.9275e-09
1.46849e-07
-2.74182e-06
-7.34252e-09
1.38833e-07
-2.69869e-06
-6.89053e-09
1.30585e-07
-2.64312e-06
-7.44319e-09
1.3514e-07
-2.64189e-06
1.39071e-07
-2.67433e-06
-1.61401e-08
1.89157e-07
-3.22986e-06
-8.5091e-09
1.82447e-07
-3.1889e-06
-1.53546e-09
1.72473e-07
-3.21874e-06
4.81168e-09
1.64459e-07
-3.23342e-06
1.51622e-08
1.65739e-07
-3.24794e-06
1.92292e-08
1.80507e-07
-3.26046e-06
8.20998e-09
1.92233e-07
-3.26102e-06
-4.79968e-09
1.91256e-07
-3.2715e-06
-8.72228e-09
1.80983e-07
-3.2239e-06
-7.84833e-09
1.70758e-07
-3.16012e-06
-8.31911e-09
1.76681e-07
-3.15855e-06
1.81177e-07
-3.19784e-06
-1.90597e-08
2.38054e-07
-3.78352e-06
-1.00779e-08
2.29904e-07
-3.73818e-06
-1.81789e-09
2.17734e-07
-3.76983e-06
5.76325e-09
2.07616e-07
-3.78634e-06
1.79725e-08
2.08169e-07
-3.80489e-06
2.27005e-08
2.2638e-07
-3.81804e-06
9.59729e-09
2.42215e-07
-3.8142e-06
-5.83827e-09
2.41385e-07
-3.82496e-06
-1.02402e-08
2.28541e-07
-3.77392e-06
-8.74592e-09
2.16208e-07
-3.70242e-06
-9.00247e-09
2.23618e-07
-3.70042e-06
2.28492e-07
-3.74689e-06
-2.22197e-08
2.92155e-07
-4.36068e-06
-1.18284e-08
2.82596e-07
-4.31173e-06
-2.16563e-09
2.68083e-07
-4.34457e-06
6.80481e-09
2.55555e-07
-4.36268e-06
2.098e-08
2.55e-07
-4.38567e-06
2.6348e-08
2.77e-07
-4.39899e-06
1.09921e-08
2.97775e-07
-4.38938e-06
-7.0561e-09
2.97202e-07
-4.4001e-06
-1.19023e-08
2.8142e-07
-4.34676e-06
-9.56251e-09
2.66852e-07
-4.26818e-06
-9.45181e-09
2.75845e-07
-4.26564e-06
2.80863e-07
-4.31945e-06
-2.56308e-08
3.51318e-07
-4.95936e-06
-1.37869e-08
3.40436e-07
-4.90778e-06
-2.60332e-09
3.23436e-07
-4.94124e-06
7.92555e-09
3.0816e-07
-4.96063e-06
2.41662e-08
3.06087e-07
-4.98836e-06
3.01437e-08
3.32248e-07
-5.00137e-06
1.23806e-08
3.58881e-07
-4.98464e-06
-8.45747e-09
3.58675e-07
-4.99494e-06
-1.37077e-08
3.39533e-07
-4.94055e-06
-1.02767e-08
3.22604e-07
-4.85571e-06
-9.62999e-09
3.33258e-07
-4.85249e-06
3.38135e-07
-4.91359e-06
-2.92988e-08
4.15392e-07
-5.57785e-06
-1.59789e-08
4.03321e-07
-5.52477e-06
-3.15827e-09
3.83694e-07
-5.55835e-06
9.10859e-09
3.65301e-07
-5.57866e-06
2.75031e-08
3.61275e-07
-5.61136e-06
3.40521e-08
3.92003e-07
-5.62353e-06
1.37501e-08
4.25495e-07
-5.59829e-06
-1.00389e-08
4.25772e-07
-5.60779e-06
-1.56497e-08
4.02787e-07
-5.55368e-06
-1.0868e-08
3.83366e-07
-5.46356e-06
-9.50506e-09
3.95741e-07
-5.45949e-06
4.00158e-07
-5.52766e-06
-3.3225e-08
4.84218e-07
-6.21495e-06
-1.84286e-08
4.7113e-07
-6.16165e-06
-3.86016e-09
4.48735e-07
-6.19492e-06
1.03317e-08
4.26839e-07
-6.21576e-06
3.09544e-08
4.20405e-07
-6.2536e-06
3.8031e-08
4.56122e-07
-6.26434e-06
1.50884e-08
4.97557e-07
-6.22915e-06
-1.17901e-08
4.98443e-07
-6.23742e-06
-1.7717e-08
4.71084e-07
-6.18503e-06
-1.13175e-08
4.49043e-07
-6.09081e-06
-9.05067e-09
4.63175e-07
-6.08565e-06
4.66777e-07
-6.16049e-06
-3.74062e-08
5.5759e-07
-6.86997e-06
-2.11597e-08
5.4367e-07
-6.81782e-06
-4.74079e-09
5.18369e-07
-6.85045e-06
1.15679e-08
4.92577e-07
-6.87144e-06
3.44757e-08
4.83258e-07
-6.91452e-06
4.20308e-08
5.24397e-07
-6.92314e-06
1.63834e-08
5.74946e-07
-6.87649e-06
-1.36949e-08
5.76592e-07
-6.88311e-06
-1.98944e-08
5.44287e-07
-6.83399e-06
-1.1609e-08
5.1949e-07
-6.73703e-06
-8.24556e-09
5.3539e-07
-6.73054e-06
5.37786e-07
-6.81145e-06
-4.18298e-08
6.35255e-07
-7.54212e-06
-2.41918e-08
6.2066e-07
-7.49256e-06
-5.83286e-09
5.92321e-07
-7.52435e-06
1.27845e-08
5.62258e-07
-7.54516e-06
3.80113e-08
5.49555e-07
-7.59345e-06
4.59908e-08
5.96551e-07
-7.59919e-06
1.76215e-08
6.57483e-07
-7.53966e-06
-1.57296e-08
6.60086e-07
-7.54419e-06
-2.21616e-08
6.22218e-07
-7.49998e-06
-1.17289e-08
5.94499e-07
-7.40184e-06
-7.0741e-09
6.12146e-07
-7.39372e-06
6.12929e-07
-7.47985e-06
-4.6473e-08
7.16963e-07
-8.23057e-06
-2.7539e-08
7.0179e-07
-8.18498e-06
-7.16856e-09
6.70287e-07
-8.21587e-06
1.3944e-08
6.35603e-07
-8.23628e-06
4.14944e-08
6.19e-07
-8.28964e-06
4.9839e-08
6.72286e-07
-8.29167e-06
1.87873e-08
7.44975e-07
-8.2179e-06
-1.78633e-08
7.48794e-07
-8.21991e-06
-2.44931e-08
7.04698e-07
-8.1823e-06
-1.16671e-08
6.73839e-07
-8.08467e-06
-5.52714e-09
6.9318e-07
-8.07456e-06
6.91943e-07
-8.16488e-06
-5.13036e-08
8.02474e-07
-8.93459e-06
-3.12104e-08
7.86728e-07
-8.89427e-06
-8.77887e-09
7.51936e-07
-8.92434e-06
1.50058e-08
7.12319e-07
-8.94424e-06
4.48499e-08
6.91284e-07
-9.0024e-06
5.34946e-08
7.5129e-07
-8.99983e-06
1.98637e-08
8.3722e-07
-8.91059e-06
-2.00584e-08
8.42595e-07
-8.90969e-06
-2.6859e-08
7.91554e-07
-8.88037e-06
-1.14175e-08
7.57256e-07
-8.78501e-06
-3.60181e-09
7.78208e-07
-8.77252e-06
7.74565e-07
-8.86584e-06
-5.62799e-08
8.91563e-07
-9.65355e-06
-3.52084e-08
8.75134e-07
-9.61966e-06
-1.06921e-08
8.36927e-07
-9.64914e-06
1.59268e-08
7.92097e-07
-9.66854e-06
4.79958e-08
7.66091e-07
-9.73111e-06
5.68689e-08
8.33247e-07
-9.72303e-06
2.08321e-08
9.34011e-07
-9.61726e-06
-2.22719e-08
9.41374e-07
-9.6131e-06
-2.92259e-08
8.82614e-07
-9.59372e-06
-1.09788e-08
8.44472e-07
-9.50242e-06
-1.30137e-09
8.66922e-07
-9.48711e-06
8.60536e-07
-9.58213e-06
-6.13502e-08
9.84023e-07
-1.03869e-05
-3.95281e-08
9.66674e-07
-1.03604e-05
-1.29322e-08
9.2491e-07
-1.03897e-05
1.66633e-08
8.74616e-07
-1.04087e-05
5.08444e-08
8.43099e-07
-1.04752e-05
5.98668e-08
9.17843e-07
-1.04607e-05
2.16725e-08
1.03514e-06
-1.03375e-05
-2.44551e-08
1.04503e-06
-1.03298e-05
-3.15569e-08
9.77708e-07
-1.03219e-05
-1.03546e-08
9.35183e-07
-1.02364e-05
1.36483e-09
9.58997e-07
-1.02179e-05
9.49595e-07
-1.03132e-05
-6.64525e-08
1.07966e-06
-1.11342e-05
-4.41553e-08
1.06102e-06
-1.11159e-05
-1.55172e-08
1.01554e-06
-1.11454e-05
1.71725e-08
9.59539e-07
-1.11644e-05
5.33054e-08
9.2199e-07
-1.1234e-05
6.23889e-08
1.00478e-06
-1.12123e-05
2.23634e-08
1.14039e-06
-1.10712e-05
-2.65551e-08
1.15345e-06
-1.10596e-05
-3.38126e-08
1.07666e-06
-1.10646e-05
-9.55326e-09
1.02906e-06
-1.09866e-05
4.38246e-09
1.05409e-06
-1.09644e-05
1.04149e-06
-1.10586e-05
-7.1515e-08
1.1783e-06
-1.18949e-05
-4.90652e-08
1.15788e-06
-1.18853e-05
-1.84565e-08
1.10847e-06
-1.19156e-05
1.74144e-08
1.04652e-06
-1.19349e-05
5.5288e-08
1.00245e-06
-1.20071e-05
6.43339e-08
1.09376e-06
-1.19772e-05
2.28823e-08
1.24954e-06
-1.18179e-05
-2.8516e-08
1.26652e-06
-1.18023e-05
-3.59508e-08
1.17928e-06
-1.18213e-05
-8.58811e-09
1.12575e-06
-1.17524e-05
7.73113e-09
1.15183e-06
-1.17261e-05
1.13596e-06
-1.18178e-05
-7.64563e-08
1.27975e-06
-1.26684e-05
-5.42206e-08
1.25697e-06
-1.2668e-05
-2.17488e-08
1.20337e-06
-1.26998e-05
1.73539e-08
1.13518e-06
-1.27198e-05
5.67039e-08
1.08419e-06
-1.27935e-05
6.56017e-08
1.18451e-06
-1.2755e-05
2.32055e-08
1.36233e-06
-1.25776e-05
-3.02799e-08
1.38409e-06
-1.25578e-05
-3.79283e-08
1.28537e-06
-1.25916e-05
-7.47692e-09
1.22488e-06
-1.25332e-05
1.13865e-08
1.25184e-06
-1.25026e-05
1.23274e-06
-1.25904e-05
-8.1186e-08
1.38385e-06
-1.34542e-05
-5.95697e-08
1.35804e-06
-1.34631e-05
-2.53796e-08
1.29993e-06
-1.34972e-05
1.69633e-08
1.22517e-06
-1.35183e-05
5.74718e-08
1.16692e-06
-1.35926e-05
6.60973e-08
1.27679e-06
-1.35451e-05
2.3309e-08
1.47848e-06
-1.33499e-05
-3.17895e-08
1.50597e-06
-1.33257e-05
-3.97012e-08
1.39468e-06
-1.33749e-05
-6.24138e-09
1.32604e-06
-1.33282e-05
1.53202e-08
1.35372e-06
-1.32931e-05
1.33156e-06
-1.33757e-05
-8.56067e-08
1.49042e-06
-1.42514e-05
-6.5045e-08
1.46088e-06
-1.42699e-05
-2.93185e-08
1.39783e-06
-1.43068e-05
1.62242e-08
1.31608e-06
-1.43295e-05
5.75207e-08
1.2504e-06
-1.44034e-05
6.5735e-08
1.37034e-06
-1.43466e-05
2.3169e-08
1.59765e-06
-1.41345e-05
-3.29905e-08
1.6319e-06
-1.41058e-05
-4.12264e-08
1.50698e-06
-1.41705e-05
-4.90625e-09
1.42882e-06
-1.41366e-05
1.95012e-08
1.45704e-06
-1.40969e-05
1.4321e-06
-1.41732e-05
-8.96159e-08
1.59925e-06
-1.50593e-05
-7.05618e-08
1.56528e-06
-1.50871e-05
-3.35169e-08
1.49678e-06
-1.51277e-05
1.51302e-08
1.40755e-06
-1.51524e-05
5.67945e-08
1.33441e-06
-1.52248e-05
6.44437e-08
1.46494e-06
-1.51586e-05
2.27621e-08
1.71945e-06
-1.4931e-05
-3.38346e-08
1.76156e-06
-1.48976e-05
-4.24634e-08
1.62197e-06
-1.49776e-05
-3.49806e-09
1.53279e-06
-1.49572e-05
2.38962e-08
1.56135e-06
-1.49131e-05
1.53405e-06
-1.49821e-05
-9.31089e-08
1.71015e-06
-1.58768e-05
-7.60177e-08
1.67107e-06
-1.59138e-05
-3.79067e-08
1.59647e-06
-1.59587e-05
1.36888e-08
1.49918e-06
-1.59857e-05
5.52561e-08
1.41876e-06
-1.60556e-05
6.21715e-08
1.56036e-06
-1.59803e-05
2.20666e-08
1.84339e-06
-1.57386e-05
-3.42829e-08
1.89453e-06
-1.57005e-05
-4.33759e-08
1.73933e-06
-1.57952e-05
-2.04347e-09
1.63754e-06
-1.57888e-05
2.84719e-08
1.66617e-06
-1.57406e-05
1.637e-06
-1.58014e-05
-9.59824e-08
1.82288e-06
-1.67028e-05
-8.12932e-08
1.77806e-06
-1.67487e-05
-4.23997e-08
1.69663e-06
-1.67985e-05
1.19222e-08
1.5906e-06
-1.6828e-05
5.28913e-08
1.50329e-06
-1.68943e-05
5.889e-08
1.65639e-06
-1.68103e-05
2.10628e-08
1.96895e-06
-1.65566e-05
-3.43093e-08
2.03029e-06
-1.65138e-05
-4.39338e-08
1.85871e-06
-1.66222e-05
-5.61442e-10
1.74262e-06
-1.663e-05
3.31958e-08
1.771e-06
-1.65781e-05
1.74054e-06
-1.66301e-05
-9.81381e-08
1.93716e-06
-1.75361e-05
-8.62534e-08
1.88605e-06
-1.75904e-05
-4.68878e-08
1.79693e-06
-1.76456e-05
9.86837e-09
1.68143e-06
-1.76779e-05
4.97104e-08
1.58787e-06
-1.77396e-05
5.45982e-08
1.75282e-06
-1.76475e-05
1.97339e-08
2.0955e-06
-1.7384e-05
-3.39032e-08
2.16823e-06
-1.73365e-05
-4.41145e-08
1.97972e-06
-1.74572e-05
9.06732e-10
1.84762e-06
-1.74792e-05
3.80386e-08
1.87529e-06
-1.74244e-05
1.84414e-06
-1.74671e-05
-9.94857e-08
2.05266e-06
-1.83753e-05
-9.07504e-08
1.9948e-06
-1.84377e-05
-5.12451e-08
1.89706e-06
-1.84986e-05
7.5803e-09
1.77128e-06
-1.85337e-05
4.57499e-08
1.67238e-06
-1.85899e-05
4.9324e-08
1.84942e-06
-1.84905e-05
1.80662e-08
2.22234e-06
-1.82196e-05
-3.30723e-08
2.30765e-06
-1.81676e-05
-4.39046e-08
2.10191e-06
-1.82991e-05
2.36476e-09
1.95208e-06
-1.8335e-05
4.29754e-08
1.97843e-06
-1.82779e-05
1.9472e-06
-1.83111e-05
-9.99458e-08
2.16893e-06
-1.92193e-05
-9.46261e-08
2.10396e-06
-1.92891e-05
-5.53308e-08
1.99661e-06
-1.9356e-05
5.12442e-09
1.85976e-06
-1.9394e-05
4.10707e-08
1.75665e-06
-1.94439e-05
4.31239e-08
1.94593e-06
-1.9338e-05
1.60494e-08
2.34873e-06
-1.90624e-05
-3.18434e-08
2.44773e-06
-1.9006e-05
-4.33e-08
2.22474e-06
-1.91465e-05
3.79996e-09
2.05549e-06
-1.91958e-05
4.79877e-08
2.07973e-06
-1.91373e-05
2.049e-06
-1.9161e-05
-9.94509e-08
2.28541e-06
-2.00669e-05
-9.77157e-08
2.21304e-06
-2.01436e-05
-5.89913e-08
2.09508e-06
-2.02165e-05
2.57845e-09
1.94639e-06
-2.02573e-05
3.5757e-08
1.84044e-06
-2.03e-05
3.60815e-08
2.04204e-06
-2.01888e-05
1.36762e-08
2.47385e-06
-1.99111e-05
-3.02628e-08
2.58756e-06
-1.98507e-05
-4.23061e-08
2.34758e-06
-1.99983e-05
5.21454e-09
2.15725e-06
-2.00604e-05
5.3064e-08
2.17842e-06
-2.00014e-05
2.14871e-06
-2.00156e-05
-9.79466e-08
2.40138e-06
-2.0917e-05
-9.98497e-08
2.3214e-06
-2.09998e-05
-6.2063e-08
2.19188e-06
-2.10785e-05
7.83172e-13
2.03067e-06
-2.11219e-05
2.99148e-08
1.92346e-06
-2.11569e-05
2.83056e-08
2.1374e-06
-2.10415e-05
1.09423e-08
2.59684e-06
-2.07646e-05
-2.83951e-08
2.72612e-06
-2.07005e-05
-4.09369e-08
2.46966e-06
-2.08531e-05
6.62159e-09
2.25662e-06
-2.09273e-05
5.81991e-08
2.27355e-06
-2.08686e-05
2.24537e-06
-2.08737e-05
-9.5394e-08
2.51601e-06
-2.17682e-05
-1.00859e-07
2.42832e-06
-2.18562e-05
-6.43759e-08
2.28633e-06
-2.19404e-05
-2.4019e-09
2.11196e-06
-2.19861e-05
2.3671e-08
2.00551e-06
-2.20129e-05
1.9928e-08
2.23166e-06
-2.18947e-05
7.84649e-09
2.71677e-06
-2.16215e-05
-2.63224e-08
2.86231e-06
-2.15541e-05
-3.92155e-08
2.59009e-06
-2.17097e-05
8.04529e-09
2.35273e-06
-2.17946e-05
6.33929e-08
2.36409e-06
-2.17374e-05
2.33791e-06
-2.17337e-05
-9.17703e-08
2.62834e-06
-2.26192e-05
-1.00582e-07
2.53293e-06
-2.27115e-05
-6.57608e-08
2.37773e-06
-2.28005e-05
-4.63001e-09
2.18973e-06
-2.2848e-05
1.71688e-08
2.08625e-06
-2.28665e-05
1.11009e-08
2.32446e-06
-2.2747e-05
4.39135e-09
2.83272e-06
-2.24806e-05
-2.41426e-08
2.99494e-06
-2.24104e-05
-3.71734e-08
2.70785e-06
-2.25665e-05
9.52126e-09
2.44461e-06
-2.26608e-05
6.8651e-08
2.44892e-06
-2.26058e-05
2.42523e-06
-2.25941e-05
-8.70688e-08
2.7373e-06
-2.34686e-05
-9.8871e-08
2.63429e-06
-2.35641e-05
-6.60548e-08
2.46533e-06
-2.3657e-05
-6.54021e-09
2.26344e-06
-2.37058e-05
1.05635e-08
2.16543e-06
-2.37159e-05
1.99285e-09
2.41544e-06
-2.35968e-05
5.83249e-10
2.94377e-06
-2.334e-05
-2.19663e-08
3.12278e-06
-2.32678e-05
-3.48497e-08
2.82185e-06
-2.34219e-05
1.10959e-08
2.53124e-06
-2.35239e-05
7.39843e-08
2.52686e-06
-2.34721e-05
2.50614e-06
-2.34532e-05
-8.12984e-08
2.84172e-06
-2.43151e-05
-9.55978e-08
2.73135e-06
-2.44125e-05
-6.5108e-08
2.54837e-06
-2.45082e-05
-8.02055e-09
2.33261e-06
-2.45576e-05
4.01804e-09
2.2428e-06
-2.45598e-05
-7.21723e-09
2.50428e-06
-2.44428e-05
-3.56756e-09
3.04901e-06
-2.41982e-05
-1.99128e-08
3.24455e-06
-2.41246e-05
-3.229e-08
2.9309e-06
-2.42745e-05
1.28245e-08
2.61151e-06
-2.43822e-05
7.94069e-08
2.59669e-06
-2.43344e-05
2.57947e-06
-2.43093e-05
-7.44828e-08
2.94034e-06
-2.51572e-05
-9.06624e-08
2.82302e-06
-2.52555e-05
-6.27907e-08
2.6261e-06
-2.53525e-05
-8.96208e-09
2.39681e-06
-2.54017e-05
-2.30511e-09
2.31816e-06
-2.53966e-05
-1.63682e-08
2.59067e-06
-2.52833e-05
-8.04719e-09
3.14756e-06
-2.50534e-05
-1.81048e-08
3.35896e-06
-2.49792e-05
-2.95445e-08
3.03373e-06
-2.51226e-05
1.47684e-08
2.68429e-06
-2.52339e-05
8.49352e-08
2.65722e-06
-2.51907e-05
2.64406e-06
-2.51606e-05
-6.66592e-08
3.03183e-06
-2.59935e-05
-8.39986e-08
2.90815e-06
-2.60914e-05
-5.89995e-08
2.6978e-06
-2.61882e-05
-9.26134e-09
2.45573e-06
-2.62364e-05
-8.23344e-09
2.39135e-06
-2.6225e-05
-2.52671e-08
2.67434e-06
-2.6117e-05
-1.28375e-08
3.23864e-06
-2.59037e-05
-1.66627e-08
3.46475e-06
-2.58297e-05
-2.66672e-08
3.12903e-06
-2.59646e-05
1.69907e-08
2.74844e-06
-2.60773e-05
9.05845e-08
2.7073e-06
-2.60391e-05
2.69879e-06
-2.60052e-05
-5.78771e-08
3.11484e-06
-2.68228e-05
-7.55805e-08
2.98555e-06
-2.69192e-05
-5.36635e-08
2.76279e-06
-2.7014e-05
-8.82322e-09
2.50915e-06
-2.70603e-05
-1.36185e-08
2.46229e-06
-2.70438e-05
-3.37528e-08
2.75509e-06
-2.69427e-05
-1.79155e-08
3.32155e-06
-2.67475e-05
-1.5699e-08
3.56066e-06
-2.66744e-05
-2.3714e-08
3.21548e-06
-2.67991e-05
1.9551e-08
2.80288e-06
-2.69109e-05
9.63658e-08
2.74585e-06
-2.68778e-05
2.74268e-06
-2.68413e-05
-4.8197e-08
3.18801e-06
-2.76438e-05
-6.54266e-08
3.05405e-06
-2.77374e-05
-4.67493e-08
2.82047e-06
-2.78287e-05
-7.56383e-09
2.55698e-06
-2.78722e-05
-1.83159e-08
2.53094e-06
-2.78519e-05
-4.16749e-08
2.83273e-06
-2.7759e-05
-2.32546e-08
3.3957e-06
-2.75829e-05
-1.53119e-08
3.64553e-06
-2.75115e-05
-2.07424e-08
3.29175e-06
-2.76245e-05
2.2499e-08
2.84654e-06
-2.77331e-05
1.02282e-07
2.77196e-06
-2.77052e-05
2.77485e-06
-2.76674e-05
-3.76903e-08
3.25001e-06
-2.84554e-05
-5.36032e-08
3.11253e-06
-2.85452e-05
-3.82646e-08
2.87032e-06
-2.86312e-05
-5.41367e-09
2.59926e-06
-2.86712e-05
-2.21969e-08
2.5973e-06
-2.86486e-05
-4.89044e-08
2.90716e-06
-2.8565e-05
-2.88211e-08
3.46068e-06
-2.84083e-05
-1.55802e-08
3.71833e-06
-2.83394e-05
-1.78096e-08
3.35656e-06
-2.84396e-05
2.58679e-08
2.87848e-06
-2.85429e-05
1.08324e-07
2.78485e-06
-2.85199e-05
2.79466e-06
-2.8482e-05
-2.64396e-08
3.29958e-06
-2.92567e-05
-4.02265e-08
3.15991e-06
-2.93417e-05
-2.82605e-08
2.91191e-06
-2.94208e-05
-2.32045e-09
2.63614e-06
-2.94567e-05
-2.51509e-08
2.66143e-06
-2.94333e-05
-5.53335e-08
2.97833e-06
-2.93599e-05
-3.45759e-08
3.51624e-06
-2.92225e-05
-1.65575e-08
3.77813e-06
-2.91565e-05
-1.49738e-08
3.40872e-06
-2.92433e-05
2.96678e-08
2.89787e-06
-2.93394e-05
1.14464e-07
2.78399e-06
-2.93208e-05
2.80163e-06
-2.92838e-05
-1.45386e-08
3.33561e-06
-3.00468e-05
-2.54622e-08
3.19522e-06
-3.01262e-05
-1.68335e-08
2.9449e-06
-3.01973e-05
1.73895e-09
2.66786e-06
-3.02285e-05
-2.70873e-08
2.72339e-06
-3.02059e-05
-6.0876e-08
3.04625e-06
-3.01432e-05
-4.04715e-08
3.56232e-06
-3.00244e-05
-1.82759e-08
3.82425e-06
-2.99617e-05
-1.22927e-08
3.44715e-06
-3.00347e-05
3.38799e-08
2.90403e-06
-3.01221e-05
1.20655e-07
2.76906e-06
-3.01072e-05
2.79559e-06
-3.00721e-05
-2.09507e-09
3.3571e-06
-3.08253e-05
-9.522e-09
3.21766e-06
-3.08986e-05
-4.12247e-09
2.96903e-06
-3.09607e-05
6.81667e-09
2.6947e-06
-3.09869e-05
-2.7938e-08
2.78327e-06
-3.09664e-05
-6.54684e-08
3.11097e-06
-3.09147e-05
-4.64519e-08
3.5991e-06
-3.08133e-05
-2.0734e-08
3.85618e-06
-3.0754e-05
-9.82809e-09
3.47094e-06
-3.08134e-05
3.84528e-08
2.89642e-06
-3.08907e-05
1.26827e-07
2.73998e-06
-3.08788e-05
2.77659e-06
-3.08464e-05
1.07672e-08
3.3633e-06
-3.15921e-05
7.34057e-09
3.22655e-06
-3.16586e-05
9.69121e-09
2.98415e-06
-3.17112e-05
1.28671e-08
2.71696e-06
-3.17323e-05
-2.76594e-08
2.84113e-06
-3.17153e-05
-6.90693e-08
3.1726e-06
-3.16743e-05
-5.24485e-08
3.62694e-06
-3.15888e-05
-2.39019e-08
3.87368e-06
-3.15329e-05
-7.63145e-09
3.47933e-06
-3.15791e-05
4.33014e-08
2.87468e-06
-3.16454e-05
1.32885e-07
2.69689e-06
-3.16357e-05
2.74494e-06
-3.16066e-05
2.39073e-08
3.35365e-06
-3.2347e-05
2.48317e-08
3.22144e-06
-3.24067e-05
2.43858e-08
2.99013e-06
-3.24495e-05
1.98537e-08
2.73493e-06
-3.24657e-05
-2.62345e-08
2.89696e-06
-3.2453e-05
-7.16569e-08
3.23126e-06
-3.24225e-05
-5.83812e-08
3.64637e-06
-3.23511e-05
-2.77163e-08
3.87675e-06
-3.22983e-05
-5.75418e-09
3.47181e-06
-3.23319e-05
4.83091e-08
2.83859e-06
-3.23868e-05
1.38709e-07
2.64018e-06
-3.23785e-05
2.7012e-06
-3.23531e-05
3.71577e-08
3.32788e-06
-3.30906e-05
4.2625e-08
3.20208e-06
-3.31433e-05
3.96981e-08
2.98691e-06
-3.31765e-05
2.76998e-08
2.74883e-06
-3.31881e-05
-2.36775e-08
2.95072e-06
-3.31805e-05
-7.3227e-08
3.2871e-06
-3.316e-05
-6.4155e-08
3.65807e-06
-3.31005e-05
-3.208e-08
3.86562e-06
-3.30503e-05
-4.238e-09
3.44806e-06
-3.30722e-05
5.33331e-08
2.78811e-06
-3.31155e-05
1.44164e-07
2.57035e-06
-3.31081e-05
2.64611e-06
-3.30867e-05
5.03277e-08
3.28597e-06
-3.38234e-05
6.03649e-08
3.16846e-06
-3.38693e-05
5.53276e-08
2.97452e-06
-3.38935e-05
3.6287e-08
2.7588e-06
-3.3901e-05
-2.00394e-08
3.0023e-06
-3.38989e-05
-7.37946e-08
3.34022e-06
-3.38875e-05
-6.96612e-08
3.66276e-06
-3.38379e-05
-3.68638e-08
3.84071e-06
-3.37898e-05
-3.11121e-09
3.40802e-06
-3.38008e-05
5.82154e-08
2.72344e-06
-3.38329e-05
1.49103e-07
2.48808e-06
-3.38257e-05
2.58059e-06
-3.38086e-05
6.32066e-08
3.22826e-06
-3.45465e-05
7.76865e-08
3.12098e-06
-3.45859e-05
7.09518e-08
2.95323e-06
-3.46021e-05
4.54569e-08
2.76508e-06
-3.46061e-05
-1.54123e-08
3.05167e-06
-3.46098e-05
-7.33976e-08
3.3908e-06
-3.46064e-05
-7.47827e-08
3.66126e-06
-3.45646e-05
-4.19107e-08
3.80276e-06
-3.45178e-05
-2.3827e-09
3.35216e-06
-3.45191e-05
6.27979e-08
2.64532e-06
-3.45408e-05
1.53388e-07
2.39452e-06
-3.45333e-05
2.50569e-06
-3.45202e-05
7.56026e-08
3.1556e-06
-3.52616e-05
9.42757e-08
3.06041e-06
-3.52952e-05
8.62692e-08
2.92357e-06
-3.53044e-05
5.5032e-08
2.7681e-06
-3.53058e-05
-9.91991e-09
3.09893e-06
-3.5315e-05
-7.20969e-08
3.43919e-06
-3.53185e-05
-7.94021e-08
3.65477e-06
-3.52825e-05
-4.70462e-08
3.75309e-06
-3.52363e-05
-2.04207e-09
3.28139e-06
-3.52291e-05
6.6938e-08
2.55472e-06
-3.52414e-05
1.56903e-07
2.29121e-06
-3.52334e-05
2.42292e-06
-3.52241e-05
8.73629e-08
3.06909e-06
-3.59709e-05
1.09899e-07
2.98765e-06
-3.59993e-05
1.01055e-07
2.88604e-06
-3.6003e-05
6.48622e-08
2.76811e-06
-3.60024e-05
-3.67435e-09
3.14403e-06
-3.60169e-05
-6.995e-08
3.48568e-06
-3.60261e-05
-8.34183e-08
3.64451e-06
-3.59941e-05
-5.21078e-08
3.69312e-06
-3.59477e-05
-2.06445e-09
3.19672e-06
-3.59332e-05
7.0523e-08
2.45257e-06
-3.59372e-05
1.59563e-07
2.17958e-06
-3.59286e-05
2.33388e-06
-3.59229e-05
9.83338e-08
2.96983e-06
-3.66765e-05
1.24348e-07
2.90367e-06
-3.67004e-05
1.15104e-07
2.84103e-06
-3.66999e-05
7.47884e-08
2.76511e-06
-3.66984e-05
3.20267e-09
3.18678e-06
-3.67176e-05
-6.70097e-08
3.53033e-06
-3.67314e-05
-8.67359e-08
3.63142e-06
-3.67018e-05
-5.69345e-08
3.62414e-06
-3.66544e-05
-2.39972e-09
3.0993e-06
-3.66335e-05
7.34799e-08
2.33992e-06
-3.66306e-05
1.61313e-07
2.06092e-06
-3.66216e-05
2.23992e-06
-3.66193e-05
1.08369e-07
2.85911e-06
-3.73805e-05
1.37434e-07
2.80953e-06
-3.74006e-05
1.28207e-07
2.78895e-06
-3.73974e-05
8.46193e-08
2.75904e-06
-3.73957e-05
1.05421e-08
3.22693e-06
-3.7419e-05
-6.33475e-08
3.57315e-06
-3.74363e-05
-8.92664e-08
3.61624e-06
-3.7408e-05
-6.13641e-08
3.54748e-06
-3.7359e-05
-2.97527e-09
2.9904e-06
-3.73323e-05
7.57731e-08
2.21788e-06
-3.73237e-05
1.62131e-07
1.93649e-06
-3.73147e-05
2.14235e-06
-3.73157e-05
1.17355e-07
2.73825e-06
-3.80852e-05
1.49022e-07
2.70635e-06
-3.81021e-05
1.40188e-07
2.73019e-06
-3.80974e-05
9.41682e-08
2.74974e-06
-3.80963e-05
1.81845e-08
3.26417e-06
-3.8123e-05
-5.90415e-08
3.61405e-06
-3.81429e-05
-9.09444e-08
3.59954e-06
-3.81149e-05
-6.52533e-08
3.46436e-06
-3.80637e-05
-3.70644e-09
2.87136e-06
-3.80321e-05
7.7405e-08
2.08761e-06
-3.80189e-05
1.62032e-07
1.80746e-06
-3.80102e-05
2.04236e-06
-3.80144e-05
1.25206e-07
2.6086e-06
-3.87925e-05
1.59021e-07
2.59523e-06
-3.88068e-05
1.50905e-07
2.66514e-06
-3.88017e-05
1.03257e-07
2.73702e-06
-3.88018e-05
2.59663e-08
3.29819e-06
-3.88315e-05
-5.41752e-08
3.65283e-06
-3.88532e-05
-9.17284e-08
3.58171e-06
-3.88248e-05
-6.84832e-08
3.37593e-06
-3.87709e-05
-4.50042e-09
2.74356e-06
-3.87349e-05
7.84112e-08
1.95025e-06
-3.87181e-05
1.61059e-07
1.67493e-06
-3.87101e-05
1.94096e-06
-3.87173e-05
1.31863e-07
2.47146e-06
-3.95043e-05
1.67378e-07
2.47723e-06
-3.95166e-05
1.6025e-07
2.59415e-06
-3.9512e-05
1.11723e-07
2.72066e-06
-3.95138e-05
3.37289e-08
3.32861e-06
-3.9546e-05
-4.88374e-08
3.68924e-06
-3.95687e-05
-9.16023e-08
3.56293e-06
-3.95395e-05
-7.09604e-08
3.28315e-06
-3.94827e-05
-5.26198e-09
2.60829e-06
-3.94427e-05
7.88536e-08
1.80692e-06
-3.94233e-05
1.59279e-07
1.53986e-06
-3.94162e-05
1.83903e-06
-3.94263e-05
1.3729e-07
2.32805e-06
-4.02223e-05
1.74067e-07
2.35335e-06
-4.0233e-05
1.68139e-07
2.51757e-06
-4.02297e-05
1.19419e-07
2.70041e-06
-4.02337e-05
4.13241e-08
3.35506e-06
-4.02679e-05
-4.31142e-08
3.72294e-06
-4.02912e-05
-9.05698e-08
3.5432e-06
-4.02608e-05
-7.26181e-08
3.18686e-06
-4.02009e-05
-5.89895e-09
2.46678e-06
-4.01573e-05
7.88114e-08
1.6587e-06
-4.01359e-05
1.56771e-07
1.40312e-06
-4.01301e-05
1.73726e-06
-4.01429e-05
1.41466e-07
2.17952e-06
-4.09481e-05
1.79082e-07
2.22452e-06
-4.09576e-05
1.7451e-07
2.43571e-06
-4.0956e-05
1.26215e-07
2.67603e-06
-4.09625e-05
4.86167e-08
3.37712e-06
-4.09985e-05
-3.70909e-08
3.75349e-06
-4.10219e-05
-8.86534e-08
3.5224e-06
-4.09901e-05
-7.34135e-08
3.08767e-06
-4.0927e-05
-6.32572e-09
2.32017e-06
-4.08802e-05
7.83729e-08
1.50656e-06
-4.08574e-05
1.53618e-07
1.26544e-06
-4.0853e-05
1.63623e-06
-4.08684e-05
1.44374e-07
2.02691e-06
-4.16829e-05
1.82421e-07
2.09155e-06
-4.16915e-05
1.79307e-07
2.34887e-06
-4.16921e-05
1.31991e-07
2.64727e-06
-4.17013e-05
5.54835e-08
3.39438e-06
-4.17388e-05
-3.08487e-08
3.78042e-06
-4.1762e-05
-8.58883e-08
3.50024e-06
-4.17287e-05
-7.33233e-08
2.98607e-06
-4.16625e-05
-6.46462e-09
2.16944e-06
-4.16128e-05
7.76295e-08
1.35142e-06
-4.15889e-05
1.49904e-07
1.12751e-06
-4.1586e-05
1.53636e-06
-4.16039e-05
1.45998e-07
1.87116e-06
-4.24277e-05
1.84078e-07
1.95519e-06
-4.24358e-05
1.82478e-07
2.2573e-06
-4.24388e-05
1.36636e-07
2.61387e-06
-4.24509e-05
6.18101e-08
3.40639e-06
-4.24898e-05
-2.44655e-08
3.80319e-06
-4.25127e-05
-8.23177e-08
3.47634e-06
-4.24777e-05
-7.23386e-08
2.88238e-06
-4.24084e-05
-6.24552e-09
2.01547e-06
-4.2356e-05
7.66722e-08
1.19414e-06
-4.23314e-05
1.45705e-07
9.89895e-07
-4.23301e-05
1.43799e-06
-4.23503e-05
1.46312e-07
1.71312e-06
-4.31835e-05
1.84036e-07
1.81612e-06
-4.31914e-05
1.8396e-07
2.16127e-06
-4.3197e-05
1.40037e-07
2.57558e-06
-4.32121e-05
6.74859e-08
3.41266e-06
-4.32522e-05
-1.80183e-08
3.82117e-06
-4.32746e-05
-7.79904e-08
3.45023e-06
-4.3238e-05
-7.04592e-08
2.77681e-06
-4.31658e-05
-5.59477e-09
1.85903e-06
-4.3111e-05
7.55902e-08
1.03547e-06
-4.30858e-05
1.41096e-07
8.53142e-07
-4.30861e-05
1.34136e-06
-4.31084e-05
1.45278e-07
1.55362e-06
-4.39512e-05
1.82259e-07
1.67496e-06
-4.39589e-05
1.83681e-07
2.06102e-06
-4.39673e-05
1.42078e-07
2.53218e-06
-4.39855e-05
7.23987e-08
3.41271e-06
-4.40268e-05
-1.15862e-08
3.83371e-06
-4.40485e-05
-7.29583e-08
3.42134e-06
-4.40103e-05
-6.7691e-08
2.66944e-06
-4.39354e-05
-4.48065e-09
1.70076e-06
-4.38784e-05
7.44713e-08
8.76122e-07
-4.38529e-05
1.36147e-07
7.17738e-07
-4.38545e-05
1.24666e-06
-4.38788e-05
1.42845e-07
1.39339e-06
-4.47313e-05
1.78693e-07
1.53227e-06
-4.47391e-05
1.8155e-07
1.9568e-06
-4.47502e-05
1.42631e-07
2.48344e-06
-4.47716e-05
7.64294e-08
3.406e-06
-4.48141e-05
-5.2547e-09
3.84009e-06
-4.48352e-05
-6.72778e-08
3.38906e-06
-4.47954e-05
-6.40423e-08
2.56024e-06
-4.4718e-05
-2.81713e-09
1.54123e-06
-4.4659e-05
7.34027e-08
7.16738e-07
-4.46331e-05
1.30925e-07
5.84149e-07
-4.46361e-05
1.15404e-06
-4.46621e-05
1.38946e-07
1.23318e-06
-4.55245e-05
1.7327e-07
1.3886e-06
-4.55324e-05
1.77463e-07
1.84885e-06
-4.55464e-05
1.41556e-07
2.42914e-06
-4.5571e-05
7.94481e-08
3.39199e-06
-4.56147e-05
8.85785e-10
3.83954e-06
-4.56351e-05
-6.10091e-08
3.35271e-06
-4.55937e-05
-5.95238e-08
2.44914e-06
-4.55141e-05
-5.56939e-10
1.38087e-06
-4.54534e-05
7.24717e-08
5.57919e-07
-4.54272e-05
1.25497e-07
4.52824e-07
-4.54314e-05
1.06361e-06
-4.54588e-05
1.33507e-07
1.07371e-06
-4.63314e-05
1.65903e-07
1.24448e-06
-4.63396e-05
1.71304e-07
1.73745e-06
-4.63564e-05
1.387e-07
2.36909e-06
-4.63842e-05
8.13117e-08
3.37011e-06
-4.6429e-05
6.72756e-09
3.83124e-06
-4.64488e-05
-5.42187e-08
3.31153e-06
-4.64059e-05
-5.41483e-08
2.33596e-06
-4.63244e-05
2.35585e-09
1.22008e-06
-4.62622e-05
7.17663e-08
4.00215e-07
-4.62357e-05
1.19933e-07
3.24204e-07
-4.62408e-05
9.75454e-07
-4.62693e-05
1.26444e-07
9.15737e-07
-4.71524e-05
1.56501e-07
1.10046e-06
-4.7161e-05
1.62944e-07
1.62289e-06
-4.71807e-05
1.339e-07
2.30314e-06
-4.72117e-05
8.18633e-08
3.33976e-06
-4.72576e-05
1.21544e-08
3.81431e-06
-4.72767e-05
-4.69804e-08
3.26473e-06
-4.72325e-05
-4.79323e-08
2.22044e-06
-4.71492e-05
5.97643e-09
1.05914e-06
-4.70858e-05
7.13754e-08
2.44133e-07
-4.70591e-05
1.14304e-07
1.98723e-07
-4.70648e-05
8.89656e-07
-4.70942e-05
1.17673e-07
7.60014e-07
-4.79882e-05
1.4497e-07
9.57047e-07
-4.79973e-05
1.52255e-07
1.5055e-06
-4.80197e-05
1.26985e-07
2.23116e-06
-4.80539e-05
8.0934e-08
3.30037e-06
-4.8101e-05
1.70362e-08
3.78783e-06
-4.81193e-05
-3.93765e-08
3.21147e-06
-4.80738e-05
-4.08962e-08
2.10227e-06
-4.79892e-05
1.03581e-08
8.98266e-07
-4.79248e-05
7.13883e-08
9.01361e-08
-4.78978e-05
1.08682e-07
7.68138e-08
-4.79039e-05
8.06282e-07
-4.79339e-05
1.07116e-07