/*--------------------------------*- C++ -*----------------------------------*\
| =========                 |                                                 |
| \\      /  F ield         | OpenFOAM: The Open Source CFD Toolbox           |
|  \\    /   O peration     | Version:  v1912                                 |
|   \\  /    A nd           | Website:  www.openfoam.com                      |
|    \\/     M anipulation  |                                                 |
\*---------------------------------------------------------------------------*/
FoamFile
{
    version     2.0;
    format      ascii;
    class       volScalarField;
    location    "8.4";
    object      pPrime2Mean;
}
// * * * * * * * * * * * * * * * * * * * * * * * * * * * * * * * * * * * * * //

dimensions      [2 -2 -4 0 0 0 0];


internalField   nonuniform List<scalar> 
34128
(
2.77197
2.77034
2.76941
2.76868
2.76847
2.76832
2.76828
2.76864
2.76874
2.76915
2.7696
2.77005
2.77269
2.77126
2.77014
2.76939
2.76914
2.76897
2.76902
2.76914
2.76956
2.76986
2.77045
2.77108
2.77406
2.77262
2.7715
2.77062
2.77032
2.77021
2.77022
2.77047
2.7707
2.77118
2.77172
2.77236
2.77509
2.7733
2.77216
2.77145
2.77102
2.77086
2.77092
2.77106
2.77155
2.77192
2.77246
2.77316
2.77493
2.77343
2.7722
2.77155
2.77107
2.77105
2.7708
2.77118
2.77145
2.772
2.77261
2.77341
2.77475
2.77318
2.77208
2.77131
2.77088
2.7709
2.77079
2.77095
2.77126
2.77181
2.77233
2.773
2.77448
2.77291
2.77173
2.77101
2.77068
2.77062
2.77067
2.77077
2.77115
2.77164
2.77212
2.7728
2.77439
2.77282
2.77167
2.77094
2.77042
2.77038
2.77035
2.77053
2.77096
2.77128
2.77193
2.77266
2.77394
2.7725
2.77145
2.77064
2.77028
2.77009
2.77021
2.77049
2.7706
2.77108
2.77173
2.77231
2.77378
2.77217
2.77108
2.77035
2.77008
2.76979
2.76978
2.77003
2.7704
2.77095
2.77134
2.77213
2.77341
2.77197
2.77079
2.77002
2.76971
2.76964
2.76976
2.76989
2.77017
2.77056
2.77123
2.77174
2.77328
2.77176
2.77057
2.7699
2.7696
2.76938
2.76945
2.76955
2.76981
2.77036
2.77074
2.77154
2.77292
2.77139
2.77021
2.76959
2.76911
2.76904
2.76909
2.76935
2.7695
2.76996
2.77047
2.77102
2.77246
2.77122
2.76988
2.76919
2.76883
2.76871
2.76874
2.76896
2.76933
2.76965
2.77019
2.77073
2.77207
2.77076
2.76961
2.76895
2.76856
2.76848
2.76852
2.76855
2.76887
2.76925
2.7698
2.7704
2.77177
2.77035
2.7694
2.76863
2.76822
2.76808
2.76817
2.7683
2.76856
2.7689
2.76945
2.77003
2.77124
2.76999
2.76904
2.76826
2.76786
2.76772
2.76785
2.76814
2.76831
2.76861
2.76909
2.76968
2.77098
2.76963
2.76857
2.7679
2.76759
2.76741
2.7675
2.76756
2.76781
2.76827
2.76874
2.76934
2.77057
2.76926
2.76829
2.7676
2.76722
2.76707
2.7672
2.76725
2.7676
2.76795
2.76848
2.76888
2.77006
2.7688
2.76775
2.76717
2.76696
2.76667
2.76668
2.76697
2.76717
2.76753
2.76786
2.76859
2.7696
2.76841
2.76744
2.76691
2.7665
2.76639
2.76632
2.7666
2.76684
2.76707
2.76759
2.76821
2.76915
2.76814
2.7672
2.76658
2.76623
2.76611
2.76608
2.76628
2.76658
2.76669
2.76726
2.76773
2.76895
2.7677
2.7668
2.76615
2.76575
2.76577
2.7658
2.76583
2.76606
2.76639
2.76695
2.76743
2.76847
2.7672
2.76643
2.76572
2.76555
2.76548
2.76542
2.76557
2.76574
2.76619
2.76645
2.767
2.76809
2.7669
2.76607
2.76548
2.76522
2.76496
2.76494
2.76521
2.76549
2.7658
2.76617
2.76649
2.76768
2.76653
2.76577
2.76515
2.76486
2.76487
2.76475
2.76488
2.76506
2.76526
2.76563
2.76627
2.76731
2.76615
2.76531
2.7648
2.76461
2.76437
2.76439
2.76449
2.7647
2.76507
2.76543
2.766
2.767
2.76588
2.76503
2.76451
2.76416
2.76408
2.76413
2.76415
2.7644
2.7648
2.76511
2.76556
2.76655
2.76559
2.7648
2.76423
2.76406
2.76387
2.7638
2.76396
2.76424
2.76435
2.76463
2.76508
2.76614
2.76521
2.76436
2.76397
2.7636
2.76355
2.76345
2.76371
2.76382
2.76411
2.76441
2.76478
2.76591
2.76491
2.76417
2.76372
2.76342
2.76325
2.76329
2.76334
2.76355
2.76383
2.76403
2.76462
2.76551
2.7646
2.76381
2.76347
2.76317
2.76301
2.76323
2.76312
2.76329
2.76352
2.76388
2.76412
2.76522
2.76439
2.76375
2.76322
2.76296
2.76289
2.76271
2.763
2.76309
2.76319
2.76356
2.76385
2.76501
2.76409
2.76354
2.76314
2.76286
2.76274
2.7628
2.76267
2.76299
2.76307
2.7634
2.76371
2.76477
2.76397
2.76335
2.76289
2.76265
2.76251
2.76249
2.76258
2.76276
2.7629
2.76316
2.7636
2.76455
2.76379
2.76324
2.76284
2.76244
2.76238
2.76238
2.76256
2.76267
2.76268
2.76296
2.76334
2.76431
2.76364
2.76303
2.76269
2.7625
2.76228
2.76226
2.76221
2.76251
2.76265
2.76293
2.76317
2.76439
2.76353
2.76287
2.76262
2.76226
2.76231
2.76217
2.76242
2.76238
2.76254
2.7627
2.76303
2.76412
2.76339
2.76293
2.76261
2.76229
2.76222
2.76223
2.76228
2.76239
2.76245
2.76264
2.76292
2.76395
2.76329
2.76288
2.76258
2.76227
2.76217
2.76207
2.76222
2.76227
2.76249
2.76267
2.76288
2.76392
2.76325
2.76284
2.76258
2.7624
2.76228
2.76231
2.76227
2.76241
2.76243
2.76272
2.76285
2.76396
2.76332
2.76298
2.7627
2.76242
2.7623
2.76228
2.7623
2.76244
2.76243
2.76274
2.76285
2.76398
2.76341
2.76303
2.76279
2.7626
2.76245
2.76231
2.76248
2.76252
2.76263
2.76279
2.7629
2.76407
2.76357
2.76307
2.76292
2.76269
2.7626
2.76259
2.76253
2.7626
2.76273
2.76284
2.76295
2.76418
2.7637
2.76328
2.76315
2.7628
2.76279
2.76267
2.76273
2.7628
2.76292
2.76308
2.76317
2.76423
2.76393
2.76347
2.76334
2.7632
2.76302
2.76298
2.76297
2.76318
2.76316
2.76331
2.76342
2.76447
2.76405
2.76381
2.76362
2.76344
2.76346
2.76322
2.76315
2.76334
2.76344
2.76337
2.76352
2.76481
2.76435
2.76412
2.76387
2.76379
2.7636
2.76359
2.76364
2.76371
2.76361
2.76369
2.76386
2.76505
2.76473
2.76437
2.76426
2.76406
2.76405
2.76406
2.76402
2.76409
2.76389
2.76396
2.76401
2.76534
2.76511
2.76485
2.76466
2.76466
2.76442
2.76451
2.76427
2.76434
2.76428
2.76442
2.76441
2.76573
2.76549
2.76518
2.76505
2.76476
2.76489
2.76477
2.76468
2.76473
2.7648
2.76483
2.76485
2.76628
2.76583
2.76582
2.76561
2.76562
2.76548
2.76538
2.76537
2.76527
2.76529
2.7652
2.76532
2.76666
2.76634
2.76629
2.76604
2.76596
2.76593
2.76586
2.76583
2.76583
2.76575
2.76575
2.76583
2.76718
2.76694
2.76684
2.7667
2.76666
2.76648
2.76639
2.76642
2.76628
2.76624
2.76624
2.76643
2.76763
2.76748
2.76745
2.76726
2.76711
2.767
2.76702
2.76698
2.76695
2.76687
2.76683
2.76688
2.76834
2.76807
2.7679
2.76782
2.76772
2.76772
2.76755
2.7676
2.76752
2.76754
2.76742
2.76736
2.76889
2.76873
2.76851
2.76856
2.76845
2.76834
2.7682
2.76814
2.76812
2.76823
2.76816
2.76815
2.76952
2.76926
2.76929
2.76928
2.76914
2.76903
2.76905
2.76899
2.76889
2.76874
2.76876
2.76877
2.77
2.76995
2.77006
2.76988
2.76977
2.76979
2.76966
2.76964
2.76953
2.76955
2.76942
2.76935
2.77077
2.77066
2.77065
2.77059
2.77057
2.77051
2.77035
2.77033
2.77034
2.7702
2.7701
2.77006
2.77148
2.77141
2.77139
2.77137
2.77131
2.7712
2.77127
2.77103
2.77113
2.77084
2.7708
2.77074
2.77215
2.77213
2.77208
2.77218
2.77204
2.77201
2.77193
2.77188
2.77201
2.77164
2.77144
2.77146
2.77283
2.77286
2.77283
2.77288
2.77278
2.77266
2.7726
2.7725
2.77254
2.77246
2.77228
2.77227
2.77365
2.77345
2.77362
2.77364
2.77344
2.77337
2.77347
2.77339
2.77315
2.77325
2.77292
2.77283
2.77414
2.77425
2.77432
2.77429
2.77432
2.77412
2.77423
2.77404
2.77406
2.77389
2.77375
2.77362
2.77493
2.77492
2.77515
2.77513
2.77504
2.7749
2.77483
2.77484
2.77485
2.77461
2.77444
2.77429
2.77568
2.77566
2.77576
2.77563
2.77571
2.77567
2.7757
2.77552
2.77557
2.77547
2.77523
2.77491
2.77648
2.7765
2.77645
2.77644
2.77652
2.77639
2.77645
2.77635
2.77618
2.77605
2.7758
2.77563
2.77706
2.77711
2.77726
2.7771
2.77707
2.77715
2.77705
2.77707
2.77682
2.77677
2.77667
2.77628
2.7777
2.77771
2.77784
2.77781
2.77774
2.77774
2.77764
2.77746
2.77747
2.7774
2.77723
2.77702
2.77838
2.77826
2.77829
2.77823
2.77827
2.77833
2.77829
2.77817
2.77817
2.77797
2.77776
2.7777
2.77863
2.77865
2.7787
2.77894
2.77878
2.77872
2.77885
2.77864
2.7786
2.77846
2.77821
2.77794
2.77896
2.77903
2.77916
2.77917
2.77929
2.77916
2.77909
2.77905
2.7788
2.77884
2.7786
2.77835
2.77921
2.77923
2.77928
2.77943
2.77934
2.77937
2.77934
2.77922
2.77915
2.77907
2.77874
2.77857
2.7792
2.77913
2.77926
2.77941
2.77936
2.77927
2.77924
2.7793
2.7791
2.77899
2.77884
2.77843
2.77881
2.77897
2.77918
2.77913
2.77919
2.77909
2.7791
2.77904
2.77885
2.77874
2.7785
2.77823
2.77848
2.77857
2.77866
2.77875
2.77866
2.77863
2.77868
2.77855
2.77844
2.77826
2.77802
2.77769
2.7778
2.77788
2.77806
2.77808
2.77804
2.77813
2.77815
2.77786
2.77787
2.77754
2.77729
2.77709
2.77694
2.77723
2.7772
2.77726
2.77728
2.7772
2.77722
2.77704
2.77699
2.77671
2.77651
2.77638
25.3499
25.3531
25.3555
25.3569
25.3575
25.3573
25.3565
25.3551
25.3534
25.3516
25.3493
25.3472
25.3397
25.3424
25.3447
25.3461
25.3465
25.3463
25.3455
25.3442
25.3428
25.3408
25.3387
25.3368
25.3246
25.3269
25.3288
25.3299
25.3302
25.3299
25.3291
25.3281
25.3267
25.325
25.3233
25.3215
25.3155
25.3175
25.3192
25.32
25.3204
25.3201
25.3194
25.3182
25.3171
25.3155
25.3137
25.3121
25.313
25.3152
25.3167
25.3176
25.3178
25.3175
25.3169
25.3158
25.3146
25.313
25.3114
25.31
25.3136
25.3155
25.3171
25.318
25.3182
25.3179
25.3171
25.3162
25.3149
25.3134
25.3117
25.3102
25.3137
25.3158
25.3175
25.3183
25.3186
25.3183
25.3177
25.3165
25.3152
25.3138
25.3121
25.3106
25.314
25.3162
25.3177
25.3185
25.319
25.3187
25.3179
25.3168
25.3155
25.314
25.3123
25.3108
25.3144
25.3163
25.3181
25.319
25.3193
25.319
25.3183
25.3172
25.3158
25.3144
25.3126
25.3111
25.3145
25.3167
25.3183
25.3193
25.3194
25.3192
25.3186
25.3175
25.3161
25.3146
25.313
25.3114
25.3149
25.3169
25.3186
25.3195
25.3197
25.3195
25.3187
25.3177
25.3165
25.315
25.3131
25.3117
25.3151
25.3171
25.3188
25.3199
25.32
25.3197
25.3189
25.318
25.3166
25.3151
25.3132
25.3119
25.3153
25.3173
25.319
25.3199
25.3202
25.32
25.3192
25.3182
25.3168
25.3152
25.3136
25.312
25.3155
25.3175
25.3192
25.3202
25.3204
25.3201
25.3194
25.3183
25.317
25.3155
25.3138
25.3121
25.3156
25.3177
25.3193
25.3204
25.3207
25.3203
25.3196
25.3185
25.3171
25.3156
25.3139
25.3122
25.3156
25.3177
25.3195
25.3205
25.3207
25.3203
25.3199
25.3186
25.3173
25.3157
25.314
25.3124
25.3158
25.318
25.3196
25.3206
25.321
25.3205
25.3198
25.3187
25.3176
25.3159
25.3141
25.3125
25.3159
25.3179
25.3197
25.3207
25.3211
25.3206
25.3199
25.3188
25.3176
25.316
25.3141
25.3126
25.3159
25.3181
25.3199
25.3207
25.321
25.3208
25.32
25.319
25.3176
25.3161
25.3143
25.3127
25.3161
25.3181
25.3199
25.3209
25.3211
25.321
25.3202
25.3191
25.3178
25.3161
25.3144
25.3128
25.3161
25.3184
25.32
25.3209
25.3213
25.3209
25.3202
25.3192
25.3177
25.3164
25.3144
25.3129
25.3161
25.3182
25.3201
25.3209
25.3212
25.3209
25.3202
25.3192
25.318
25.3164
25.3145
25.3129
25.3163
25.3185
25.3202
25.3212
25.3215
25.3212
25.3204
25.3194
25.318
25.3164
25.3146
25.3129
25.3164
25.3183
25.3201
25.3213
25.3215
25.3211
25.3205
25.3194
25.318
25.3164
25.3147
25.313
25.3164
25.3185
25.3203
25.3213
25.3215
25.3214
25.3207
25.3195
25.318
25.3165
25.3147
25.3131
25.3164
25.3185
25.3203
25.3214
25.3216
25.3214
25.3206
25.3195
25.3181
25.3166
25.3148
25.3131
25.3165
25.3186
25.3205
25.3214
25.3217
25.3215
25.3207
25.3197
25.3182
25.3166
25.3149
25.3131
25.3166
25.3186
25.3205
25.3216
25.322
25.3215
25.3208
25.3198
25.3183
25.3167
25.3149
25.3132
25.3167
25.3189
25.3206
25.3216
25.322
25.3217
25.321
25.3197
25.3185
25.3168
25.3151
25.3133
25.3168
25.319
25.3207
25.3217
25.3222
25.3218
25.3211
25.32
25.3187
25.317
25.3153
25.3135
25.317
25.319
25.3209
25.322
25.322
25.322
25.3213
25.3201
25.3188
25.3172
25.3154
25.3135
25.3171
25.3194
25.3211
25.3221
25.3225
25.3222
25.3215
25.3203
25.3189
25.3173
25.3155
25.3137
25.3173
25.3195
25.3213
25.3223
25.3227
25.3223
25.3215
25.3204
25.3192
25.3176
25.3157
25.3139
25.3175
25.3197
25.3215
25.3226
25.323
25.3226
25.3219
25.3208
25.3194
25.3177
25.3159
25.3142
25.3177
25.3199
25.3218
25.3228
25.3232
25.3228
25.3222
25.321
25.3197
25.318
25.316
25.3145
25.3181
25.3203
25.3222
25.3231
25.3234
25.3231
25.3225
25.3213
25.3199
25.3184
25.3165
25.3146
25.3185
25.3207
25.3223
25.3235
25.3238
25.3236
25.3227
25.3216
25.3204
25.3186
25.3168
25.3151
25.3189
25.321
25.3229
25.3239
25.3242
25.3239
25.3231
25.3221
25.3207
25.3192
25.3173
25.3155
25.3193
25.3215
25.3233
25.3244
25.3246
25.3243
25.3237
25.3226
25.3213
25.3195
25.3176
25.3159
25.3198
25.322
25.3239
25.3249
25.3252
25.325
25.3242
25.3231
25.3218
25.3202
25.3181
25.3164
25.3203
25.3225
25.3244
25.3254
25.3258
25.3255
25.3248
25.3237
25.3223
25.3206
25.3188
25.317
25.3211
25.3232
25.325
25.3261
25.3263
25.326
25.3254
25.3244
25.3231
25.3213
25.3195
25.3176
25.3216
25.3239
25.3258
25.3268
25.3272
25.3269
25.3261
25.3251
25.3237
25.3222
25.3202
25.3185
25.3226
25.3247
25.3266
25.3276
25.3278
25.3275
25.3269
25.3258
25.3245
25.3228
25.321
25.3192
25.3234
25.3257
25.3274
25.3285
25.3288
25.3286
25.3279
25.3268
25.3254
25.3238
25.3218
25.32
25.3244
25.3266
25.3283
25.3294
25.3297
25.3295
25.3286
25.3278
25.3265
25.3248
25.3228
25.3209
25.3254
25.3277
25.3294
25.3305
25.3307
25.3306
25.3299
25.3288
25.3275
25.3258
25.3238
25.3222
25.3267
25.3288
25.3305
25.3316
25.3318
25.3317
25.331
25.33
25.3286
25.327
25.325
25.3232
25.328
25.33
25.3318
25.3327
25.3331
25.3329
25.3323
25.3313
25.33
25.3283
25.3263
25.3245
25.3292
25.3315
25.3331
25.3343
25.3345
25.3343
25.3337
25.3327
25.3313
25.3296
25.3277
25.3258
25.3307
25.3328
25.3346
25.3357
25.336
25.3358
25.3351
25.334
25.3327
25.3311
25.3291
25.3273
25.3324
25.3343
25.3362
25.3371
25.3375
25.3373
25.3366
25.3356
25.3343
25.3326
25.3307
25.3289
25.334
25.3363
25.3377
25.3389
25.3391
25.3389
25.3383
25.3372
25.336
25.3343
25.3324
25.3305
25.3358
25.3378
25.3396
25.3406
25.3408
25.3407
25.34
25.339
25.3377
25.3362
25.3341
25.3321
25.3376
25.3396
25.3413
25.3424
25.3426
25.3425
25.3418
25.3407
25.3395
25.338
25.336
25.3341
25.3395
25.3416
25.3431
25.3442
25.3445
25.3445
25.3436
25.3428
25.3414
25.3397
25.3377
25.3359
25.3416
25.3434
25.3451
25.3461
25.3464
25.3463
25.3456
25.3448
25.3434
25.3417
25.3397
25.338
25.3434
25.3455
25.3473
25.3482
25.3485
25.3484
25.3478
25.3468
25.3454
25.3438
25.3418
25.3401
25.3459
25.3477
25.3493
25.3502
25.3507
25.3504
25.3499
25.3491
25.3477
25.346
25.3441
25.342
25.348
25.3498
25.3513
25.3522
25.3526
25.3525
25.352
25.351
25.3498
25.348
25.3461
25.3443
25.3502
25.352
25.3535
25.3545
25.3547
25.3547
25.354
25.3532
25.3519
25.3502
25.3482
25.3465
25.3524
25.3542
25.3555
25.3564
25.3568
25.3566
25.3561
25.3552
25.354
25.3524
25.3504
25.3486
25.3546
25.3562
25.3576
25.3587
25.359
25.3589
25.3583
25.3575
25.3562
25.3546
25.3526
25.3507
25.3567
25.3585
25.36
25.3607
25.361
25.361
25.3605
25.3596
25.3583
25.3568
25.3548
25.3527
25.3588
25.3606
25.3618
25.3626
25.363
25.3629
25.3625
25.3618
25.3604
25.3588
25.3569
25.3549
25.3611
25.3626
25.364
25.3648
25.3651
25.365
25.3645
25.3637
25.3623
25.3611
25.359
25.3572
25.3631
25.3647
25.366
25.3666
25.367
25.3671
25.3664
25.3656
25.3644
25.3629
25.361
25.3592
25.3653
25.3666
25.3678
25.3686
25.3687
25.3686
25.3684
25.3675
25.3663
25.3648
25.3628
25.361
25.3672
25.3684
25.3695
25.3702
25.3704
25.3704
25.37
25.3692
25.368
25.3666
25.3646
25.3628
25.3689
25.37
25.3709
25.3715
25.3719
25.3718
25.3713
25.3708
25.3696
25.3679
25.366
25.3643
25.3702
25.3712
25.3721
25.3728
25.3731
25.3729
25.3726
25.3718
25.3707
25.3692
25.3674
25.3657
25.3712
25.3722
25.373
25.3736
25.3737
25.3737
25.3732
25.3726
25.3715
25.3699
25.3682
25.3664
25.3716
25.3726
25.3733
25.3738
25.3739
25.3738
25.3734
25.3727
25.3716
25.3702
25.3684
25.3668
25.3715
25.3722
25.3727
25.3732
25.3734
25.3733
25.3729
25.3721
25.3711
25.3696
25.3679
25.3662
25.3703
25.3709
25.3715
25.3718
25.3719
25.3719
25.3714
25.3708
25.3696
25.3683
25.3667
25.3648
25.368
25.3687
25.3693
25.3695
25.3696
25.3694
25.3691
25.3682
25.3673
25.3658
25.3641
25.3623
25.3648
25.3655
25.3658
25.3661
25.3662
25.3661
25.3656
25.3649
25.3639
25.3624
25.3607
25.3589
25.3605
25.3613
25.3616
25.3619
25.362
25.3617
25.3612
25.3604
25.3593
25.3578
25.3562
25.3545
25.3554
25.3562
25.3565
25.357
25.3568
25.3565
25.3562
25.3553
25.3541
25.3526
25.3509
25.349
70.6135
70.6204
70.6251
70.6275
70.6275
70.6257
70.6223
70.6181
70.6132
70.6081
70.6026
70.5971
70.573
70.5796
70.584
70.5861
70.5859
70.5842
70.581
70.5769
70.5723
70.5673
70.5621
70.5568
70.5122
70.518
70.5219
70.5237
70.5235
70.5217
70.5186
70.5149
70.5105
70.5058
70.5009
70.4962
70.4743
70.4796
70.4832
70.4848
70.4844
70.4827
70.4798
70.4762
70.472
70.4675
70.463
70.4584
70.4646
70.4698
70.4733
70.4749
70.4743
70.4727
70.4697
70.4662
70.4621
70.4576
70.4532
70.4489
70.4654
70.4706
70.4741
70.4757
70.4753
70.4736
70.4704
70.467
70.4629
70.4586
70.454
70.4496
70.4662
70.4714
70.4751
70.4766
70.4762
70.4745
70.4716
70.4678
70.4637
70.4593
70.455
70.4504
70.4669
70.4723
70.4759
70.4775
70.4771
70.4753
70.4723
70.4688
70.4646
70.4604
70.4557
70.4513
70.4678
70.4732
70.4767
70.4783
70.4779
70.4761
70.4734
70.4696
70.4654
70.461
70.4565
70.4521
70.4685
70.4739
70.4775
70.479
70.4788
70.4769
70.4739
70.4704
70.4662
70.4618
70.4572
70.4527
70.4694
70.4746
70.4781
70.4798
70.4794
70.4777
70.4748
70.4712
70.467
70.4626
70.458
70.4534
70.47
70.4752
70.4788
70.4805
70.4802
70.4784
70.4754
70.4719
70.4676
70.4633
70.4586
70.4541
70.4704
70.4758
70.4796
70.4812
70.4807
70.4791
70.4761
70.4725
70.4683
70.4639
70.4594
70.4547
70.471
70.4766
70.4801
70.4818
70.4814
70.4796
70.4768
70.4732
70.469
70.4645
70.4599
70.4554
70.4717
70.477
70.4808
70.4823
70.482
70.4803
70.4774
70.4737
70.4695
70.4652
70.4604
70.456
70.4719
70.4775
70.4813
70.4827
70.4826
70.4809
70.4779
70.4743
70.4702
70.4657
70.4611
70.4564
70.4727
70.478
70.4818
70.4836
70.4832
70.4817
70.4784
70.4749
70.4707
70.466
70.4615
70.4568
70.473
70.4785
70.4824
70.4839
70.4837
70.482
70.479
70.4754
70.4713
70.4667
70.4621
70.4573
70.4733
70.479
70.4827
70.4845
70.4842
70.4824
70.4795
70.4759
70.4718
70.4673
70.4626
70.4578
70.474
70.4794
70.4832
70.4849
70.4847
70.483
70.4802
70.4764
70.4722
70.4677
70.463
70.4583
70.4744
70.48
70.4838
70.4854
70.4852
70.4835
70.4808
70.4769
70.4727
70.4683
70.4636
70.4588
70.4747
70.4803
70.4841
70.4859
70.4857
70.484
70.481
70.4773
70.4732
70.4688
70.4639
70.4594
70.4753
70.4808
70.4847
70.4864
70.4862
70.4845
70.4816
70.4779
70.4738
70.4693
70.4644
70.4597
70.4758
70.4812
70.4851
70.4869
70.4866
70.485
70.4821
70.4785
70.4743
70.4698
70.465
70.4601
70.476
70.4817
70.4856
70.4874
70.4872
70.4854
70.4826
70.4791
70.4748
70.4702
70.4654
70.4606
70.4765
70.4821
70.4861
70.4879
70.4876
70.4859
70.4832
70.4795
70.4752
70.4707
70.466
70.4612
70.4771
70.4827
70.4865
70.4884
70.488
70.4866
70.4835
70.4801
70.476
70.4713
70.4663
70.4616
70.4776
70.483
70.487
70.4888
70.4886
70.487
70.4842
70.4806
70.4765
70.4718
70.467
70.4622
70.4781
70.4838
70.4877
70.4895
70.4893
70.4877
70.4848
70.4812
70.4769
70.4724
70.4676
70.4626
70.4785
70.4842
70.4881
70.4899
70.4899
70.4883
70.4855
70.4817
70.4778
70.4731
70.4681
70.4634
70.479
70.4848
70.4888
70.4907
70.4905
70.489
70.486
70.4824
70.4783
70.4737
70.4687
70.4638
70.4796
70.4855
70.4895
70.4913
70.491
70.4896
70.4868
70.4832
70.479
70.4744
70.4693
70.4645
70.4802
70.486
70.49
70.4919
70.4918
70.4903
70.4874
70.4839
70.4797
70.4751
70.47
70.4651
70.481
70.4868
70.4907
70.4928
70.4927
70.4911
70.4881
70.4847
70.4805
70.4757
70.4709
70.4659
70.4815
70.4875
70.4914
70.4934
70.4933
70.4919
70.489
70.4855
70.4813
70.4767
70.4715
70.4667
70.4824
70.4882
70.4923
70.4942
70.4942
70.4927
70.4898
70.4864
70.4822
70.4775
70.4724
70.4674
70.4834
70.4889
70.4932
70.495
70.4951
70.4935
70.4908
70.4874
70.4832
70.4784
70.4732
70.4682
70.4842
70.4899
70.4941
70.496
70.4961
70.4946
70.4918
70.4884
70.484
70.4793
70.4744
70.4693
70.4851
70.4909
70.4951
70.4971
70.4969
70.4957
70.4929
70.4894
70.4853
70.4805
70.4755
70.4702
70.4863
70.4919
70.4961
70.4981
70.4981
70.4967
70.4941
70.4904
70.4864
70.4816
70.4765
70.4714
70.4873
70.493
70.4972
70.4992
70.4993
70.4978
70.4953
70.4918
70.4875
70.4829
70.4777
70.4727
70.4884
70.4942
70.4983
70.5005
70.5006
70.4992
70.4965
70.493
70.4889
70.4841
70.479
70.4739
70.4897
70.4956
70.4997
70.5018
70.502
70.5006
70.4979
70.4944
70.4902
70.4856
70.4803
70.4752
70.4911
70.4969
70.5011
70.5031
70.5033
70.5018
70.4994
70.4959
70.4917
70.487
70.4818
70.4767
70.4927
70.4983
70.5026
70.5046
70.5049
70.5036
70.5009
70.4974
70.4932
70.4885
70.4833
70.4782
70.4941
70.5
70.5041
70.5063
70.5065
70.5051
70.5026
70.4991
70.4949
70.4902
70.4849
70.4797
70.4958
70.5016
70.5057
70.5078
70.5083
70.5068
70.5043
70.5011
70.4967
70.492
70.4867
70.4815
70.4975
70.5034
70.5075
70.5095
70.5099
70.5086
70.5062
70.5027
70.4985
70.4937
70.4884
70.4833
70.4994
70.5052
70.5094
70.5114
70.5117
70.5106
70.5081
70.5048
70.5006
70.4958
70.4903
70.4853
70.5013
70.5071
70.5114
70.5134
70.5137
70.5124
70.5102
70.5066
70.5026
70.4978
70.4925
70.4874
70.5037
70.5092
70.5133
70.5154
70.5159
70.5146
70.5121
70.509
70.5049
70.5001
70.4948
70.4895
70.5057
70.5114
70.5155
70.5177
70.518
70.5169
70.5144
70.5111
70.507
70.5024
70.497
70.4917
70.508
70.5136
70.5178
70.52
70.5203
70.5191
70.5168
70.5135
70.5095
70.5048
70.4994
70.4941
70.5104
70.516
70.5202
70.5223
70.5226
70.5216
70.5193
70.516
70.5119
70.5072
70.5016
70.4966
70.5129
70.5184
70.5226
70.5245
70.5251
70.524
70.5218
70.5185
70.5143
70.5097
70.5044
70.4991
70.5155
70.5211
70.5251
70.5273
70.5276
70.5266
70.5244
70.5211
70.5171
70.5124
70.5072
70.5017
70.5182
70.5236
70.5276
70.5299
70.5302
70.5293
70.527
70.5237
70.52
70.515
70.5099
70.5045
70.5211
70.5264
70.5304
70.5324
70.5329
70.5319
70.5298
70.5265
70.5225
70.5179
70.5125
70.5073
70.5239
70.5292
70.5331
70.5351
70.5356
70.5346
70.5324
70.5294
70.5255
70.5207
70.5155
70.5103
70.5268
70.532
70.5359
70.5379
70.5384
70.5375
70.5352
70.5322
70.5282
70.5236
70.5183
70.5131
70.5297
70.5347
70.5385
70.5405
70.5411
70.5401
70.5383
70.5351
70.5312
70.5265
70.5212
70.516
70.5326
70.5376
70.5414
70.5434
70.5439
70.543
70.541
70.538
70.5341
70.5294
70.5242
70.519
70.5356
70.5405
70.5441
70.5461
70.5465
70.5457
70.5439
70.5407
70.5369
70.5322
70.5271
70.5219
70.5385
70.5432
70.5467
70.5489
70.5494
70.5483
70.5465
70.5435
70.5397
70.5351
70.5299
70.5248
70.5413
70.546
70.5495
70.5514
70.5518
70.5509
70.5491
70.5462
70.5426
70.5378
70.5326
70.5275
70.5442
70.5488
70.552
70.5538
70.5542
70.5535
70.5516
70.5487
70.5449
70.5403
70.5354
70.5303
70.5468
70.551
70.5544
70.5561
70.5565
70.5558
70.5539
70.551
70.5473
70.5428
70.5376
70.5326
70.5492
70.5533
70.5564
70.558
70.5585
70.5578
70.5558
70.5531
70.5494
70.545
70.5399
70.5349
70.5514
70.5553
70.5582
70.5597
70.5601
70.5593
70.5576
70.5548
70.5512
70.5467
70.5416
70.5367
70.553
70.5566
70.5595
70.561
70.5614
70.5604
70.5587
70.5559
70.5523
70.548
70.5431
70.5381
70.5543
70.5578
70.5603
70.5616
70.562
70.5612
70.5593
70.5567
70.5531
70.5486
70.5438
70.5389
70.5549
70.558
70.5604
70.5617
70.5619
70.5608
70.5591
70.5563
70.5528
70.5486
70.5438
70.539
70.5545
70.5574
70.5595
70.5606
70.5608
70.5599
70.558
70.5553
70.5517
70.5475
70.5428
70.5382
70.5528
70.5554
70.5575
70.5586
70.5586
70.5576
70.5557
70.553
70.5495
70.5451
70.5404
70.5358
70.5497
70.552
70.5539
70.5548
70.5548
70.5537
70.5518
70.5489
70.5455
70.5413
70.5366
70.5318
70.5446
70.5469
70.5487
70.5495
70.5494
70.5482
70.5463
70.5434
70.5397
70.5353
70.5308
70.5264
70.538
70.5403
70.5419
70.5424
70.5424
70.541
70.539
70.536
70.5325
70.528
70.5234
70.5189
70.5297
70.532
70.5335
70.5341
70.5339
70.5324
70.5303
70.5273
70.5237
70.5192
70.5145
70.5098
70.5205
70.5226
70.5242
70.5247
70.5243
70.5227
70.5205
70.5174
70.5136
70.5091
70.5043
70.4995
139.07
139.078
139.082
139.084
139.083
139.079
139.073
139.066
139.058
139.049
139.041
139.032
138.971
138.978
138.983
138.984
138.983
138.979
138.973
138.966
138.958
138.95
138.942
138.934
138.82
138.827
138.831
138.832
138.83
138.827
138.821
138.814
138.807
138.799
138.792
138.784
138.724
138.731
138.735
138.736
138.734
138.73
138.725
138.718
138.711
138.704
138.696
138.689
138.7
138.706
138.71
138.711
138.709
138.705
138.7
138.694
138.687
138.679
138.672
138.665
138.702
138.708
138.712
138.713
138.711
138.707
138.702
138.695
138.688
138.681
138.674
138.666
138.703
138.71
138.713
138.714
138.713
138.709
138.704
138.697
138.69
138.683
138.676
138.668
138.705
138.711
138.715
138.716
138.715
138.711
138.706
138.699
138.692
138.685
138.677
138.67
138.707
138.713
138.717
138.718
138.716
138.713
138.707
138.701
138.694
138.686
138.679
138.671
138.708
138.714
138.718
138.719
138.718
138.714
138.709
138.702
138.695
138.688
138.68
138.673
138.709
138.716
138.72
138.721
138.719
138.715
138.71
138.704
138.696
138.689
138.682
138.674
138.711
138.717
138.721
138.722
138.72
138.717
138.711
138.705
138.698
138.69
138.683
138.675
138.712
138.718
138.722
138.723
138.722
138.718
138.713
138.706
138.699
138.692
138.684
138.677
138.713
138.719
138.723
138.724
138.723
138.719
138.714
138.707
138.7
138.693
138.685
138.678
138.714
138.72
138.724
138.725
138.724
138.72
138.715
138.708
138.701
138.694
138.686
138.679
138.715
138.721
138.725
138.726
138.725
138.721
138.716
138.709
138.702
138.695
138.687
138.68
138.715
138.722
138.726
138.727
138.725
138.722
138.717
138.71
138.703
138.696
138.688
138.68
138.716
138.723
138.726
138.728
138.726
138.723
138.717
138.711
138.704
138.696
138.689
138.681
138.717
138.723
138.727
138.729
138.727
138.724
138.718
138.712
138.704
138.697
138.689
138.682
138.717
138.724
138.728
138.729
138.728
138.724
138.719
138.712
138.705
138.698
138.69
138.682
138.718
138.725
138.728
138.73
138.728
138.725
138.72
138.713
138.706
138.698
138.691
138.683
138.718
138.725
138.729
138.73
138.729
138.726
138.72
138.714
138.707
138.699
138.691
138.683
138.719
138.725
138.73
138.731
138.73
138.726
138.721
138.714
138.707
138.7
138.692
138.684
138.719
138.726
138.73
138.731
138.73
138.727
138.721
138.715
138.708
138.7
138.692
138.684
138.719
138.726
138.731
138.732
138.73
138.727
138.722
138.715
138.708
138.701
138.693
138.685
138.72
138.727
138.731
138.732
138.731
138.728
138.722
138.716
138.709
138.701
138.693
138.685
138.72
138.727
138.731
138.733
138.732
138.728
138.723
138.716
138.709
138.701
138.694
138.686
138.72
138.727
138.732
138.733
138.732
138.729
138.723
138.717
138.709
138.702
138.694
138.686
138.721
138.728
138.732
138.734
138.732
138.729
138.724
138.717
138.71
138.702
138.695
138.686
138.721
138.728
138.733
138.734
138.733
138.729
138.724
138.718
138.711
138.703
138.695
138.687
138.721
138.729
138.733
138.735
138.733
138.73
138.725
138.718
138.711
138.704
138.695
138.687
138.722
138.729
138.733
138.735
138.734
138.731
138.726
138.719
138.712
138.704
138.696
138.688
138.722
138.729
138.734
138.736
138.734
138.731
138.726
138.72
138.712
138.705
138.696
138.688
138.723
138.73
138.734
138.736
138.735
138.732
138.727
138.72
138.713
138.705
138.697
138.689
138.723
138.73
138.735
138.737
138.736
138.732
138.727
138.721
138.714
138.706
138.698
138.689
138.724
138.731
138.736
138.737
138.736
138.733
138.728
138.722
138.714
138.707
138.698
138.69
138.724
138.732
138.736
138.738
138.737
138.734
138.729
138.723
138.715
138.708
138.699
138.691
138.725
138.732
138.737
138.739
138.738
138.735
138.73
138.723
138.716
138.708
138.7
138.692
138.725
138.733
138.738
138.74
138.739
138.736
138.731
138.724
138.717
138.709
138.701
138.693
138.726
138.734
138.739
138.741
138.74
138.737
138.732
138.725
138.718
138.71
138.702
138.693
138.727
138.735
138.74
138.742
138.741
138.738
138.733
138.726
138.719
138.711
138.703
138.694
138.728
138.736
138.741
138.743
138.742
138.739
138.734
138.728
138.72
138.713
138.704
138.696
138.729
138.737
138.742
138.744
138.743
138.74
138.735
138.729
138.722
138.714
138.705
138.697
138.731
138.738
138.743
138.745
138.745
138.742
138.737
138.731
138.723
138.716
138.707
138.698
138.732
138.74
138.745
138.747
138.746
138.743
138.738
138.732
138.725
138.717
138.709
138.7
138.734
138.741
138.746
138.748
138.748
138.745
138.74
138.734
138.727
138.719
138.71
138.702
138.735
138.743
138.748
138.75
138.75
138.747
138.742
138.736
138.729
138.721
138.712
138.703
138.737
138.745
138.75
138.752
138.752
138.749
138.744
138.738
138.731
138.723
138.714
138.705
138.739
138.747
138.752
138.754
138.754
138.751
138.746
138.74
138.733
138.725
138.716
138.708
138.741
138.749
138.754
138.756
138.756
138.753
138.748
138.742
138.735
138.727
138.719
138.71
138.743
138.751
138.756
138.759
138.758
138.756
138.751
138.745
138.738
138.73
138.721
138.712
138.746
138.754
138.759
138.761
138.761
138.758
138.754
138.748
138.741
138.733
138.724
138.715
138.749
138.756
138.762
138.764
138.763
138.761
138.756
138.75
138.743
138.735
138.727
138.718
138.751
138.759
138.764
138.767
138.766
138.764
138.759
138.753
138.746
138.738
138.73
138.721
138.754
138.762
138.767
138.77
138.769
138.767
138.762
138.757
138.749
138.742
138.733
138.724
138.757
138.765
138.77
138.773
138.773
138.77
138.766
138.76
138.753
138.745
138.736
138.727
138.761
138.768
138.774
138.776
138.776
138.773
138.769
138.763
138.756
138.748
138.739
138.731
138.764
138.772
138.777
138.779
138.779
138.777
138.773
138.767
138.76
138.752
138.743
138.734
138.768
138.775
138.781
138.783
138.783
138.781
138.776
138.77
138.764
138.756
138.747
138.738
138.772
138.779
138.784
138.787
138.787
138.784
138.78
138.774
138.767
138.759
138.751
138.742
138.775
138.783
138.788
138.79
138.79
138.788
138.784
138.778
138.771
138.763
138.755
138.746
138.779
138.787
138.792
138.794
138.794
138.792
138.788
138.782
138.775
138.767
138.759
138.75
138.784
138.791
138.796
138.798
138.798
138.796
138.792
138.786
138.779
138.771
138.763
138.754
138.788
138.795
138.8
138.802
138.802
138.8
138.796
138.79
138.783
138.775
138.767
138.758
138.792
138.799
138.804
138.806
138.806
138.804
138.8
138.794
138.788
138.78
138.771
138.762
138.796
138.803
138.808
138.81
138.81
138.808
138.804
138.798
138.791
138.784
138.775
138.766
138.8
138.807
138.811
138.813
138.813
138.811
138.808
138.802
138.795
138.787
138.779
138.77
138.804
138.811
138.815
138.817
138.817
138.815
138.811
138.805
138.799
138.791
138.783
138.774
138.808
138.814
138.818
138.82
138.82
138.818
138.814
138.809
138.802
138.794
138.786
138.777
138.811
138.817
138.821
138.823
138.823
138.821
138.817
138.811
138.805
138.797
138.788
138.78
138.814
138.82
138.823
138.825
138.825
138.823
138.819
138.813
138.807
138.799
138.791