/*--------------------------------*- C++ -*----------------------------------*\
| =========                 |                                                 |
| \\      /  F ield         | OpenFOAM: The Open Source CFD Toolbox           |
|  \\    /   O peration     | Version:  v1912                                 |
|   \\  /    A nd           | Website:  www.openfoam.com                      |
|    \\/     M anipulation  |                                                 |
\*---------------------------------------------------------------------------*/
FoamFile
{
    version     2.0;
    format      ascii;
    class       volVectorField;
    location    "8.4";
    object      U;
}
// * * * * * * * * * * * * * * * * * * * * * * * * * * * * * * * * * * * * * //

dimensions      [0 1 -1 0 0 0 0];


internalField   nonuniform List<vector> 
34128
(
(-6.86834e-06 1.37537e-07 -0.00285664)
(-5.01769e-06 1.36427e-07 -0.00280579)
(-1.60966e-06 1.25468e-07 -0.00285567)
(3.87607e-07 1.18283e-07 -0.00287433)
(3.39555e-06 1.29923e-07 -0.00287428)
(7.20751e-06 1.43669e-07 -0.00289275)
(5.16071e-06 1.37071e-07 -0.00292401)
(-1.10586e-06 1.33202e-07 -0.00294451)
(-4.18418e-06 1.24021e-07 -0.00287404)
(-4.38981e-06 1.08635e-07 -0.00279839)
(-3.6444e-06 1.08705e-07 -0.00279614)
(-4.00415e-06 1.15229e-07 -0.00282408)
(-2.07426e-05 1.58665e-06 -0.00889279)
(-1.49633e-05 1.53475e-06 -0.00874029)
(-4.67007e-06 1.42574e-06 -0.00888417)
(8.70207e-07 1.35282e-06 -0.00894054)
(9.84189e-06 1.4308e-06 -0.00894436)
(2.21461e-05 1.58119e-06 -0.0090002)
(1.65945e-05 1.60845e-06 -0.00908973)
(-2.20637e-06 1.57515e-06 -0.00914862)
(-1.13207e-05 1.47364e-06 -0.00894038)
(-1.21321e-05 1.34247e-06 -0.00871458)
(-1.06353e-05 1.37609e-06 -0.0087078)
(-1.24319e-05 1.44588e-06 -0.00879467)
(-3.49738e-05 4.44436e-06 -0.0152737)
(-2.49809e-05 4.28738e-06 -0.0150194)
(-7.58684e-06 3.99882e-06 -0.0152505)
(1.22513e-06 3.79812e-06 -0.015345)
(1.62348e-05 3.96931e-06 -0.0153584)
(3.78314e-05 4.37587e-06 -0.0154519)
(2.91087e-05 4.51089e-06 -0.0155926)
(-2.59254e-06 4.43365e-06 -0.0156866)
(-1.77837e-05 4.15907e-06 -0.0153446)
(-1.92024e-05 3.82646e-06 -0.0149693)
(-1.73654e-05 3.94057e-06 -0.0149581)
(-2.1085e-05 4.12126e-06 -0.0151093)
(-4.96541e-05 8.75934e-06 -0.0219672)
(-3.51629e-05 8.43772e-06 -0.021612)
(-1.03918e-05 7.89239e-06 -0.0219214)
(1.57199e-06 7.50443e-06 -0.0220542)
(2.27804e-05 7.77852e-06 -0.0220844)
(5.43289e-05 8.55553e-06 -0.0222149)
(4.25656e-05 8.89213e-06 -0.0223966)
(-2.61521e-06 8.76268e-06 -0.0225214)
(-2.40198e-05 8.23741e-06 -0.0220519)
(-2.58481e-05 7.62825e-06 -0.0215288)
(-2.3758e-05 7.87459e-06 -0.0215137)
(-2.96666e-05 8.20673e-06 -0.0217362)
(-6.48739e-05 1.44753e-05 -0.0289373)
(-4.56198e-05 1.3936e-05 -0.0284834)
(-1.31571e-05 1.30689e-05 -0.0288608)
(1.99213e-06 1.2438e-05 -0.0290315)
(2.96574e-05 1.28015e-05 -0.0290868)
(7.16773e-05 1.40471e-05 -0.029253)
(5.68264e-05 1.46932e-05 -0.0294625)
(-2.58108e-06 1.45134e-05 -0.0296131)
(-3.04199e-05 1.36698e-05 -0.0290248)
(-3.22646e-05 1.27259e-05 -0.0283567)
(-2.96909e-05 1.31556e-05 -0.0283382)
(-3.7864e-05 1.36632e-05 -0.02864)
(-8.07173e-05 2.15542e-05 -0.0361447)
(-5.64721e-05 2.07508e-05 -0.035596)
(-1.59867e-05 1.95059e-05 -0.0360296)
(2.53181e-06 1.85794e-05 -0.0362372)
(3.70126e-05 1.90003e-05 -0.0363263)
(8.98857e-05 2.08003e-05 -0.0365258)
(7.17567e-05 2.18763e-05 -0.0367474)
(-2.74103e-06 2.16559e-05 -0.0369183)
(-3.73058e-05 2.04327e-05 -0.0362223)
(-3.85921e-05 1.91074e-05 -0.0354138)
(-3.50077e-05 1.97681e-05 -0.0353926)
(-4.53658e-05 2.04597e-05 -0.035782)
(-9.72549e-05 2.99658e-05 -0.0435463)
(-6.78416e-05 2.88611e-05 -0.0429089)
(-1.9008e-05 2.719e-05 -0.0433863)
(3.20469e-06 2.59147e-05 -0.0436289)
(4.49547e-05 2.63445e-05 -0.0437604)
(0.000108926 2.87765e-05 -0.0439895)
(8.7225e-05 3.04167e-05 -0.0442057)
(-3.28525e-06 3.01721e-05 -0.0443912)
(-4.49241e-05 2.851e-05 -0.0436009)
(-4.49176e-05 2.67648e-05 -0.0426583)
(-3.95309e-05 2.76989e-05 -0.0426351)
(-5.18765e-05 2.85671e-05 -0.0431198)
(-0.000114535 3.96772e-05 -0.0510964)
(-7.98418e-05 3.82455e-05 -0.0503791)
(-2.23641e-05 3.61057e-05 -0.0508876)
(3.99381e-06 3.44259e-05 -0.0511621)
(5.35488e-05 3.48014e-05 -0.0513438)
(0.000128726 3.79386e-05 -0.0515977)
(0.000103098 4.02928e-05 -0.0517902)
(-4.34381e-06 4.0045e-05 -0.0519846)
(-5.34439e-05 3.78826e-05 -0.0511155)
(-5.12807e-05 3.5684e-05 -0.0500469)
(-4.30766e-05 3.69281e-05 -0.050022)
(-5.71297e-05 3.79499e-05 -0.0506084)
(-0.000132579 5.06527e-05 -0.0587492)
(-9.25708e-05 4.88815e-05 -0.0579631)
(-2.62062e-05 4.62351e-05 -0.0584904)
(4.85427e-06 4.40896e-05 -0.0587927)
(6.28117e-05 4.43353e-05 -0.059031)
(0.000149163 4.82506e-05 -0.0593042)
(0.000119237 5.1486e-05 -0.0594544)
(-5.99051e-06 5.12593e-05 -0.059652)
(-6.29604e-05 4.85283e-05 -0.0587209)
(-5.76823e-05 4.5846e-05 -0.0575366)
(-4.54681e-05 4.74304e-05 -0.0575104)
(-6.08989e-05 4.85682e-05 -0.0582024)
(-0.000151376 6.28559e-05 -0.0664612)
(-0.000106106 6.07476e-05 -0.0656201)
(-3.06883e-05 5.75596e-05 -0.0661548)
(5.71668e-06 5.48802e-05 -0.0664794)
(7.27121e-05 5.491e-05 -0.0667794)
(0.000170064 5.96801e-05 -0.0670657)
(0.000135495 6.39825e-05 -0.0671551)
(-8.249e-06 6.38024e-05 -0.0673507)
(-7.35004e-05 6.04241e-05 -0.0663755)
(-6.40944e-05 5.72295e-05 -0.0650877)
(-4.65487e-05 5.91789e-05 -0.06506)
(-6.30049e-05 6.03815e-05 -0.0658589)
(-0.000170882 7.62498e-05 -0.0741941)
(-0.0001205 7.38206e-05 -0.0733137)
(-3.59624e-05 7.00579e-05 -0.0738459)
(6.49133e-06 6.67681e-05 -0.0741865)
(8.31732e-05 6.64878e-05 -0.0745515)
(0.000191213 7.21961e-05 -0.0748444)
(0.000151714 7.77715e-05 -0.0748551)
(-1.11002e-05 7.76639e-05 -0.0750435)
(-8.50315e-05 7.35463e-05 -0.0740427)
(-7.04702e-05 6.98112e-05 -0.0726656)
(-4.6191e-05 7.21456e-05 -0.0726357)
(-6.33187e-05 7.33498e-05 -0.07354)
(-0.000191022 9.07923e-05 -0.0819163)
(-0.000135785 8.80705e-05 -0.081014)
(-4.21751e-05 8.37014e-05 -0.0815351)
(7.07271e-06 7.97176e-05 -0.0818847)
(9.40779e-05 7.90261e-05 -0.0823172)
(0.000212346 8.57637e-05 -0.0826097)
(0.000167724 9.28393e-05 -0.0825243)
(-1.449e-05 9.28306e-05 -0.0827002)
(-9.74706e-05 8.78668e-05 -0.0816929)
(-7.67519e-05 8.3563e-05 -0.0802424)
(-4.43014e-05 8.62982e-05 -0.0802092)
(-6.17585e-05 8.74303e-05 -0.0812144)
(-0.000211689 0.000106462 -0.0896055)
(-0.000151967 0.000103487 -0.0886998)
(-4.94672e-05 9.8478e-05 -0.0892027)
(7.344e-06 9.37113e-05 -0.0895543)
(0.000105278 9.25069e-05 -0.0900558)
(0.000233169 0.000100369 -0.0903403)
(0.000183342 0.000109183 -0.0901409)
(-1.83366e-05 0.0001093 -0.0902991)
(-0.000110696 0.000103373 -0.0893049)
(-8.28787e-05 9.84709e-05 -0.0877986)
(-4.08225e-05 0.000101617 -0.0877605)
(-5.82843e-05 0.0001026 -0.0888601)
(-0.00023275 0.000123224 -0.0972476)
(-0.000169035 0.000120042 -0.0963575)
(-5.79737e-05 0.000114362 -0.0968368)
(7.18103e-06 0.000108719 -0.097184)
(0.000116597 0.00010689 -0.097755)
(0.000253352 0.000115977 -0.098023)
(0.000198371 0.000126796 -0.0976917)
(-2.25372e-05 0.00012707 -0.097827)
(-0.000124552 0.000120052 -0.0968666)
(-8.87916e-05 0.000114524 -0.0953237)
(-3.5731e-05 0.000118087 -0.0952786)
(-5.28883e-05 0.000118828 -0.0964635)
(-0.000254022 0.000141006 -0.104829)
(-0.000186941 0.000137659 -0.103974)
(-6.7814e-05 0.000131278 -0.104426)
(6.45625e-06 0.00012467 -0.104763)
(0.000127827 0.000122099 -0.105403)
(0.000272519 0.000132513 -0.105645)
(0.000212589 0.000145624 -0.105165)
(-2.69685e-05 0.000146096 -0.105272)
(-0.000138847 0.000137846 -0.104367)
(-9.44312e-05 0.00013166 -0.102809)
(-2.90411e-05 0.000135638 -0.102753)
(-4.55924e-05 0.000136041 -0.104012)
(-0.00027527 0.000159751 -0.112337)
(-0.000205594 0.00015627 -0.111534)
(-7.90846e-05 0.000149159 -0.111957)
(5.04449e-06 0.0001415 -0.11228)
(0.000138735 0.00013807 -0.112986)
(0.000290252 0.00014991 -0.113192)
(0.000225743 0.000165623 -0.112548)
(-3.14897e-05 0.000166346 -0.112623)
(-0.00015335 0.000156714 -0.111794)
(-9.97386e-05 0.000149827 -0.110242)
(-2.08088e-05 0.00015421 -0.110173)
(-3.64469e-05 0.000154178 -0.111491)
(-0.000296222 0.000179405 -0.119759)
(-0.000224872 0.000175803 -0.119024)
(-9.18577e-05 0.000167934 -0.119419)
(2.82844e-06 0.000159149 -0.119725)
(0.000149069 0.000154736 -0.120494)
(0.000306111 0.000168103 -0.120654)
(0.000237564 0.000186752 -0.119831)
(-3.59485e-05 0.000187796 -0.11987)
(-0.000167803 0.000176622 -0.119138)
(-0.000104661 0.000168973 -0.117615)
(-1.11301e-05 0.000173745 -0.117528)
(-2.55234e-05 0.000173182 -0.11889)
(-0.000316571 0.000199919 -0.127087)
(-0.000244617 0.000196181 -0.126433)
(-0.000106176 0.000187527 -0.126801)
(-2.95444e-07 0.000177548 -0.12709)
(0.000158574 0.000172025 -0.127917)
(0.000319647 0.000187019 -0.12802)
(0.00024777 0.000208967 -0.127007)
(-4.01854e-05 0.000210423 -0.127008)
(-0.000181927 0.000197531 -0.126392)
(-0.000109153 0.000189038 -0.124919)
(-1.38714e-07 0.000194175 -0.12481)
(-1.29101e-05 0.000192996 -0.126199)
(-0.000335976 0.000221245 -0.134312)
(-0.000264639 0.000217328 -0.13375)
(-0.000122046 0.00020786 -0.134095)
(-4.41069e-06 0.000196627 -0.134367)
(0.000166993 0.000189866 -0.135247)
(0.00033041 0.000206588 -0.135282)
(0.000256074 0.000232223 -0.134071)
(-4.40376e-05 0.000234206 -0.13403)
(-0.000195426 0.000219405 -0.133549)
(-0.000113176 0.000209958 -0.132147)
(1.19955e-05 0.000215429 -0.13201)
(1.29411e-06 0.000213562 -0.13341)
(-0.000354074 0.00024334 -0.141429)
(-0.000284712 0.000239169 -0.140966)
(-0.000139431 0.000228853 -0.141293)
(-9.57428e-06 0.000216309 -0.141551)
(0.000174078 0.000208185 -0.142475)
(0.000337969 0.00022674 -0.142435)
(0.000262184 0.000256473 -0.141018)
(-4.73443e-05 0.000259123 -0.140934)
(-0.000207991 0.000242206 -0.140604)
(-0.000116702 0.000231659 -0.139291)
(2.50701e-05 0.000237431 -0.139122)
(1.69835e-05 0.000234822 -0.140515)
(-0.00037048 0.000266162 -0.14843)
(-0.000304577 0.000261634 -0.148073)
(-0.000158243 0.000250427 -0.148387)
(-1.58098e-05 0.000236518 -0.148633)
(0.0001796 0.000226912 -0.149595)
(0.000341924 0.000247408 -0.149469)
(0.000265819 0.000281669 -0.147845)
(-4.99526e-05 0.000285151 -0.147716)
(-0.000219313 0.000265896 -0.147551)
(-0.000119707 0.000254065 -0.146345)
(3.88545e-05 0.0002601 -0.146139)
(3.405e-05 0.00025672 -0.147508)
(-0.000384803 0.000289674 -0.15531)
(-0.00032394 0.000284658 -0.15506)
(-0.000178336 0.000272507 -0.155367)
(-2.3101e-05 0.00025717 -0.155606)
(0.000183357 0.000245976 -0.156596)
(0.000341925 0.000268531 -0.15638)
(0.000266715 0.000307759 -0.154548)
(-5.17237e-05 0.000312264 -0.154375)
(-0.000229084 0.000290429 -0.154384)
(-0.000122175 0.00027709 -0.1533)
(5.30952e-05 0.000283351 -0.153052)
(5.23857e-05 0.000279197 -0.154382)
(-0.000396656 0.000313835 -0.16206)
(-0.000342471 0.000308181 -0.161919)
(-0.000199492 0.000295017 -0.162226)
(-3.1385e-05 0.000278181 -0.162461)
(0.000185185 0.00026531 -0.16347)
(0.000337688 0.000290046 -0.163158)
(0.000264635 0.000334683 -0.161125)
(-5.25412e-05 0.000340423 -0.160906)
(-0.000237015 0.000315757 -0.161096)
(-0.000124097 0.000300645 -0.160146)
(6.75232e-05 0.000307094 -0.159854)
(7.18854e-05 0.000302192 -0.161129)
(-0.00040567 0.000338606 -0.168671)
(-0.000359811 0.000332152 -0.168639)
(-0.000221422 0.000317886 -0.168951)
(-4.05481e-05 0.000299463 -0.169188)
(0.000184963 0.000284854 -0.170204)
(0.000329022 0.000311897 -0.169795)
(0.000259385 0.000362369 -0.16757)
(-5.23193e-05 0.000369579 -0.167305)
(-0.000242842 0.000341824 -0.167679)
(-0.000125464 0.000324636 -0.166874)
(8.18622e-05 0.000331232 -0.166534)
(9.24477e-05 0.000325638 -0.167741)
(-0.000411516 0.000363944 -0.175134)
(-0.000375572 0.00035652 -0.175209)
(-0.000243754 0.000341042 -0.175533)
(-5.04215e-05 0.000320925 -0.175773)
(0.000182627 0.000304552 -0.176787)
(0.000315838 0.000334029 -0.176282)
(0.00025083 0.000390731 -0.173879)
(-5.10118e-05 0.000399662 -0.173568)
(-0.000246345 0.000368566 -0.174123)
(-0.000126273 0.000348963 -0.173469)
(9.58392e-05 0.000355663 -0.173082)
(0.000113975 0.000349462 -0.174208)
(-0.00041392 0.0003898 -0.181438)
(-0.000389347 0.000381243 -0.181615)
(-0.000266038 0.000364416 -0.181956)
(-6.07821e-05 0.000342477 -0.182205)
(0.000178174 0.000324356 -0.183205)
(0.000298175 0.000356387 -0.182606)
(0.000238903 0.000419668 -0.180043)
(-4.86207e-05 0.000430586 -0.179686)
(-0.000247359 0.000395914 -0.180417)
(-0.000126517 0.000373528 -0.179918)
(0.000109197 0.000380279 -0.179486)
(0.000136374 0.000373579 -0.180521)
(-0.000412683 0.000416123 -0.18757)
(-0.00040072 0.000406279 -0.187845)
(-0.000287746 0.000387939 -0.188209)
(-7.13547e-05 0.000364027 -0.188468)
(0.000171667 0.000344227 -0.189443)
(0.000276205 0.000378921 -0.188756)
(0.000223619 0.000449058 -0.186055)
(-4.52024e-05 0.000462241 -0.185653)
(-0.00024579 0.000423787 -0.186549)
(-0.000126191 0.000398229 -0.186208)
(0.000121707 0.000404965 -0.185732)
(0.000159554 0.000397894 -0.186667)
(-0.000407695 0.000442853 -0.193519)
(-0.000409278 0.000431583 -0.193885)
(-0.000308288 0.000411541 -0.194277)
(-8.1819e-05 0.000385487 -0.194548)
(0.000163233 0.000364129 -0.195488)
(0.000250237 0.000401579 -0.19472)
(0.000205084 0.000478763 -0.191906)
(-4.0873e-05 0.000494493 -0.19146)
(-0.000241624 0.000452098 -0.192508)
(-0.000125284 0.000422965 -0.192321)
(0.000133185 0.000429596 -0.191808)
(0.000183426 0.000422295 -0.192637)
(-0.000398946 0.000469916 -0.199274)
(-0.000414626 0.000457103 -0.199724)
(-0.000327026 0.000435145 -0.200146)
(-9.18204e-05 0.000406767 -0.200431)
(0.000153062 0.000384033 -0.201326)
(0.000220714 0.000424307 -0.200486)
(0.000183494 0.000508626 -0.197586)
(-3.58084e-05 0.000527184 -0.197098)
(-0.000234933 0.000480746 -0.19828)
(-0.000123779 0.000447632 -0.198245)
(0.000143498 0.000454034 -0.197699)
(0.0002079 0.000446648 -0.19842)
(-0.000386525 0.000497225 -0.204823)
(-0.000416394 0.000482775 -0.205352)
(-0.000343293 0.00045867 -0.205806)
(-0.000100982 0.000427779 -0.206106)
(0.000141396 0.000403911 -0.206946)
(0.000188188 0.000447051 -0.206044)
(0.000159135 0.000538475 -0.203086)
(-3.02414e-05 0.000560133 -0.202558)
(-0.000225876 0.000509616 -0.203857)
(-0.000121651 0.000472123 -0.203968)
(0.000152583 0.000478132 -0.203395)
(0.00023289 0.000470801 -0.204005)
(-0.00037061 0.000524671 -0.21016)
(-0.00041425 0.00050851 -0.210759)
(-0.000356413 0.000482025 -0.211248)
(-0.000108914 0.000448433 -0.211561)
(0.000128524 0.000423721 -0.212339)
(0.000153306 0.000469755 -0.211384)
(0.000132364 0.000568129 -0.208399)
(-2.44547e-05 0.000593138 -0.207834)
(-0.000214694 0.00053858 -0.20923)
(-0.000118863 0.00049632 -0.20948)
(0.000160443 0.000501727 -0.208887)
(0.000258304 0.000494581 -0.209385)
(-0.000351466 0.000552092 -0.215278)
(-0.000407901 0.000534156 -0.215938)
(-0.000365713 0.000505055 -0.216461)
(-0.000115227 0.00046859 -0.216788)
(0.000114772 0.00044338 -0.217494)
(0.000116792 0.000492325 -0.216499)
(0.000103602 0.000597396 -0.213516)
(-1.87704e-05 0.000625979 -0.212919)
(-0.000201701 0.000567475 -0.21439)
(-0.000115366 0.000520053 -0.21477)
(0.000167151 0.000524609 -0.214166)
(0.000284037 0.000517764 -0.214553)
(-0.000329433 0.000579297 -0.220167)
(-0.000397117 0.000559548 -0.220879)
(-0.000370548 0.00052761 -0.221434)
(-0.000119537 0.000488112 -0.221773)
(0.0001005 0.000462829 -0.222402)
(7.94263e-05 0.000514673 -0.22138)
(7.33197e-05 0.000626057 -0.218431)
(-1.35393e-05 0.000658403 -0.217806)
(-0.000187275 0.000596086 -0.219329)
(-0.000111101 0.000543118 -0.219827)
(0.000172844 0.00054653 -0.21922)
(0.000309961 0.000540101 -0.2195)
(-0.000304908 0.000606076 -0.224821)
(-0.000381734 0.000584502 -0.225574)
(-0.000370333 0.00054953 -0.226158)
(-0.000121486 0.000506865 -0.226506)
(8.60859e-05 0.000482008 -0.227052)
(4.20174e-05 0.000536715 -0.226018)
(4.20279e-05 0.000653883 -0.223137)
(-9.12929e-06 0.000690126 -0.222488)
(-0.000171848 0.00062419 -0.224038)
(-0.000106 0.000565304 -0.22464)
(0.000177727 0.000567237 -0.224038)
(0.000335927 0.000561338 -0.224216)
(-0.000278324 0.000632194 -0.229232)
(-0.000361671 0.000608808 -0.230015)
(-0.000364573 0.000570645 -0.230622)
(-0.000120753 0.000524725 -0.230975)
(7.19214e-05 0.00050085 -0.231437)
(5.37348e-06 0.000558372 -0.230406)
(1.02638e-05 0.000680659 -0.227623)
(-5.91027e-06 0.000720863 -0.226957)
(-0.00015589 0.000651542 -0.228508)
(-9.99947e-05 0.000586378 -0.229199)
(0.000182059 0.000586462 -0.22861)
(0.000361761 0.000581207 -0.228693)
(-0.000250127 0.000657385 -0.233394)
(-0.000336936 0.00063223 -0.234195)
(-0.00035289 0.000590776 -0.234819)
(-0.000117066 0.000541569 -0.235173)
(5.83978e-05 0.000519293 -0.235549)
(-2.97264e-05 0.000579561 -0.234536)
(-2.14324e-05 0.000706171 -0.231881)
(-4.23634e-06 0.000750322 -0.231205)
(-0.00013989 0.000677871 -0.232732)
(-9.30166e-05 0.000606087 -0.233492)
(0.000186143 0.000603922 -0.232925)
(0.000387268 0.000599429 -0.232923)
(-0.00022075 0.000681363 -0.237301)
(-0.000307634 0.000654514 -0.238109)
(-0.000335045 0.000609743 -0.238741)
(-0.000110214 0.000557288 -0.239089)
(4.58983e-05 0.000537284 -0.239382)
(-6.256e-05 0.000600207 -0.238402)
(-5.25365e-05 0.000730209 -0.235901)
(-4.42739e-06 0.000778201 -0.235223)
(-0.000124333 0.000702888 -0.236701)
(-8.50086e-05 0.000624166 -0.237511)
(0.000190308 0.000619331 -0.236973)
(0.000412235 0.000615725 -0.236896)
(-0.000190593 0.00070382 -0.240949)
(-0.000273974 0.000675394 -0.241752)
(-0.000310968 0.000627372 -0.242382)
(-0.000100054 0.000571795 -0.242718)
(3.47894e-05 0.000554782 -0.242933)
(-9.24857e-05 0.000620244 -0.242)
(-8.2559e-05 0.000752575 -0.239676)
(-6.75132e-06 0.000804194 -0.239003)
(-0.000109685 0.000726288 -0.24041)
(-7.59327e-05 0.000640348 -0.241247)
(0.000194884 0.000632408 -0.240744)
(0.000436429 0.000629826 -0.240605)
(-0.000160003 0.00072444 -0.244335)
(-0.000236271 0.000694595 -0.245121)
(-0.000280765 0.000643504 -0.245738)
(-8.65193e-05 0.000585036 -0.246057)
(2.54123e-05 0.000571767 -0.246199)
(-0.000118963 0.000639619 -0.245327)
(-0.000111061 0.000773091 -0.243197)
(-1.1408e-05 0.000828003 -0.242536)
(-9.63659e-05 0.000747759 -0.243853)
(-6.57815e-05 0.000654369 -0.244697)
(0.000200183 0.000642895 -0.244233)
(0.000459605 0.000641484 -0.244045)
(-0.000129263 0.000742908 -0.247455)
(-0.000194943 0.000711848 -0.248214)
(-0.000244731 0.000658 -0.248807)
(-6.96213e-05 0.000596986 -0.249102)
(1.8075e-05 0.000588222 -0.249181)
(-0.000141568 0.000658294 -0.24838)
(-0.000137666 0.00079161 -0.246457)
(-1.85157e-05 0.000849347 -0.245815)
(-8.4735e-05 0.000766993 -0.247025)
(-5.45879e-05 0.000665986 -0.247854)
(0.000206462 0.000650564 -0.247433)
(0.000481509 0.00065049 -0.247209)
(-9.8585e-05 0.000758914 -0.25031)
(-0.000150506 0.000726863 -0.251032)
(-0.000203347 0.000670652 -0.25159)
(-4.94555e-05 0.00060753 -0.251855)
(1.30444e-05 0.000604071 -0.251881)
(-0.000159999 0.000676189 -0.251161)
(-0.000162071 0.000808022 -0.249452)
(-2.81007e-05 0.00086797 -0.248836)
(-7.50768e-05 0.000783692 -0.249925)
(-4.24353e-05 0.000674929 -0.250719)
(0.000213903 0.000655185 -0.250342)
(0.000501883 0.000656634 -0.250095)
(-6.81196e-05 0.000772069 -0.2529)
(-0.000103574 0.000739341 -0.253579)
(-0.000157271 0.000681414 -0.254091)
(-2.61991e-05 0.000616826 -0.254321)
(1.05415e-05 0.000619425 -0.254305)
(-0.000174077 0.000693308 -0.253673)
(-0.000184041 0.000822206 -0.252178)
(-4.00914e-05 0.000883633 -0.251593)
(-6.7593e-05 0.000797488 -0.252552)
(-2.94661e-05 0.000680969 -0.253294)
(0.000222584 0.000656572 -0.25296)
(0.000520464 0.000659756 -0.252703)
(-3.79607e-05 0.000782189 -0.255231)
(-5.48373e-05 0.000749116 -0.255858)
(-0.000107323 0.000690207 -0.256316)
(-1.11754e-07 0.00062489 -0.256508)
(1.07372e-05 0.000634273 -0.256462)
(-0.000183738 0.00070968 -0.25592)
(-0.000203414 0.000834135 -0.254635)
(-5.43181e-05 0.00089609 -0.254086)
(-6.23961e-05 0.000808187 -0.254909)
(-1.58867e-05 0.000683999 -0.255584)
(0.000232461 0.000654706 -0.255291)
(0.000536991 0.000659852 -0.255035)
(-8.174e-06 0.000789004 -0.257306)
(-5.0553e-06 0.000755953 -0.257878)
(-5.44546e-05 0.000696944 -0.258276)
(2.84687e-05 0.00063177 -0.258426)
(1.37406e-05 0.00064862 -0.258361)
(-0.000189022 0.000725296 -0.257911)
(-0.000220088 0.000843867 -0.256826)
(-7.05131e-05 0.000905283 -0.256314)
(-5.95119e-05 0.000815552 -0.257002)
(-1.96453e-06 0.00068385 -0.257597)
(0.000243361 0.000649515 -0.257341)
(0.00055121 0.000656884 -0.257097)
(2.11817e-05 0.000792294 -0.259133)
(4.49633e-05 0.000759667 -0.259648)
(2.81834e-07 0.000701572 -0.259981)
(5.91258e-05 0.000637535 -0.260089)
(1.959e-05 0.000662483 -0.260016)
(-0.000190069 0.000740168 -0.259656)
(-0.000234017 0.000851446 -0.258756)
(-8.83152e-05 0.000911103 -0.258283)
(-5.88755e-05 0.000819371 -0.258838)
(1.1982e-05 0.000680407 -0.259344)
(0.000254985 0.000640998 -0.259122)
(0.000562873 0.000650889 -0.258897)
(5.00261e-05 0.000791903 -0.260724)
(9.43734e-05 0.000760126 -0.261181)
(5.57575e-05 0.000704057 -0.261447)
(9.1362e-05 0.000642258 -0.261514)
(2.82403e-05 0.00067587 -0.261442)
(-0.000187102 0.000754324 -0.261168)
(-0.000245189 0.000856974 -0.260435)
(-0.000107276 0.000913512 -0.26)
(-6.0334e-05 0.000819491 -0.260426)
(2.55983e-05 0.000673597 -0.26084)
(0.000266918 0.000629217 -0.260647)
(0.00057175 0.000641969 -0.260447)
(7.82294e-05 0.00078773 -0.262089)
(0.000142307 0.000757239 -0.262488)
(0.000110794 0.000704374 -0.26269)
(0.000124594 0.000645995 -0.262718)
(3.95478e-05 0.000688777 -0.262654)
(-0.000180425 0.000767797 -0.26246)
(-0.00025362 0.000860593 -0.261874)
(-0.000126871 0.000912535 -0.261475)
(-6.36506e-05 0.000815803 -0.261781)
(3.85149e-05 0.000663377 -0.2621)
(0.000278658 0.000614265 -0.261931)
(0.000577633 0.000630278 -0.261761)
(0.00010559 0.000779725 -0.263242)
(0.000187891 0.000750962 -0.263585)
(0.000164195 0.00070251 -0.263726)
(0.000158155 0.000648782 -0.263719)
(5.32528e-05 0.000701185 -0.26367)
(-0.000170422 0.000780615 -0.263548)
(-0.000259346 0.000862461 -0.263089)
(-0.000146512 0.000908232 -0.262721)
(-6.85097e-05 0.000808245 -0.262917)
(5.03759e-05 0.000649751 -0.263143)
(0.000289658 0.000596265 -0.262994)
(0.000580365 0.000615994 -0.262857)
(0.000131832 0.000767923 -0.264198)
(0.000230292 0.000741361 -0.264489)
(0.000214819 0.000698511 -0.264574)
(0.000191326 0.000650675 -0.264538)
(6.89764e-05 0.000713077 -0.264507)
(-0.00015756 0.000792812 -0.26445)
(-0.000262432 0.000862762 -0.264095)
(-0.000165577 0.000900745 -0.263754)
(-7.45242e-05 0.000796904 -0.26385)
(6.08757e-05 0.000632897 -0.263989)
(0.000299385 0.000575456 -0.263855)
(0.000579865 0.000599332 -0.263752)
(0.000156658 0.000752525 -0.264975)
(0.000268885 0.00072859 -0.26522)
(0.000261743 0.000692487 -0.265258)
(0.000223422 0.000651764 -0.265197)
(8.62706e-05 0.000724458 -0.265187)
(-0.000142354 0.000804456 -0.265184)
(-0.000262992 0.000861765 -0.264913)
(-0.000183439 0.000890357 -0.264592)
(-8.12919e-05 0.000781936 -0.264601)
(6.97962e-05 0.000612972 -0.264662)
(0.000307378 0.000552204 -0.26454)
(0.000576157 0.000580703 -0.264469)
(0.000179823 0.000733704 -0.265595)
(0.000303275 0.000712819 -0.265801)
(0.000304383 0.000684539 -0.265799)
(0.000253954 0.000652104 -0.26572)
(0.000104714 0.000735327 -0.265733)
(-0.000125251 0.000815604 -0.265774)
(-0.000261155 0.000859727 -0.265566)
(-0.000199582 0.000877359 -0.26526)
(-8.84275e-05 0.000763548 -0.265196)
(7.70053e-05 0.000590192 -0.265189)
(0.000313307 0.000526819 -0.265073)
(0.00056936 0.000560395 -0.265033)
(0.000201067 0.000711731 -0.266082)
(0.000333141 0.000694283 -0.266253)
(0.00034229 0.000674783 -0.266223)
(0.000282494 0.000651748 -0.266132)
(0.000123846 0.000745685 -0.266166)
(-0.000106673 0.000826334 -0.266242)
(-0.000257023 0.000856917 -0.26608)
(-0.000213586 0.000862078 -0.265783)
(-9.55288e-05 0.000742012 -0.265657)
(8.24818e-05 0.000564816 -0.265591)
(0.000316979 0.000499599 -0.265483)
(0.000559626 0.000538743 -0.265471)
(0.000220112 0.000686914 -0.266454)
(0.000358262 0.000673232 -0.266595)
(0.000375097 0.000663318 -0.266546)
(0.000308572 0.000650684 -0.266451)
(0.000143138 0.000755461 -0.266505)
(-8.70889e-05 0.000836637 -0.266608)
(-0.000250725 0.000853545 -0.266477)
(-0.000225073 0.00084484 -0.266182)
(-0.000102197 0.000717624 -0.266004)
(8.63056e-05 0.000537101 -0.265891)
(0.000318319 0.00047089 -0.26579)
(0.000547191 0.000516109 -0.265803)
(0.00023674 0.000659552 -0.266729)
(0.000378576 0.00064992 -0.266847)
(0.000402614 0.000650235 -0.266788)
(0.000331796 0.000648881 -0.266694)
(0.000162076 0.000764591 -0.266765)
(-6.69341e-05 0.000846501 -0.266887)
(-0.000242419 0.000849763 -0.266777)
(-0.000233776 0.000825946 -0.26648)
(-0.000108084 0.00069069 -0.266259)
(8.86387e-05 0.000507309 -0.266108)
(0.000317375 0.000440969 -0.266014)
(0.000532345 0.000492776 -0.266049)
(0.000250794 0.000629962 -0.266926)
(0.000394136 0.000624608 -0.267026)
(0.000424789 0.000635624 -0.266963)
(0.000351861 0.000646297 -0.266876)
(0.000180175 0.000773 -0.266962)
(-4.66147e-05 0.000855895 -0.267098)
(-0.00023229 0.000845679 -0.266999)
(-0.000239548 0.000805674 -0.266696)
(-0.000112895 0.000661531 -0.266438)
(8.9705e-05 0.000475714 -0.266258)
(0.000314301 0.000410102 -0.266171)
(0.000515416 0.000469002 -0.266227)
(0.00026218 0.000598458 -0.26706)
(0.000405088 0.000597556 -0.267145)
(0.000441692 0.000619575 -0.267085)
(0.000368542 0.000642882 -0.267008)
(0.000196999 0.000780605 -0.267108)
(-2.64993e-05 0.000864766 -0.267252)
(-0.000220538 0.00084136 -0.267159)
(-0.000242346 0.000784276 -0.266846)
(-0.000116395 0.000630465 -0.266558)
(8.97658e-05 0.000442588 -0.266357)
(0.000309328 0.000378532 -0.266278)
(0.000496744 0.000445009 -0.266352)
(0.000270859 0.000565343 -0.267145)
(0.00041164 0.000569009 -0.267218)
(0.000453474 0.000602171 -0.267166)
(0.000381692 0.000638581 -0.267102)
(0.000212175 0.000787321 -0.267215)
(-6.90947e-06 0.000873041 -0.267363)
(-0.000207378 0.000836829 -0.26727)
(-0.000242226 0.000761964 -0.266946)
(-0.000118414 0.000597794 -0.266633)
(8.90969e-05 0.000408188 -0.266416)
(0.000302725 0.000346474 -0.266346)
(0.000476657 0.000420985 -0.266435)
(0.000276841 0.000530895 -0.26719)
(0.000414029 0.000539193 -0.267255)
(0.000460334 0.00058349 -0.267214)
(0.000391221 0.000633335 -0.267166)
(0.000225395 0.000793052 -0.267289)
(1.18821e-05 0.00088063 -0.267439)
(-0.000193026 0.000832067 -0.267343)
(-0.000239312 0.000738907 -0.267007)
(-0.000118841 0.000563796 -0.266674)
(8.79695e-05 0.000372758 -0.266446)
(0.00029478 0.000314117 -0.266384)
(0.000455456 0.000397077 -0.266486)
(0.000280158 0.000495371 -0.267206)
(0.000412492 0.000508314 -0.267265)
(0.000462489 0.000563602 -0.267237)
(0.000397078 0.000627087 -0.267207)
(0.000236406 0.000797703 -0.267339)
(2.96479e-05 0.000887426 -0.267489)
(-0.000177693 0.000827026 -0.267389)
(-0.000233781 0.000715237 -0.26704)
(-0.000117617 0.000528723 -0.266689)
(8.66392e-05 0.000336521 -0.266454)
(0.000285777 0.000281628 -0.266401)
(0.000433403 0.000373401 -0.266514)
(0.000280854 0.000459005 -0.2672)
(0.000407242 0.000476556 -0.267254)
(0.000460139 0.000542574 -0.267241)
(0.000399228 0.000619776 -0.26723)
(0.000245001 0.000801169 -0.267371)
(4.61958e-05 0.000893306 -0.267519)
(-0.000161581 0.000821627 -0.267413)
(-0.000225836 0.000691047 -0.267053)
(-0.00011472 0.000492793 -0.266686)
(8.53399e-05 0.000299685 -0.266446)
(0.000275982 0.000249151 -0.266401)
(0.000410723 0.000350045 -0.266525)
(0.000278967 0.000422007 -0.267177)
(0.000398453 0.000444084 -0.267229)
(0.000453456 0.000520465 -0.267232)
(0.000397638 0.000611344 -0.267239)
(0.000251001 0.000803343 -0.267389)
(6.1357e-05 0.000898135 -0.267534)
(-0.000144886 0.000815765 -0.267422)
(-0.000215692 0.000666397 -0.26705)
(-0.000110156 0.000456199 -0.266671)
(8.42836e-05 0.000262438 -0.266428)
(0.000265645 0.000216817 -0.266391)
(0.000387607 0.000327074 -0.266523)
(0.00027452 0.00038457 -0.267142)
(0.000386253 0.00041105 -0.267193)
(0.00044257 0.000497334 -0.267211)
(0.000392261 0.000601734 -0.267238)
(0.000254238 0.00080411 -0.267395)
(7.49731e-05 0.000901763 -0.267538)
(-0.000127795 0.00080932 -0.26742)
(-0.000203564 0.000641318 -0.267037)
(-0.000103947 0.000419106 -0.266648)
(8.36632e-05 0.000224952 -0.266404)
(0.000254995 0.000184745 -0.266373)
(0.000364221 0.000304539 -0.266512)
(0.000267521 0.000346878 -0.267099)
(0.000370724 0.000377592 -0.267149)
(0.000427573 0.000473239 -0.267183)
(0.000383036 0.00059089 -0.267229)
(0.000254545 0.00080335 -0.267394)
(8.68845e-05 0.000904028 -0.267534)
(-0.000110496 0.000802152 -0.26741)
(-0.000189661 0.000615819 -0.267018)
(-9.61243e-05 0.000381654 -0.26662)
(8.36547e-05 0.000187385 -0.266375)
(0.000244248 0.000153047 -0.266351)
(0.000340712 0.000282478 -0.266495)
(0.000257958 0.000309105 -0.267051)
(0.000351915 0.000343841 -0.267101)
(0.000408517 0.000448236 -0.26715)
(0.00036988 0.000578762 -0.267215)
(0.000251749 0.000800935 -0.267388)
(9.69227e-05 0.000904753 -0.267525)
(-9.31806e-05 0.000794108 -0.267394)
(-0.000174187 0.000589886 -0.266994)
(-8.67245e-05 0.000343962 -0.26659)
(8.44203e-05 0.000149884 -0.266345)
(0.000233606 0.00012183 -0.266326)
(0.000317214 0.00026092 -0.266473)
(0.000245813 0.000271421 -0.266999)
(0.000329845 0.000309923 -0.267049)
(0.000385431 0.000422388 -0.267113)
(0.000352697 0.000565302 -0.267197)
(0.000245665 0.000796735 -0.267377)
(0.000104905 0.000903752 -0.267511)
(-7.60459e-05 0.000785018 -0.267375)
(-0.000157342 0.000563487 -0.266969)
(-7.57884e-05 0.000306127 -0.26656)
(8.611e-05 0.000112584 -0.266316)
(0.000223258 9.11981e-05 -0.2663)
(0.000293855 0.000239888 -0.26645)
(0.000231058 0.000234 -0.266946)
(0.00030452 0.000275963 -0.266997)
(0.000358333 0.000395761 -0.267075)
(0.000331384 0.000550468 -0.267176)
(0.0002361 0.000790611 -0.267365)
(0.000110633 0.000900825 -0.267496)
(-5.92985e-05 0.000774702 -0.267355)
(-0.000139323 0.00053657 -0.266944)
(-6.3361e-05 0.000268227 -0.266532)
(8.88622e-05 7.56071e-05 -0.266288)
(0.000213386 6.12546e-05 -0.266274)
(0.00027076 0.000219403 -0.266425)
(0.000213676 0.000197016 -0.266892)
(0.00027595 0.000242086 -0.266945)
(0.000327241 0.000368425 -0.267036)
(0.000305846 0.000534227 -0.267155)
(0.000222859 0.000782425 -0.267351)
(0.000113899 0.00089576 -0.26748)
(-4.31544e-05 0.000762964 -0.267334)
(-0.00012033 0.000509071 -0.266919)