/*--------------------------------*- C++ -*----------------------------------*\
| =========                 |                                                 |
| \\      /  F ield         | OpenFOAM: The Open Source CFD Toolbox           |
|  \\    /   O peration     | Version:  v1912                                 |
|   \\  /    A nd           | Website:  www.openfoam.com                      |
|    \\/     M anipulation  |                                                 |
\*---------------------------------------------------------------------------*/
FoamFile
{
    version     2.0;
    format      ascii;
    class       volSymmTensorField;
    location    "8.4";
    object      UPrime2Mean;
}
// * * * * * * * * * * * * * * * * * * * * * * * * * * * * * * * * * * * * * //

dimensions      [0 2 -2 0 0 0 0];


internalField   nonuniform List<symmTensor> 
34128
(
(4.20297e-11 7.95806e-15 6.05431e-10 1.13473e-12 -2.88347e-09 1.07643e-05)
(5.33384e-11 7.59633e-15 4.96616e-10 1.13468e-12 -2.88383e-09 1.07844e-05)
(4.37985e-11 4.40418e-14 5.24931e-10 1.13448e-12 -2.88474e-09 1.07994e-05)
(3.67981e-11 5.40301e-14 4.04808e-10 1.13445e-12 -2.88337e-09 1.08058e-05)
(5.04099e-11 5.10524e-14 2.03601e-11 1.13457e-12 -2.88189e-09 1.07922e-05)
(4.39136e-11 4.56652e-14 -1.31995e-10 1.1347e-12 -2.88271e-09 1.07715e-05)
(4.12248e-11 -1.11248e-14 9.77757e-11 1.13451e-12 -2.88322e-09 1.07572e-05)
(5.81255e-11 -2.86521e-14 3.73462e-10 1.13413e-12 -2.88359e-09 1.07676e-05)
(5.62598e-11 5.17063e-14 3.95924e-10 1.13399e-12 -2.88424e-09 1.07872e-05)
(3.33981e-11 8.27675e-14 2.29703e-10 1.13445e-12 -2.88329e-09 1.07841e-05)
(2.84012e-11 4.35985e-14 8.47135e-11 1.13475e-12 -2.88177e-09 1.07664e-05)
(2.36876e-11 -8.92357e-15 3.3753e-11 1.13588e-12 -2.88306e-09 1.07654e-05)
(3.67138e-10 1.33611e-12 4.24425e-09 5.59967e-12 -1.14779e-08 4.26075e-05)
(4.63572e-10 9.89079e-13 3.57604e-09 5.60269e-12 -1.14574e-08 4.27572e-05)
(3.79396e-10 1.82893e-12 3.99258e-09 5.59524e-12 -1.14593e-08 4.28715e-05)
(3.21094e-10 1.46816e-12 3.12962e-09 5.60965e-12 -1.14223e-08 4.29242e-05)
(4.40934e-10 8.98561e-13 1.74791e-10 5.62089e-12 -1.1407e-08 4.28228e-05)
(3.84065e-10 8.86601e-13 -9.90639e-10 5.62149e-12 -1.14603e-08 4.26644e-05)
(3.63584e-10 -4.04227e-13 7.87923e-10 5.60498e-12 -1.14977e-08 4.25533e-05)
(5.11814e-10 -4.33214e-13 2.99807e-09 5.57303e-12 -1.14998e-08 4.26265e-05)
(4.95648e-10 1.82208e-12 3.52329e-09 5.56948e-12 -1.14886e-08 4.27741e-05)
(2.96109e-10 2.05977e-12 2.44556e-09 5.60652e-12 -1.14603e-08 4.27574e-05)
(2.48235e-10 8.53467e-13 1.16999e-09 5.63046e-12 -1.14358e-08 4.26288e-05)
(2.07061e-10 -2.81386e-13 6.20604e-10 5.62615e-12 -1.14349e-08 4.26223e-05)
(1.00489e-09 5.86668e-12 1.13293e-08 4.67753e-12 -9.73455e-09 8.24944e-05)
(1.26312e-09 4.22503e-12 9.71952e-09 4.71948e-12 -9.61323e-09 8.28649e-05)
(1.03166e-09 7.84253e-12 1.07918e-08 4.67823e-12 -9.59065e-09 8.31531e-05)
(8.79406e-10 5.53582e-12 8.31799e-09 4.7945e-12 -9.42846e-09 8.32905e-05)
(1.20888e-09 2.74239e-12 7.09769e-10 4.8464e-12 -9.39119e-09 8.30379e-05)
(1.05211e-09 3.19212e-12 -2.3128e-09 4.8023e-12 -9.64614e-09 8.26432e-05)
(1.00275e-09 -1.86162e-12 1.94626e-09 4.67754e-12 -9.82877e-09 8.23648e-05)
(1.4094e-09 -1.24356e-12 7.44888e-09 4.46858e-12 -9.83498e-09 8.25377e-05)
(1.36566e-09 8.70633e-12 9.21143e-09 4.47074e-12 -9.75728e-09 8.29017e-05)
(8.20731e-10 9.11368e-12 6.66726e-09 4.72985e-12 -9.63224e-09 8.28705e-05)
(6.80421e-10 3.82727e-12 3.14832e-09 4.8893e-12 -9.55039e-09 8.25567e-05)
(5.67573e-10 -5.44432e-13 1.49562e-09 4.86183e-12 -9.54582e-09 8.25415e-05)
(1.94638e-09 1.61439e-11 2.11282e-08 9.33886e-12 -6.81139e-09 0.000123822)
(2.43512e-09 1.17723e-11 1.84563e-08 9.50904e-12 -6.47833e-09 0.000124477)
(1.98585e-09 2.13617e-11 2.0395e-08 9.38041e-12 -6.38643e-09 0.000124996)
(1.70614e-09 1.44256e-11 1.53123e-08 9.84297e-12 -5.96276e-09 0.000125246)
(2.34606e-09 6.68614e-12 1.48232e-09 1.00117e-11 -5.89351e-09 0.000124794)
(2.03922e-09 8.15611e-12 -3.90746e-09 9.78651e-12 -6.56352e-09 0.000124095)
(1.95617e-09 -4.99194e-12 3.36858e-09 9.30416e-12 -7.0537e-09 0.000123602)
(2.74483e-09 -2.79238e-12 1.3101e-08 8.5276e-12 -7.0924e-09 0.000123893)
(2.66135e-09 2.41091e-11 1.69149e-08 8.56527e-12 -6.87414e-09 0.000124532)
(1.60958e-09 2.49011e-11 1.25397e-08 9.54685e-12 -6.52912e-09 0.000124493)
(1.32056e-09 1.05624e-11 5.80245e-09 1.01476e-11 -6.32472e-09 0.000123944)
(1.10136e-09 -9.76571e-13 2.56805e-09 1.00427e-11 -6.31877e-09 0.000123919)
(3.18346e-09 3.43639e-11 3.27526e-08 1.75682e-11 1.04297e-08 0.0001632)
(3.96343e-09 2.54748e-11 2.91745e-08 1.80617e-11 1.11299e-08 0.000164179)
(3.22844e-09 4.50053e-11 3.21454e-08 1.77868e-11 1.13785e-08 0.000164973)
(2.79752e-09 2.91066e-11 2.33133e-08 1.90786e-11 1.22321e-08 0.000165354)
(3.84549e-09 1.26584e-11 2.18847e-09 1.94574e-11 1.23108e-08 0.000164661)
(3.33705e-09 1.61556e-11 -5.69723e-09 1.87105e-11 1.09563e-08 0.00016362)
(3.22142e-09 -1.03793e-11 4.84812e-09 1.73952e-11 9.95366e-09 0.000162884)
(4.51166e-09 -4.80315e-12 1.94023e-08 1.53602e-11 9.83947e-09 0.000163299)
(4.37749e-09 5.12624e-11 2.60801e-08 1.55285e-11 1.03062e-08 0.000164248)
(2.66559e-09 5.24026e-11 1.9629e-08 1.8151e-11 1.10278e-08 0.000164211)
(2.16526e-09 2.24048e-11 8.87833e-09 1.97403e-11 1.14116e-08 0.000163396)
(1.80505e-09 -1.17399e-12 3.82258e-09 1.94664e-11 1.14205e-08 0.000163358)
(4.70784e-09 6.24575e-11 4.53995e-08 3.78448e-11 3.48997e-08 0.000198748)
(5.83154e-09 4.73636e-11 4.13064e-08 3.89463e-11 3.61357e-08 0.000200073)
(4.74599e-09 8.1644e-11 4.54139e-08 3.8477e-11 3.66614e-08 0.000201173)
(4.15036e-09 5.11498e-11 3.15371e-08 4.14145e-11 3.81346e-08 0.000201692)
(5.69988e-09 2.15309e-11 2.46778e-09 4.21474e-11 3.81707e-08 0.000200727)
(4.93675e-09 2.82013e-11 -7.68941e-09 4.0293e-11 3.5843e-08 0.000199326)
(4.79515e-09 -1.83594e-11 6.16854e-09 3.73787e-11 3.41088e-08 0.000198341)
(6.70157e-09 -7.22633e-12 2.58546e-08 3.29765e-11 3.38466e-08 0.000198874)
(6.50704e-09 9.31811e-11 3.61593e-08 3.34346e-11 3.46776e-08 0.000200144)
(3.99129e-09 9.49404e-11 2.74706e-08 3.91803e-11 3.59663e-08 0.000200123)
(3.21133e-09 4.0956e-11 1.21068e-08 4.2649e-11 3.65884e-08 0.000199026)
(2.67495e-09 -1.05654e-12 5.25053e-09 4.20611e-11 3.66006e-08 0.000198974)
(6.5104e-09 1.01971e-10 5.8352e-08 7.5178e-11 6.84018e-08 0.000229467)
(8.022e-09 7.94023e-11 5.43287e-08 7.72778e-11 7.03591e-08 0.000231143)
(6.52453e-09 1.33837e-10 5.96237e-08 7.66243e-11 7.13273e-08 0.000232572)
(5.76113e-09 8.15487e-11 3.92924e-08 8.24579e-11 7.36222e-08 0.000233227)
(7.90057e-09 3.37514e-11 1.97375e-09 8.37175e-11 7.35128e-08 0.000231961)
(6.82829e-09 4.50263e-11 -9.94126e-09 7.98218e-11 6.9911e-08 0.000230205)
(6.67236e-09 -2.91645e-11 7.12313e-09 7.41929e-11 6.72231e-08 0.000228979)
(9.30336e-09 -9.65518e-12 3.20317e-08 6.58367e-11 6.6719e-08 0.000229616)
(9.04005e-09 1.528e-10 4.66528e-08 6.684e-11 6.80416e-08 0.000231206)
(5.58811e-09 1.55644e-10 3.56338e-08 7.78571e-11 7.01091e-08 0.000231213)
(4.4553e-09 6.78582e-11 1.52467e-08 8.44931e-11 7.10097e-08 0.000229829)
(3.70662e-09 -1.93571e-13 6.84695e-09 8.33924e-11 7.10256e-08 0.000229759)
(8.58113e-09 1.54139e-10 7.10186e-08 1.36427e-10 1.10149e-07 0.000254923)
(1.05164e-08 1.23666e-10 6.77889e-08 1.4002e-10 1.13023e-07 0.000256946)
(8.54942e-09 2.04075e-10 7.42897e-08 1.39314e-10 1.14646e-07 0.000258719)
(7.62547e-09 1.21184e-10 4.60582e-08 1.49832e-10 1.1797e-07 0.0002595)
(1.04371e-08 4.98926e-11 4.45016e-10 1.51802e-10 1.17554e-07 0.000257911)
(9.00033e-09 6.74411e-11 -1.25157e-08 1.44502e-10 1.12378e-07 0.000255817)
(8.84619e-09 -4.28205e-11 7.54121e-09 1.34639e-10 1.08524e-07 0.000254372)
(1.23027e-08 -1.1496e-11 3.76004e-08 1.20192e-10 1.07664e-07 0.000255096)
(1.19635e-08 2.32871e-10 5.71505e-08 1.22112e-10 1.09611e-07 0.000256987)
(7.45611e-09 2.37618e-10 4.37804e-08 1.41323e-10 1.12683e-07 0.000257035)
(5.89333e-09 1.04894e-10 1.81266e-08 1.52872e-10 1.1388e-07 0.000255369)
(4.89469e-09 1.98156e-12 8.60809e-09 1.51005e-10 1.13898e-07 0.000255277)
(1.09096e-08 2.1988e-10 8.29565e-08 2.29043e-10 1.5936e-07 0.000275058)
(1.32963e-08 1.82338e-10 8.13227e-08 2.34739e-10 1.6335e-07 0.000277414)
(1.08058e-08 2.94713e-10 8.90439e-08 2.34325e-10 1.6589e-07 0.000279537)
(9.73837e-09 1.70713e-10 5.15266e-08 2.51953e-10 1.70453e-07 0.000280431)
(1.32978e-08 7.052e-11 -2.24837e-09 2.54784e-10 1.69506e-07 0.000278503)
(1.14406e-08 9.62198e-11 -1.5444e-08 2.42204e-10 1.62463e-07 0.000276101)
(1.13084e-08 -5.91656e-11 7.30876e-09 2.2613e-10 1.5725e-07 0.000274464)
(1.56831e-08 -1.19223e-11 4.23308e-08 2.0285e-10 1.559e-07 0.000275254)
(1.52618e-08 3.35907e-10 6.73575e-08 2.06197e-10 1.58606e-07 0.000277422)
(9.59431e-09 3.43854e-10 5.16993e-08 2.3739e-10 1.6292e-07 0.000277523)
(7.52146e-09 1.53971e-10 2.06689e-08 2.56104e-10 1.64404e-07 0.000275585)
(6.23321e-09 6.24022e-12 1.05306e-08 2.53161e-10 1.64419e-07 0.000275467)
(1.3486e-08 2.99848e-10 9.3871e-08 3.60905e-10 2.15082e-07 0.000290047)
(1.63442e-08 2.57736e-10 9.46566e-08 3.69449e-10 2.20393e-07 0.000292715)
(1.32798e-08 4.08002e-10 1.0364e-07 3.70005e-10 2.24155e-07 0.000295189)
(1.20947e-08 2.30602e-10 5.5602e-08 3.97891e-10 2.30165e-07 0.00029618)
(1.64705e-08 9.6179e-11 -6.09306e-09 4.01628e-10 2.28402e-07 0.000293905)
(1.41368e-08 1.32067e-10 -1.87036e-08 3.81297e-10 2.19214e-07 0.000291228)
(1.40502e-08 -7.78802e-11 6.37777e-09 3.56532e-10 2.12469e-07 0.000289432)
(1.94271e-08 -9.90171e-12 4.60928e-08 3.21016e-10 2.10481e-07 0.000290267)
(1.89186e-08 4.64161e-10 7.71007e-08 3.26468e-10 2.14077e-07 0.000292679)
(1.20014e-08 4.77217e-10 5.93141e-08 3.74388e-10 2.19877e-07 0.000292843)
(9.33621e-09 2.17129e-10 2.28932e-08 4.03058e-10 2.21622e-07 0.000290654)
(7.71616e-09 1.35565e-11 1.26126e-08 3.98679e-10 2.21623e-07 0.000290503)
(1.63024e-08 3.94475e-10 1.0359e-07 5.40296e-10 2.76398e-07 0.000300195)
(1.96457e-08 3.52329e-10 1.07598e-07 5.52614e-10 2.83231e-07 0.000303149)
(1.59595e-08 5.46112e-10 1.17936e-07 5.55304e-10 2.88565e-07 0.000305968)
(1.46904e-08 3.01101e-10 5.83621e-08 5.97395e-10 2.96233e-07 0.000307042)
(1.9944e-08 1.27321e-10 -1.09521e-08 6.01856e-10 2.93313e-07 0.000304417)
(1.70777e-08 1.75554e-10 -2.22143e-08 5.7064e-10 2.81718e-07 0.000301502)
(1.7064e-08 -9.8562e-11 4.76352e-09 5.34147e-10 2.73291e-07 0.00029958)
(2.35188e-08 -4.25831e-12 4.88409e-08 4.82273e-10 2.70494e-07 0.000300438)
(2.29186e-08 6.19618e-10 8.63142e-08 4.90705e-10 2.75108e-07 0.000303062)
(1.4677e-08 6.40443e-10 6.66639e-08 5.61144e-10 2.8265e-07 0.000303299)
(1.13354e-08 2.9653e-10 2.49009e-08 6.03131e-10 2.84612e-07 0.000300881)
(9.33835e-09 2.51008e-11 1.48562e-08 5.969e-10 2.84581e-07 0.00030069)
(1.93537e-08 5.03962e-10 1.12027e-07 7.75786e-10 3.42353e-07 0.000305864)
(2.31905e-08 4.68684e-10 1.20017e-07 7.93045e-10 3.50904e-07 0.000309077)
(1.88364e-08 7.11126e-10 1.31869e-07 7.99713e-10 3.58195e-07 0.000312228)
(1.75232e-08 3.82234e-10 5.99967e-08 8.60806e-10 3.67731e-07 0.000313372)
(2.37097e-08 1.64242e-10 -1.66038e-08 8.65425e-10 3.63265e-07 0.000310404)
(2.02543e-08 2.27071e-10 -2.5849e-08 8.19465e-10 3.49022e-07 0.000307288)
(2.03442e-08 -1.20802e-10 2.53255e-09 7.67608e-10 3.38786e-07 0.000305271)
(2.79455e-08 6.24293e-12 5.05924e-08 6.94463e-10 3.34991e-07 0.00030613)
(2.72496e-08 8.03971e-10 9.50098e-08 7.06984e-10 3.4074e-07 0.000308931)
(1.76227e-08 8.36111e-10 7.38685e-08 8.0688e-10 3.50292e-07 0.000309251)
(1.35189e-08 3.94443e-10 2.68488e-08 8.66133e-10 3.52423e-07 0.000306632)
(1.1096e-08 4.22178e-11 1.72696e-08 8.57569e-10 3.52333e-07 0.000306395)
(2.26393e-08 6.28674e-10 1.19121e-07 1.07651e-09 4.12033e-07 0.00030742)
(2.69745e-08 6.09436e-10 1.31823e-07 1.10017e-09 4.22487e-07 0.000310862)
(2.19068e-08 9.04879e-10 1.45431e-07 1.11347e-09 4.3215e-07 0.000314331)
(2.05942e-08 4.74224e-10 6.07106e-08 1.19926e-09 4.43768e-07 0.000315535)
(2.77631e-08 2.07368e-10 -2.28161e-08 1.20302e-09 4.37329e-07 0.000312233)
(2.36608e-08 2.86827e-10 -2.94609e-08 1.13767e-09 4.20222e-07 0.000308951)
(2.38895e-08 -1.44022e-10 -2.32651e-10 1.06614e-09 4.08071e-07 0.00030687)
(3.27003e-08 2.31164e-11 5.13814e-08 9.6598e-10 4.03064e-07 0.00030771)
(3.19049e-08 1.01854e-09 1.03249e-07 9.83964e-10 4.10055e-07 0.000310654)
(2.08433e-08 1.06658e-09 8.10895e-08 1.12146e-09 4.21898e-07 0.000311065)
(1.58895e-08 5.13353e-10 2.89078e-08 1.20259e-09 4.24154e-07 0.000308273)
(1.2988e-08 6.63617e-11 1.98706e-08 1.19115e-09 4.23969e-07 0.000307985)
(2.61644e-08 7.6821e-10 1.24843e-07 1.4517e-09 4.84458e-07 0.000305208)
(3.10008e-08 7.77277e-10 1.42944e-07 1.4837e-09 4.96994e-07 0.000308847)
(2.51726e-08 1.12955e-09 1.58605e-07 1.50752e-09 5.09474e-07 0.000312616)
(2.39094e-08 5.76592e-10 6.07011e-08 1.62461e-09 5.2339e-07 0.000313872)
(3.21055e-08 2.56369e-10 -2.93562e-08 1.62554e-09 5.14504e-07 0.000310251)
(2.72965e-08 3.54629e-10 -3.28971e-08 1.53533e-09 4.94347e-07 0.000306839)
(2.77039e-08 -1.68084e-10 -3.43757e-09 1.43914e-09 4.80203e-07 0.00030472)
(3.77838e-08 4.74741e-11 5.12505e-08 1.30523e-09 4.73743e-07 0.000305522)
(3.68847e-08 1.26481e-09 1.11077e-07 1.33038e-09 4.82067e-07 0.000308575)
(2.43488e-08 1.3344e-09 8.84675e-08 1.51504e-09 4.965e-07 0.000309086)
(1.84541e-08 6.55659e-10 3.12485e-08 1.62319e-09 4.98839e-07 0.000306152)
(1.50162e-08 9.91901e-11 2.26758e-08 1.60819e-09 4.98511e-07 0.000305809)
(2.99372e-08 9.21913e-10 1.29232e-07 1.91e-09 5.58458e-07 0.000299595)
(3.5277e-08 9.7446e-10 1.53331e-07 1.95271e-09 5.73233e-07 0.000303395)
(2.86395e-08 1.38658e-09 1.71371e-07 1.99232e-09 5.88986e-07 0.000307442)
(2.7477e-08 6.88505e-10 6.02097e-08 2.14826e-09 6.05414e-07 0.000308744)
(3.67405e-08 3.10574e-10 -3.59474e-08 2.14334e-09 5.93594e-07 0.000304827)
(3.11626e-08 4.29954e-10 -3.59933e-08 2.022e-09 5.70238e-07 0.000301318)
(3.17943e-08 -1.93002e-10 -6.95172e-09 1.8955e-09 5.5405e-07 0.000299186)
(4.32e-08 8.01968e-11 5.02866e-08 1.71997e-09 5.45869e-07 0.000299932)
(4.21922e-08 1.54331e-09 1.18541e-07 1.75433e-09 5.55594e-07 0.000303062)
(2.81514e-08 1.64133e-09 9.61392e-08 1.99719e-09 5.72928e-07 0.000303679)
(2.12219e-08 8.23729e-10 3.40552e-08 2.13817e-09 5.75333e-07 0.000300635)
(1.71843e-08 1.42325e-10 2.5701e-08 2.11879e-09 5.74803e-07 0.000300234)
(3.39676e-08 1.08879e-09 1.32342e-07 2.4601e-09 6.32903e-07 0.000290977)
(3.98134e-08 1.20298e-09 1.62965e-07 2.51651e-09 6.50051e-07 0.000294904)
(3.23152e-08 1.67723e-09 1.83724e-07 2.57881e-09 6.69538e-07 0.000299201)
(3.13065e-08 8.09151e-10 5.94633e-08 2.78208e-09 6.88689e-07 0.000300547)
(4.16723e-08 3.69218e-10 -4.23299e-08 2.7669e-09 6.73437e-07 0.000296358)
(3.52608e-08 5.11963e-10 -3.86013e-08 2.60737e-09 6.46778e-07 0.000292786)
(3.6169e-08 -2.18939e-10 -1.06371e-08 2.44427e-09 6.2852e-07 0.000290663)
(4.89543e-08 1.22045e-10 4.85962e-08 2.21803e-09 6.18326e-07 0.000291336)
(4.78319e-08 1.85445e-09 1.25699e-07 2.26395e-09 6.29495e-07 0.000294514)
(3.22643e-08 1.9891e-09 1.04238e-07 2.57767e-09 6.50051e-07 0.000295241)
(2.42031e-08 1.02006e-09 3.74916e-08 2.7579e-09 6.52531e-07 0.00029212)
(1.94971e-08 1.97481e-10 2.89651e-08 2.73309e-09 6.51732e-07 0.00029166)
(3.82683e-08 1.26737e-09 1.34222e-07 3.1106e-09 7.0663e-07 0.000279745)
(4.46241e-08 1.46439e-09 1.71822e-07 3.18436e-09 7.26263e-07 0.000283763)
(3.62107e-08 2.0024e-09 1.95637e-07 3.27823e-09 7.49941e-07 0.000288285)
(3.54097e-08 9.37413e-10 5.86164e-08 3.53821e-09 7.7202e-07 0.000289672)
(4.6907e-08 4.31132e-10 -4.83124e-08 3.50664e-09 7.52835e-07 0.00028524)
(3.95944e-08 5.99432e-10 -4.06136e-08 3.30115e-09 7.22816e-07 0.000281635)
(4.0839e-08 -2.46358e-10 -1.43768e-08 3.09452e-09 7.02493e-07 0.00027954)
(5.50559e-08 1.73489e-10 4.62701e-08 2.80703e-09 6.89967e-07 0.000280126)
(5.38112e-08 2.19829e-09 1.32575e-07 2.86725e-09 7.02597e-07 0.000283322)
(3.67028e-08 2.37917e-09 1.12832e-07 3.26621e-09 7.26703e-07 0.000284163)
(2.74102e-08 1.24712e-09 4.16679e-08 3.49277e-09 7.29294e-07 0.000280998)
(2.19611e-08 2.66382e-10 3.2476e-08 3.46121e-09 7.28148e-07 0.000280477)
(4.28541e-08 1.45561e-09 1.34912e-07 3.86989e-09 7.78426e-07 0.000266285)
(4.97272e-08 1.75965e-09 1.79873e-07 3.96544e-09 8.00629e-07 0.00027036)
(4.03407e-08 2.3625e-09 2.07057e-07 4.10193e-09 8.28947e-07 0.000275078)
(3.98007e-08 1.07194e-09 5.77597e-08 4.42892e-09 8.54146e-07 0.000276505)
(5.24522e-08 4.94812e-10 -5.37645e-08 4.37287e-09 8.30529e-07 0.00027186)
(4.41682e-08 6.90722e-10 -4.19646e-08 4.11297e-09 7.97148e-07 0.000268251)
(4.58178e-08 -2.75983e-10 -1.80773e-08 3.85528e-09 7.74795e-07 0.000266201)
(6.15164e-08 2.34742e-10 4.3382e-08 3.49439e-09 7.59599e-07 0.000266688)
(6.01394e-08 2.5745e-09 1.3915e-07 3.57198e-09 7.73677e-07 0.000269876)
(4.14837e-08 2.81265e-09 1.21929e-07 4.07245e-09 8.0166e-07 0.000270832)
(3.08571e-08 1.5074e-09 4.66395e-08 4.3531e-09 8.0443e-07 0.000267652)
(2.45844e-08 3.50762e-10 3.62283e-08 4.31307e-09 8.0285e-07 0.000267073)
(4.77416e-08 1.6509e-09 1.34442e-07 4.74611e-09 8.47041e-07 0.000250979)
(5.5143e-08 2.08906e-09 1.87073e-07 4.86878e-09 8.7187e-07 0.000255075)
(4.47221e-08 2.75737e-09 2.17899e-07 5.06135e-09 9.05259e-07 0.000259961)
(4.44948e-08 1.21118e-09 5.69203e-08 5.46656e-09 9.33753e-07 0.000261426)
(5.83155e-08 5.58439e-10 -5.86192e-08 5.37571e-09 9.05215e-07 0.000256597)
(4.89876e-08 7.83753e-10 -4.26327e-08 5.05236e-09 8.68528e-07 0.000253013)
(5.11206e-08 -3.08796e-10 -2.16745e-08 4.73553e-09 8.44214e-07 0.000251025)
(6.83492e-08 3.05785e-10 3.99828e-08 4.28727e-09 8.25992e-07 0.000251402)
(6.68272e-08 2.98236e-09 1.45369e-07 4.38564e-09 8.41474e-07 0.000254556)
(4.66247e-08 3.29028e-09 1.31468e-07 5.00585e-09 8.73656e-07 0.000255627)
(3.45593e-08 1.80337e-09 5.24009e-08 5.34912e-09 8.76698e-07 0.00025246)
(2.73764e-08 4.52362e-10 4.01976e-08 5.29845e-09 8.74592e-07 0.000251825)
(5.29474e-08 1.84993e-09 1.32828e-07 5.74721e-09 9.11198e-07 0.000234197)
(6.08935e-08 2.45208e-09 1.93358e-07 5.9033e-09 9.3868e-07 0.000238283)
(4.9374e-08 3.1862e-09 2.2805e-07 6.16805e-09 9.77547e-07 0.000243306)
(4.95085e-08 1.35335e-09 5.60707e-08 6.66355e-09 1.00948e-06 0.000244807)
(6.45034e-08 6.1986e-10 -6.28675e-08 6.52512e-09 9.75548e-07 0.000239823)
(5.4058e-08 8.75958e-10 -4.26389e-08 6.12882e-09 9.3568e-07 0.000236295)
(5.67637e-08 -3.46043e-10 -2.51344e-08 5.74421e-09 9.09508e-07 0.000234381)
(7.55679e-08 3.86384e-10 3.60997e-08 5.19261e-09 8.87894e-07 0.000234639)
(7.38847e-08 3.42073e-09 1.51134e-07 5.31545e-09 9.04705e-07 0.000237737)
(5.21431e-08 3.81236e-09 1.41322e-07 6.0757e-09 9.41391e-07 0.000238919)
(3.85325e-08 2.13747e-09 5.88822e-08 6.49096e-09 9.44822e-07 0.000235792)
(3.03472e-08 5.72932e-10 4.43362e-08 6.42696e-09 9.42091e-07 0.000235106)
(5.84869e-08 2.04862e-09 1.30071e-07 6.88084e-09 9.69615e-07 0.000216308)
(6.70001e-08 2.8473e-09 1.98639e-07 7.07773e-09 9.99742e-07 0.00022035)
(5.43166e-08 3.6475e-09 2.37369e-07 7.43359e-09 1.04446e-06 0.000225483)
(5.48575e-08 1.49646e-09 5.51433e-08 8.03226e-09 1.07996e-06 0.000227013)
(7.10198e-08 6.76564e-10 -6.65477e-08 7.83085e-09 1.04017e-06 0.000221905)
(5.93833e-08 9.64241e-10 -4.20423e-08 7.35172e-09 9.9731e-07 0.000218461)
(6.27625e-08 -3.89256e-10 -2.84509e-08 6.89016e-09 9.69426e-07 0.000216635)
(8.31846e-08 4.76097e-10 3.17397e-08 6.21704e-09 9.44048e-07 0.000216767)
(8.13196e-08 3.88805e-09 1.5631e-07 6.36834e-09 9.62083e-07 0.000219784)
(5.80545e-08 4.37872e-09 1.51299e-07 7.29105e-09 1.00355e-06 0.000221075)
(4.27922e-08 2.51207e-09 6.59507e-08 7.78861e-09 1.0075e-06 0.000218011)
(3.35068e-08 7.1424e-10 4.85704e-08 7.70798e-09 1.00405e-06 0.000217278)
(6.43726e-08 2.242e-09 1.26164e-07 8.1543e-09 1.02102e-06 0.000197669)
(7.34822e-08 3.27226e-09 2.02806e-07 8.40057e-09 1.05376e-06 0.000201637)
(5.95695e-08 4.139e-09 2.45692e-07 8.86949e-09 1.10467e-06 0.000206848)
(6.05556e-08 1.63826e-09 5.40495e-08 9.58497e-09 1.14379e-06 0.000208403)
(7.78633e-08 7.25665e-10 -6.97297e-08 9.30239e-09 1.09771e-06 0.000203198)
(6.49649e-08 1.04494e-09 -4.09319e-08 8.73029e-09 1.05213e-06 0.000199867)
(6.91303e-08 -4.40282e-10 -3.16382e-08 8.18208e-09 1.02273e-06 0.000198143)
(9.12069e-08 5.74286e-10 2.68965e-08 7.36685e-09 9.93218e-07 0.000198143)
(8.91353e-08 4.38232e-09 1.60732e-07 7.55084e-09 1.01234e-06 0.000201059)
(6.43708e-08 4.98865e-09 1.61144e-07 8.66056e-09 1.05883e-06 0.00020245)
(4.73522e-08 2.92937e-09 7.34154e-08 9.2518e-09 1.06345e-06 0.000199472)
(3.68648e-08 8.78065e-10 5.27989e-08 9.15059e-09 1.05916e-06 0.000198697)
(7.06114e-08 2.42417e-09 1.21097e-07 9.57443e-09 1.0642e-06 0.00017863)
(8.03539e-08 3.72339e-09 2.05729e-07 9.87998e-09 1.09946e-06 0.000182496)
(6.51503e-08 4.65768e-09 2.52844e-07 1.04871e-08 1.15686e-06 0.000187755)
(6.66129e-08 1.77632e-09 5.27005e-08 1.13337e-08 1.19964e-06 0.000189325)
(8.50253e-08 7.63892e-10 -7.24986e-08 1.09488e-08 1.14686e-06 0.000184052)
(7.07999e-08 1.11378e-09 -3.94177e-08 1.02735e-08 1.09891e-06 0.000180864)
(7.58761e-08 -5.01335e-10 -3.47224e-08 9.62835e-09 1.0682e-06 0.000179253)
(9.96359e-08 6.80108e-10 2.15615e-08 8.64787e-09 1.03422e-06 0.000179117)
(9.73278e-08 4.90105e-09 1.64213e-07 8.86896e-09 1.05427e-06 0.000181911)
(7.10977e-08 5.64076e-09 1.70556e-07 1.01924e-08 1.10596e-06 0.000183395)
(5.2223e-08 3.39134e-09 8.10342e-08 1.08899e-08 1.11139e-06 0.000180522)
(4.0429e-08 1.06619e-09 5.68941e-08 1.07634e-08 1.10616e-06 0.00017971)
(7.72025e-08 2.58819e-09 1.14864e-07 1.11475e-08 1.09801e-06 0.000159531)
(8.76216e-08 4.19583e-09 2.0727e-07 1.15236e-08 1.13569e-06 0.000163266)
(7.10725e-08 5.1997e-09 2.58646e-07 1.22975e-08 1.1998e-06 0.000168541)
(7.30332e-08 1.908e-09 5.10257e-08 1.329e-08 1.24622e-06 0.000170117)
(9.24867e-08 7.87611e-10 -7.49385e-08 1.27787e-08 1.18637e-06 0.000164804)
(7.68792e-08 1.16587e-09 -3.76206e-08 1.19898e-08 1.13645e-06 0.000161786)
(8.30017e-08 -5.7505e-10 -3.77308e-08 1.12369e-08 1.10472e-06 0.000160303)
(1.08462e-07 7.92506e-10 1.57339e-08 1.00652e-08 1.06594e-06 0.000160027)
(1.05882e-07 5.44128e-09 1.66559e-07 1.03281e-08 1.08674e-06 0.000162679)
(7.82324e-08 6.33299e-09 1.79197e-07 1.18941e-08 1.14376e-06 0.000164245)
(5.74103e-08 3.89962e-09 8.85239e-08 1.27116e-08 1.15012e-06 0.000161495)
(4.42045e-08 1.28041e-09 6.07048e-08 1.25546e-08 1.14385e-06 0.000160654)
(8.41344e-08 2.72605e-09 1.07473e-07 1.28789e-08 1.12143e-06 0.000140693)
(9.52807e-08 4.6834e-09 2.07285e-07 1.33386e-08 1.16137e-06 0.000144272)
(7.7343e-08 5.76043e-09 2.62933e-07 1.43112e-08 1.23236e-06 0.00014953)
(7.98114e-08 2.03059e-09 4.89874e-08 1.54649e-08 1.28233e-06 0.000151099)
(1.00216e-07 7.92881e-10 -7.71188e-08 1.48e-08 1.2151e-06 0.000145776)
(8.31862e-08 1.19573e-09 -3.56616e-08 1.38873e-08 1.16369e-06 0.000142956)
(9.04996e-08 -6.64552e-10 -4.06835e-08 1.30151e-08 1.13126e-06 0.00014161)
(1.17663e-07 9.10182e-10 9.42968e-09 1.16233e-08 1.08741e-06 0.000141197)
(1.14772e-07 5.99953e-09 1.67579e-07 1.19326e-08 1.10875e-06 0.000143688)
(8.57604e-08 7.06251e-09 1.86707e-07 1.37721e-08 1.17114e-06 0.000145323)
(6.29127e-08 4.45542e-09 9.55731e-08 1.47248e-08 1.17854e-06 0.00014271)
(4.81922e-08 1.52247e-09 6.40609e-08 1.45312e-08 1.17113e-06 0.000141847)
(9.13821e-08 2.82868e-09 9.89478e-08 1.47735e-08 1.13358e-06 0.000122416)
(1.03312e-07 5.17848e-09 2.05646e-07 1.5331e-08 1.1756e-06 0.000125816)
(8.396e-08 6.33451e-09 2.65559e-07 1.65382e-08 1.25354e-06 0.000131023)
(8.69314e-08 2.1414e-09 4.65888e-08 1.78685e-08 1.30692e-06 0.000132571)
(1.08165e-07 7.7554e-10 -7.90848e-08 1.70197e-08 1.23207e-06 0.000127269)
(8.96943e-08 1.19728e-09 -3.36518e-08 1.59731e-08 1.17971e-06 0.000124671)
(9.83501e-08 -7.7351e-10 -4.35866e-08 1.49693e-08 1.14693e-06 0.000123473)
(1.272e-07 1.03157e-09 2.68765e-09 1.33255e-08 1.09781e-06 0.000122925)
(1.23952e-07 6.57187e-09 1.671e-07 1.36862e-08 1.11946e-06 0.000125239)
(9.36528e-08 7.82567e-09 1.92724e-07 1.58321e-08 1.18717e-06 0.000126928)
(6.87199e-08 5.05942e-09 1.01855e-07 1.69365e-08 1.19568e-06 0.000124467)
(5.23883e-08 1.7941e-09 6.67801e-08 1.66996e-08 1.18705e-06 0.000123588)
(9.89053e-08 2.88601e-09 8.93348e-08 1.68346e-08 1.13379e-06 0.000104972)
(1.1168e-07 5.67202e-09 2.0224e-07 1.75061e-08 1.17765e-06 0.000108172)
(9.09102e-08 6.91583e-09 2.66414e-07 1.89873e-08 1.26253e-06 0.000113293)
(9.43635e-08 2.23796e-09 4.38755e-08 2.05099e-08 1.31912e-06 0.000114806)
(1.16271e-07 7.3134e-10 -8.08534e-08 1.94437e-08 1.23648e-06 0.000109556)
(9.63665e-08 1.16394e-09 -3.16849e-08 1.82533e-08 1.18375e-06 0.000107201)
(1.06519e-07 -9.06183e-10 -4.64277e-08 1.71049e-08 1.15102e-06 0.00010616)
(1.37013e-07 1.15477e-09 -4.42948e-09 1.51737e-08 1.09648e-06 0.000105482)
(1.33361e-07 7.15386e-09 1.64977e-07 1.55908e-08 1.11822e-06 0.000107605)
(1.01864e-07 8.61801e-09 1.969e-07 1.8078e-08 1.1911e-06 0.000109332)
(7.48108e-08 5.7117e-09 1.0704e-07 1.9352e-08 1.20077e-06 0.000107033)
(5.67828e-08 2.09699e-09 6.86744e-08 1.90645e-08 1.19083e-06 0.000106145)
(1.06646e-07 2.88698e-09 7.87013e-08 1.90645e-08 1.12157e-06 8.85943e-05)
(1.20328e-07 6.15346e-09 1.9699e-07 1.98677e-08 1.16699e-06 9.15769e-05)
(9.81669e-08 7.49761e-09 2.65432e-07 2.16663e-08 1.25868e-06 9.65774e-05)
(1.02063e-07 2.3182e-09 4.09285e-08 2.33968e-08 1.31822e-06 9.80397e-05)
(1.2445e-07 6.56111e-10 -8.24135e-08 2.20767e-08 1.22771e-06 9.28738e-05)
(1.03154e-07 1.08871e-09 -2.983e-08 2.07328e-08 1.17525e-06 9.07811e-05)
(1.14957e-07 -1.06741e-09 -4.91793e-08 1.94258e-08 1.143e-06 8.99024e-05)
(1.47024e-07 1.27754e-09 -1.18419e-08 1.71687e-08 1.08298e-06 8.91036e-05)
(1.42917e-07 7.74057e-09 1.61102e-07 1.76474e-08 1.10459e-06 9.1024e-05)
(1.1033e-07 9.43422e-09 1.98922e-07 2.05123e-08 1.18237e-06 9.27694e-05)
(8.11524e-08 6.41164e-09 1.10815e-07 2.19751e-08 1.19318e-06 9.06412e-05)
(6.13591e-08 2.43273e-09 6.95585e-08 2.16292e-08 1.18186e-06 8.97521e-05)
(1.14529e-07 2.81976e-09 6.71204e-08 2.14637e-08 1.0966e-06 7.34754e-05)
(1.2918e-07 6.61077e-09 1.89847e-07 2.24179e-08 1.14327e-06 7.62271e-05)
(1.05689e-07 8.07249e-09 2.62589e-07 2.45809e-08 1.24156e-06 8.10723e-05)
(1.09967e-07 2.38072e-09 3.78474e-08 2.65351e-08 1.30373e-06 8.24692e-05)
(1.32604e-07 5.45961e-10 -8.37316e-08 2.49215e-08 1.20538e-06 7.74199e-05)
(1.09998e-07 9.64256e-10 -2.81261e-08 2.34147e-08 1.15384e-06 7.56019e-05)
(1.23598e-07 -1.26254e-09 -5.181e-08 2.19343e-08 1.12252e-06 7.48893e-05)
(1.57133e-07 1.39734e-09 -1.94708e-08 1.93089e-08 1.05707e-06 7.39808e-05)
(1.5252e-07 8.32657e-09 1.55402e-07 1.98546e-08 1.07831e-06 7.56903e-05)
(1.18969e-07 1.02681e-08 1.98522e-07 2.31352e-08 1.16063e-06 7.74361e-05)
(8.76991e-08 7.15784e-09 1.12891e-07 2.48071e-08 1.1725e-06 7.54847e-05)
(6.60936e-08 2.80283e-09 6.92582e-08 2.43946e-08 1.15976e-06 7.46013e-05)
(1.22461e-07 2.6719e-09 5.46567e-08 2.40308e-08 1.0588e-06 5.97605e-05)
(1.3814e-07 7.03037e-09 1.80802e-07 2.51563e-08 1.10634e-06 6.22712e-05)
(1.13419e-07 8.63258e-09 2.57908e-07 2.7735e-08 1.21088e-06 6.69278e-05)
(1.18e-07 2.42507e-09 3.47352e-08 2.99283e-08 1.27533e-06 6.82453e-05)
(1.40617e-07 3.97452e-10 -8.4755e-08 2.79788e-08 1.16925e-06 6.33447e-05)
(1.16826e-07 7.82978e-10 -2.65807e-08 2.62999e-08 1.11932e-06 6.18095e-05)
(1.32358e-07 -1.4973e-09 -5.42906e-08 2.46303e-08 1.08941e-06 6.12641e-05)
(1.67222e-07 1.51132e-09 -2.7249e-08 2.1591e-08 1.01869e-06 6.02596e-05)
(1.62053e-07 8.90583e-09 1.47839e-07 2.22091e-08 1.03933e-06 6.17536e-05)
(1.2768e-07 1.11123e-08 1.95491e-07 2.59445e-08 1.12569e-06 6.348e-05)
(9.4393e-08 7.94795e-09 1.13019e-07 2.78466e-08 1.13848e-06 6.17088e-05)
(7.09562e-08 3.20865e-09 6.76158e-08 2.73589e-08 1.12427e-06 6.0838e-05)
(1.30332e-07 2.43029e-09 4.13843e-08 2.67623e-08 1.0082e-06 4.75487e-05)
(1.4709e-07 7.3971e-09 1.69884e-07 2.80809e-08 1.05623e-06 4.9812e-05)
(1.21285e-07 9.1695e-09 2.51449e-07 3.11298e-08 1.16656e-06 5.42488e-05)
(1.26068e-07 2.45169e-09 3.17154e-08 3.35781e-08 1.23285e-06 5.54736e-05)
(1.48362e-07 2.07307e-10 -8.53962e-08 3.12474e-08 1.11929e-06 5.07532e-05)
(1.2356e-07 5.37045e-10 -2.51724e-08 2.93871e-08 1.07166e-06 4.95042e-05)
(1.41142e-07 -1.77788e-09 -5.65768e-08 2.75115e-08 1.04369e-06 4.91244e-05)
(1.77152e-07 1.61557e-09 -3.50886e-08 2.40092e-08 9.67962e-07 4.80399e-05)
(1.71382e-07 9.47154e-09 1.3841e-07 2.47054e-08 9.87791e-07 4.93171e-05)
(1.36346e-07 1.1959e-08 1.89655e-07 2.89354e-08 1.07756e-06 5.10044e-05)
(1.01164e-07 8.77859e-09 1.10987e-07 3.10891e-08 1.09104e-06 4.94137e-05)
(7.59101e-08 3.65149e-09 6.44872e-08 3.0518e-08 1.07535e-06 4.85621e-05)
(1.38012e-07 2.08105e-09 2.74432e-08 2.96518e-08 9.45072e-07 3.6899e-05)
(1.55892e-07 7.69464e-09 1.57178e-07 3.1186e-08 9.93128e-07 3.89116e-05)
(1.29194e-07 9.67535e-09 2.43298e-07 3.47639e-08 1.10866e-06 4.3099e-05)
(1.34058e-07 2.46289e-09 2.89522e-08 3.74833e-08 1.17631e-06 4.42192e-05)
(1.55696e-07 -2.74198e-11 -8.55074e-08 3.47228e-08 1.05565e-06 3.97107e-05)
(1.30109e-07 2.18589e-10 -2.38501e-08 3.26723e-08 1.01103e-06 3.87462e-05)
(1.49832e-07 -2.11068e-09 -5.85789e-08 3.05733e-08 9.85531e-07 3.85271e-05)
(1.86767e-07 1.70513e-09 -4.28304e-08 2.65548e-08 9.05216e-07 3.73813e-05)
(1.80357e-07 1.00169e-08 1.27146e-07 2.73348e-08 9.24027e-07 3.84441e-05)
(1.44834e-07 1.27995e-08 1.80884e-07 3.20998e-08 1.01644e-06 4.00718e-05)
(1.07931e-07 9.64544e-09 1.06617e-07 3.45263e-08 1.0303e-06 3.866e-05)
(8.09118e-08 4.1323e-09 5.97484e-08 3.38632e-08 1.01312e-06 3.78337e-05)
(1.45355e-07 1.6102e-09 1.30671e-08 3.2687e-08 8.69897e-07 2.78349e-05)
(1.64382e-07 7.90509e-09 1.42839e-07 3.44597e-08 9.17477e-07 2.95969e-05)
(1.37036e-07 1.01417e-08 2.33547e-07 3.86293e-08 1.03745e-06 3.3506e-05)
(1.41842e-07 2.46281e-09 2.66298e-08 4.1636e-08 1.10593e-06 3.45117e-05)
(1.62466e-07 -3.07383e-10 -8.49123e-08 3.83939e-08 9.78727e-07 3.02485e-05)
(1.36371e-07 -1.795e-10 -2.25375e-08 3.61453e-08 9.37837e-07 2.956e-05)
(1.58295e-07 -2.50176e-09 -6.01609e-08 3.38045e-08 9.1534e-07 2.94931e-05)
(1.95888e-07 1.77614e-09 -5.02879e-08 2.92138e-08 8.31018e-07 2.83073e-05)
(1.88812e-07 1.0534e-08 1.14127e-07 3.00835e-08 8.48622e-07 2.9162e-05)
(1.52994e-07 1.36233e-08 1.69134e-07 3.54226e-08 9.42733e-07 3.071e-05)