-0.0075 	0 	0 	0
-0.0075 	5.31077e-35 	-2.89356e-36 	1.85933e-31
-0.00745622 	4.36247e-06 	-2.37688e-07 	0.0152733
-0.00745622 	4.36247e-06 	-2.37688e-07 	0.0152733
-0.00741165 	8.11239e-06 	-7.89268e-07 	0.0296969
-0.00741165 	8.11239e-06 	-7.89268e-07 	0.0296969
-0.00736628 	1.16496e-05 	-1.73614e-06 	0.0433798
-0.00736628 	1.16496e-05 	-1.73614e-06 	0.0433798
-0.0073201 	1.51608e-05 	-3.09012e-06 	0.0563536
-0.0073201 	1.51608e-05 	-3.09012e-06 	0.0563536
-0.00727309 	1.86173e-05 	-4.87826e-06 	0.0686476
-0.00727309 	1.86173e-05 	-4.87826e-06 	0.0686476
-0.00722524 	2.19679e-05 	-7.10682e-06 	0.0802902
-0.00722524 	2.19679e-05 	-7.10682e-06 	0.0802902
-0.00717653 	2.51869e-05 	-9.78743e-06 	0.0913015
-0.00717653 	2.51869e-05 	-9.78743e-06 	0.0913015
-0.00712695 	2.82505e-05 	-1.29362e-05 	0.101681
-0.00712695 	2.82505e-05 	-1.29362e-05 	0.101681
-0.00707647 	3.11347e-05 	-1.65832e-05 	0.111408
-0.00707647 	3.11347e-05 	-1.65832e-05 	0.111408
-0.0070251 	3.38203e-05 	-2.07796e-05 	0.12046
-0.0070251 	3.38203e-05 	-2.07796e-05 	0.12046
-0.0069728 	3.62974e-05 	-2.55941e-05 	0.128832
-0.0069728 	3.62974e-05 	-2.55941e-05 	0.128832
-0.00691956 	3.85669e-05 	-3.10989e-05 	0.13654
-0.00691956 	3.85669e-05 	-3.10989e-05 	0.13654
-0.00686537 	4.06382e-05 	-3.73587e-05 	0.143619
-0.00686537 	4.06382e-05 	-3.73587e-05 	0.143619
-0.00681021 	4.25258e-05 	-4.44312e-05 	0.150119
-0.00681021 	4.25258e-05 	-4.44312e-05 	0.150119
-0.00675406 	4.42472e-05 	-5.23792e-05 	0.1561
-0.00675406 	4.42472e-05 	-5.23792e-05 	0.1561
-0.0066969 	4.58186e-05 	-6.12649e-05 	0.161613
-0.0066969 	4.58186e-05 	-6.12649e-05 	0.161613
-0.00663871 	4.72537e-05 	-7.11343e-05 	0.166707
-0.00663871 	4.72537e-05 	-7.11343e-05 	0.166707
-0.00657949 	4.85652e-05 	-8.19984e-05 	0.171423
-0.00657949 	4.85652e-05 	-8.19984e-05 	0.171423
-0.0065192 	4.9766e-05 	-9.38294e-05 	0.175802
-0.0065192 	4.9766e-05 	-9.38294e-05 	0.175802
-0.00645783 	5.08692e-05 	-0.000106581 	0.179886
-0.00645783 	5.08692e-05 	-0.000106581 	0.179886
-0.00639535 	5.18862e-05 	-0.000120201 	0.183713
-0.00639535 	5.18862e-05 	-0.000120201 	0.183713
-0.00633176 	5.28262e-05 	-0.00013464 	0.187313
-0.00633176 	5.28262e-05 	-0.00013464 	0.187313
-0.00626703 	5.36973e-05 	-0.000149844 	0.190714
-0.00626703 	5.36973e-05 	-0.000149844 	0.190714
-0.00620114 	5.45063e-05 	-0.000165756 	0.193938
-0.00620114 	5.45063e-05 	-0.000165756 	0.193938
-0.00613406 	5.52597e-05 	-0.000182315 	0.197007
-0.00613406 	5.52597e-05 	-0.000182315 	0.197007
-0.00606579 	5.59633e-05 	-0.000199459 	0.199937
-0.00606579 	5.59633e-05 	-0.000199459 	0.199937
-0.00599629 	5.66226e-05 	-0.000217124 	0.202746
-0.00599629 	5.66226e-05 	-0.000217124 	0.202746
-0.00592554 	5.7243e-05 	-0.000235238 	0.205449
-0.00592554 	5.7243e-05 	-0.000235238 	0.205449
-0.00585352 	5.78291e-05 	-0.000253728 	0.208061
-0.00585352 	5.78291e-05 	-0.000253728 	0.208061
-0.00578022 	5.83849e-05 	-0.000272505 	0.210595
-0.00578022 	5.83849e-05 	-0.000272505 	0.210595
-0.00570559 	5.89137e-05 	-0.000291468 	0.213059
-0.00570559 	5.89137e-05 	-0.000291468 	0.213059
-0.00562963 	5.94187e-05 	-0.000310517 	0.215464
-0.00562963 	5.94187e-05 	-0.000310517 	0.215464
-0.00555231 	5.99031e-05 	-0.000329548 	0.217815
-0.00555231 	5.99031e-05 	-0.000329548 	0.217815
-0.0054736 	6.03698e-05 	-0.000348457 	0.220119
-0.0054736 	6.03698e-05 	-0.000348457 	0.220119
-0.00539348 	6.08215e-05 	-0.000367139 	0.222379
-0.00539348 	6.08215e-05 	-0.000367139 	0.222379
-0.00531193 	6.12609e-05 	-0.000385486 	0.224601
-0.00531193 	6.12609e-05 	-0.000385486 	0.224601
-0.00522891 	6.16903e-05 	-0.000403393 	0.226787
-0.00522891 	6.16903e-05 	-0.000403393 	0.226787
-0.0051444 	6.2112e-05 	-0.000420754 	0.228939
-0.0051444 	6.2112e-05 	-0.000420754 	0.228939
-0.00505838 	6.25282e-05 	-0.000437468 	0.231059
-0.00505838 	6.25282e-05 	-0.000437468 	0.231059
-0.00497081 	6.29408e-05 	-0.000453437 	0.233147
-0.00497081 	6.29408e-05 	-0.000453437 	0.233147
-0.00488168 	6.33516e-05 	-0.00046857 	0.235204
-0.00488168 	6.33516e-05 	-0.00046857 	0.235204
-0.00479094 	6.37623e-05 	-0.000482779 	0.237229
-0.00479094 	6.37623e-05 	-0.000482779 	0.237229
-0.00469858 	6.41747e-05 	-0.000495978 	0.239221
-0.00469858 	6.41747e-05 	-0.000495978 	0.239221
-0.00460456 	6.45906e-05 	-0.000508088 	0.241178
-0.00460456 	6.45906e-05 	-0.000508088 	0.241178
-0.00450886 	6.50117e-05 	-0.000519049 	0.243098
-0.00450886 	6.50117e-05 	-0.000519049 	0.243098
-0.00441144 	6.54396e-05 	-0.000528828 	0.244981
-0.00441144 	6.54396e-05 	-0.000528828 	0.244981
-0.00431227 	6.58758e-05 	-0.000537428 	0.246823
-0.00431227 	6.58758e-05 	-0.000537428 	0.246823
-0.00421133 	6.63212e-05 	-0.000544883 	0.248623
-0.00421133 	6.63212e-05 	-0.000544883 	0.248623
-0.00410857 	6.67767e-05 	-0.000551252 	0.250379
-0.00410857 	6.67767e-05 	-0.000551252 	0.250379
-0.00400397 	6.72439e-05 	-0.000556612 	0.252087
-0.00400397 	6.72439e-05 	-0.000556612 	0.252087
-0.0038975 	6.77255e-05 	-0.00056106 	0.253747
-0.0038975 	6.77255e-05 	-0.00056106 	0.253747
-0.00378912 	6.82245e-05 	-0.000564689 	0.25536
-0.00378912 	6.82245e-05 	-0.000564689 	0.25536
-0.00367879 	6.87418e-05 	-0.000567578 	0.256928
-0.00367879 	6.87418e-05 	-0.000567578 	0.256928
-0.00356649 	6.92764e-05 	-0.000569791 	0.258454
-0.00356649 	6.92764e-05 	-0.000569791 	0.258454
-0.00345217 	6.98266e-05 	-0.000571387 	0.259933
-0.00345217 	6.98266e-05 	-0.000571387 	0.259933
-0.0033358 	7.0391e-05 	-0.00057243 	0.261365
-0.0033358 	7.0391e-05 	-0.00057243 	0.261365
-0.00321735 	7.09681e-05 	-0.000572991 	0.262745
-0.00321735 	7.09681e-05 	-0.000572991 	0.262745
-0.00309677 	7.15562e-05 	-0.000573144 	0.264072
-0.00309677 	7.15562e-05 	-0.000573144 	0.264072
-0.00297403 	7.21529e-05 	-0.00057297 	0.265343
-0.00297403 	7.21529e-05 	-0.00057297 	0.265343
-0.00284909 	7.27553e-05 	-0.000572553 	0.266555
-0.00284909 	7.27553e-05 	-0.000572553 	0.266555
-0.0027219 	7.33601e-05 	-0.000571979 	0.267705
-0.0027219 	7.33601e-05 	-0.000571979 	0.267705
-0.00259244 	7.39636e-05 	-0.00057133 	0.268791
-0.00259244 	7.39636e-05 	-0.00057133 	0.268791
-0.00246065 	7.4562e-05 	-0.000570685 	0.26981
-0.00246065 	7.4562e-05 	-0.000570685 	0.26981
-0.00232651 	7.51512e-05 	-0.000570114 	0.270759
-0.00232651 	7.51512e-05 	-0.000570114 	0.270759
-0.00218995 	7.57268e-05 	-0.000569675 	0.271637
-0.00218995 	7.57268e-05 	-0.000569675 	0.271637
-0.00205095 	7.62841e-05 	-0.000569411 	0.272441
-0.00205095 	7.62841e-05 	-0.000569411 	0.272441
-0.00190946 	7.68186e-05 	-0.000569351 	0.27317
-0.00190946 	7.68186e-05 	-0.000569351 	0.27317
-0.00176543 	7.73255e-05 	-0.000569508 	0.273823
-0.00176543 	7.73255e-05 	-0.000569508 	0.273823
-0.00161881 	7.77996e-05 	-0.000569874 	0.274399
-0.00161881 	7.77996e-05 	-0.000569874 	0.274399
-0.00146957 	7.82343e-05 	-0.000570422 	0.274899
-0.00146957 	7.82343e-05 	-0.000570422 	0.274899
-0.00131765 	7.86227e-05 	-0.000571105 	0.275322
-0.00131765 	7.86227e-05 	-0.000571105 	0.275322
-0.001163 	7.89571e-05 	-0.000571867 	0.275668
-0.001163 	7.89571e-05 	-0.000571867 	0.275668
-0.00100559 	7.92293e-05 	-0.000572646 	0.275938
-0.00100559 	7.92293e-05 	-0.000572646 	0.275938
-0.000845345 	7.94299e-05 	-0.000573333 	0.276131
-0.000845345 	7.94299e-05 	-0.000573333 	0.276131
-0.000682232 	7.95483e-05 	-0.000573897 	0.276246
-0.000682232 	7.95483e-05 	-0.000573897 	0.276246
-0.000516194 	7.95723e-05 	-0.000574332 	0.276282
-0.000516194 	7.95723e-05 	-0.000574332 	0.276282
-0.000347178 	7.94893e-05 	-0.000574509 	0.276236
-0.000347178 	7.94893e-05 	-0.000574509 	0.276236
-0.000175132 	7.92823e-05 	-0.000574506 	0.276106
-0.000175132 	7.92823e-05 	-0.000574506 	0.276106
0 	7.89349e-05 	-0.000574194 	0.27589
0 	7.89349e-05 	-0.000574194 	0.27589
0 	7.89349e-05 	-0.000574194 	0.27589
0 	7.89349e-05 	-0.000574194 	0.27589
0.000175132 	7.84483e-05 	-0.000573396 	0.27559
0.000175132 	8.08098e-05 	-0.000499281 	0.271428
0.000347178 	7.78371e-05 	-0.000572241 	0.275212
0.000347178 	8.18716e-05 	-0.000499606 	0.27113
0.000516194 	7.71227e-05 	-0.000570618 	0.274761
0.000516194 	8.27517e-05 	-0.000499541 	0.270751
0.000682232 	7.63257e-05 	-0.000568564 	0.274242
0.000682232 	8.34691e-05 	-0.000499121 	0.270297
0.000845345 	7.54599e-05 	-0.000566211 	0.273657
0.000845345 	8.40393e-05 	-0.000498378 	0.269771
0.00100559 	7.45385e-05 	-0.00056352 	0.27301
0.00100559 	8.44786e-05 	-0.000497294 	0.269178
0.001163 	7.35737e-05 	-0.00056051 	0.272303
0.001163 	8.48024e-05 	-0.000495875 	0.26852
0.00131765 	7.25761e-05 	-0.000557202 	0.271539
0.00131765 	8.50244e-05 	-0.000494131 	0.267801
0.00146957 	7.15552e-05 	-0.00055361 	0.270719
0.00146957 	8.51568e-05 	-0.00049207 	0.267024
0.00161881 	7.05192e-05 	-0.00054975 	0.269846
0.00161881 	8.52102e-05 	-0.000489703 	0.26619
0.00176543 	6.94751e-05 	-0.000545635 	0.268922
0.00176543 	8.51937e-05 	-0.000487038 	0.265302
0.00190946 	6.84289e-05 	-0.000541275 	0.267947
0.00190946 	8.51149e-05 	-0.000484082 	0.264361
0.00205095 	6.73855e-05 	-0.00053668 	0.266924
0.00205095 	8.49806e-05 	-0.000480842 	0.263369
0.00218995 	6.6349e-05 	-0.000531854 	0.265852
0.00218995 	8.47964e-05 	-0.00047732 	0.262328
0.00232651 	6.53228e-05 	-0.000526804 	0.264734
0.00232651 	8.4567e-05 	-0.000473517 	0.261238
0.00246065 	6.43097e-05 	-0.000521529 	0.26357
0.00246065 	8.42964e-05 	-0.000469435 	0.260101
0.00259244 	6.3312e-05 	-0.00051603 	0.26236
0.00259244 	8.39878e-05 	-0.000465068 	0.258916
0.0027219 	6.23316e-05 	-0.000510305 	0.261106
0.0027219 	8.36439e-05 	-0.000460413 	0.257686
0.00284909 	6.13699e-05 	-0.000504351 	0.259806
0.00284909 	8.32667e-05 	-0.000455461 	0.25641
0.00297403 	6.04281e-05 	-0.00049816 	0.258462
0.00297403 	8.28577e-05 	-0.000450201 	0.255089
0.00309677 	5.9507e-05 	-0.000491727 	0.257074
0.00309677 	8.24179e-05 	-0.000444621 	0.253722
0.00321735 	5.86073e-05 	-0.000485042 	0.25564
0.00321735 	8.19481e-05 	-0.000438708 	0.25231
0.0033358 	5.77294e-05 	-0.0004781 	0.254162
0.0033358 	8.14487e-05 	-0.000432448 	0.250852
0.00345217 	8.09197e-05 	-0.000425835 	0.249348
0.00345217 	5.68732e-05 	-0.000470892 	0.252637
0.00356649 	5.60389e-05 	-0.000463411 	0.251065
0.00356649 	8.03618e-05 	-0.000418867 	0.247795
0.00367879 	5.52263e-05 	-0.00045564 	0.249446
0.00367879 	7.97775e-05 	-0.000411533 	0.246195
0.00378912 	5.44353e-05 	-0.000447558 	0.247778
0.00378912 	7.91699e-05 	-0.000403818 	0.244549
0.0038975 	5.36653e-05 	-0.000439132 	0.246059
0.0038975 	7.85394e-05 	-0.000395682 	0.242852
0.00400397 	5.29152e-05 	-0.0004303 	0.244283
0.00400397 	7.78826e-05 	-0.000387039 	0.241097
0.00410857 	7.7195e-05 	-0.000377766 	0.239271
0.00410857 	5.21836e-05 	-0.000420986 	0.242447
0.00421133 	5.14688e-05 	-0.000411101 	0.240542
0.00421133 	7.64724e-05 	-0.000367764 	0.237363
0.00431227 	5.0768e-05 	-0.000400563 	0.238563
0.00431227 	7.57111e-05 	-0.000356966 	0.235369
0.00441144 	5.00778e-05 	-0.000389313 	0.236502
0.00441144 	7.49073e-05 	-0.000345343 	0.233285
0.00450886 	4.93953e-05 	-0.000377334 	0.234353
0.00450886 	7.40576e-05 	-0.000332917 	0.231108
0.00460456 	4.87179e-05 	-0.000364627 	0.232113
0.00460456 	7.31584e-05 	-0.000319726 	0.228834
0.00469858 	4.80435e-05 	-0.00035121 	0.229775
0.00469858 	7.22063e-05 	-0.000305819 	0.226458
0.00479094 	4.73698e-05 	-0.000337106 	0.227337
0.00479094 	7.1198e-05 	-0.000291247 	0.223977
0.00488168 	4.66945e-05 	-0.000322348 	0.224793
0.00488168 	7.01299e-05 	-0.000276069 	0.221387
0.00497081 	4.6015e-05 	-0.000306978 	0.22214
0.00497081 	6.89985e-05 	-0.000260355 	0.218684
0.00505838 	4.5329e-05 	-0.000291054 	0.219372
0.00505838 	6.78007e-05 	-0.000244187 	0.215864
0.0051444 	4.46338e-05 	-0.00027465 	0.216486
0.0051444 	6.65333e-05 	-0.000227663 	0.212923
0.00522891 	4.39271e-05 	-0.000257857 	0.213479
0.00522891 	6.51938e-05 	-0.000210896 	0.20986
0.00531193 	4.32064e-05 	-0.000240781 	0.210348
0.00531193 	6.37803e-05 	-0.000194019 	0.206672
0.00539348 	4.24695e-05 	-0.000223545 	0.20709
0.00539348 	6.22916e-05 	-0.000177174 	0.203357
0.0054736 	4.1714e-05 	-0.000206278 	0.2037
0.0054736 	6.07269e-05 	-0.000160512 	0.199913
0.00555231 	4.09377e-05 	-0.000189117 	0.200177
0.00555231 	5.90856e-05 	-0.000144185 	0.19634
0.00562963 	4.01384e-05 	-0.000172201 	0.196515
0.00562963 	5.73677e-05 	-0.000128339 	0.192633
0.00570559 	3.93137e-05 	-0.000155662 	0.192712
0.00570559 	5.55733e-05 	-0.000113109 	0.188791
0.00578022 	3.84616e-05 	-0.000139625 	0.188762
0.00578022 	5.37028e-05 	-9.86164e-05 	0.18481
0.00585352 	3.75797e-05 	-0.000124207 	0.18466
0.00585352 	5.17566e-05 	-8.49631e-05 	0.180686
0.00592554 	3.66658e-05 	-0.000109509 	0.180399
0.00592554 	4.97354e-05 	-7.22316e-05 	0.176414
0.00599629 	3.57177e-05 	-9.56153e-05 	0.175972
0.00599629 	4.76404e-05 	-6.04827e-05 	0.171987
0.00606579 	3.47334e-05 	-8.25992e-05 	0.171371
0.00606579 	4.54725e-05 	-4.97582e-05 	0.167396
0.00613406 	3.371e-05 	-7.05206e-05 	0.166583
0.00613406 	4.32322e-05 	-4.00805e-05 	0.162629
0.00620114 	4.09193e-05 	-3.14553e-05 	0.157669
0.00620114 	3.26439e-05 	-5.94251e-05 	0.161591
0.00626703 	3.15317e-05 	-4.93515e-05 	0.156379
0.00626703 	3.85355e-05 	-2.38815e-05 	0.152501
0.00633176 	3.60849e-05 	-1.73451e-05 	0.147112
0.00633176 	3.03704e-05 	-4.03274e-05 	0.150935
0.00639535 	3.35728e-05 	-1.18115e-05 	0.141489
0.00639535 	2.91574e-05 	-3.23582e-05 	0.145243
0.00645783 	2.78904e-05 	-2.54296e-05 	0.139289
0.00645783 	3.10064e-05 	-7.23034e-06 	0.135616
0.0065192 	2.65671e-05 	-1.95124e-05 	0.133056
0.0065192 	2.83948e-05 	-3.53923e-06 	0.129476
0.00657949 	2.51857e-05 	-1.45642e-05 	0.126529
0.00657949 	2.575e-05 	-6.66635e-07 	0.123056
0.00663871 	2.37454e-05 	-1.053e-05 	0.119694
0.00663871 	2.30871e-05 	1.46514e-06 	0.116339
0.0066969 	2.22445e-05 	-7.32578e-06 	0.112531
0.0066969 	2.04208e-05 	2.94634e-06 	0.109303
0.00675406 	1.77645e-05 	3.87151e-06 	0.101911
0.00675406 	2.06787e-05 	-4.85315e-06 	0.105007
0.00681021 	1.51383e-05 	4.33307e-06 	0.0941482
0.00681021 	1.90438e-05 	-3.0097e-06 	0.0970977
0.00686537 	1.25774e-05 	4.42352e-06 	0.0860411
0.00686537 	1.73433e-05 	-1.69652e-06 	0.0888211
0.00691956 	1.01305e-05 	4.23212e-06 	0.0776633
0.00691956 	1.55914e-05 	-8.26867e-07 	0.0802474
0.0069728 	7.85406e-06 	3.84575e-06 	0.0691341
0.0069728 	1.38128e-05 	-3.07136e-07 	0.071496
0.0070251 	1.2042e-05 	-4.20873e-08 	0.0627312
0.0070251 	5.80562e-06 	3.34475e-06 	0.0606136
0.00707647 	1.0318e-05 	5.74009e-08 	0.0541425
0.00707647 	4.03355e-06 	2.79797e-06 	0.0522823
0.00712695 	8.67818e-06 	6.66803e-08 	0.0459114
0.00712695 	2.56802e-06 	2.25907e-06 	0.0443105
0.00717653 	7.15102e-06 	4.05373e-08 	0.0381779
0.00717653 	1.41668e-06 	1.76359e-06 	0.0368279
0.00722524 	5.75303e-06 	1.24684e-08 	0.0310229
0.00722524 	5.67503e-07 	1.331e-06 	0.0299087
0.00727309 	-2.84004e-09 	9.67279e-07 	0.0235767
0.00727309 	4.49164e-06 	-2.58435e-09 	0.0244727
0.0073201 	-3.1877e-07 	6.70802e-07 	0.0178228
0.0073201 	3.3739e-06 	-1.93489e-09 	0.0185178
0.00736628 	-3.94806e-07 	4.34441e-07 	0.0126215
0.00736628 	2.42101e-06 	8.80201e-09 	0.013131
0.00741165 	1.6247e-06 	1.69911e-08 	0.0082777
0.00741165 	-2.8388e-07 	2.4366e-07 	0.00793978
0.00745622 	8.67957e-07 	1.69144e-08 	0.00391957
0.00745622 	-1.19483e-07 	1.04014e-07 	0.00374033
0.0075 	0 	0 	0
0.0075 	0 	0 	0
