0 	0 	0 	0
5.01672e-05 	-2.28386e-05 	-4.58466e-06 	0.0203643
0.000100334 	-4.56771e-05 	-9.16932e-06 	0.0407287
0.000150502 	-6.85157e-05 	-1.3754e-05 	0.061093
0.000200669 	-9.13543e-05 	-1.83386e-05 	0.0814574
0.000250836 	-0.000114193 	-2.29233e-05 	0.101822
0.000301003 	-0.000137031 	-2.7508e-05 	0.122186
0.000351171 	-0.00015774 	-3.28113e-05 	0.140437
0.000401338 	-0.000170392 	-4.08325e-05 	0.150697
0.000451505 	-0.000183044 	-4.88537e-05 	0.160956
0.000501672 	-0.000195696 	-5.68749e-05 	0.171216
0.000551839 	-0.000208348 	-6.48961e-05 	0.181475
0.000602007 	-0.000221 	-7.29173e-05 	0.191735
0.000652174 	-0.000233652 	-8.09385e-05 	0.201995
0.000702341 	-0.000246304 	-8.89596e-05 	0.212254
0.000752508 	-0.00025614 	-9.72021e-05 	0.221087
0.000802676 	-0.000258993 	-0.000105993 	0.226384
0.000852843 	-0.000261846 	-0.000114785 	0.231681
0.00090301 	-0.000264699 	-0.000123576 	0.236977
0.000953177 	-0.000267553 	-0.000132367 	0.242274
0.00100334 	-0.000270406 	-0.000141158 	0.24757
0.00105351 	-0.000273259 	-0.000149949 	0.252867
0.00110368 	-0.000276112 	-0.000158741 	0.258164
0.00115385 	-0.000278966 	-0.000167532 	0.26346
0.00120401 	-0.000281617 	-0.000176279 	0.268651
0.00125418 	-0.000280118 	-0.00018413 	0.271674
0.00130435 	-0.000278618 	-0.00019198 	0.274697
0.00135452 	-0.000277119 	-0.00019983 	0.27772
0.00140468 	-0.00027562 	-0.000207681 	0.280743
0.00145485 	-0.000274121 	-0.000215531 	0.283766
0.00150502 	-0.000272622 	-0.000223381 	0.286789
0.00155518 	-0.000271122 	-0.000231232 	0.289812
0.00160535 	-0.000269623 	-0.000239082 	0.292835
0.00165552 	-0.000268124 	-0.000246932 	0.295858
0.00170569 	-0.000266625 	-0.000254783 	0.298881
0.00175585 	-0.000264869 	-0.000262219 	0.301614
0.00180602 	-0.000262408 	-0.000268514 	0.303551
0.00185619 	-0.000259947 	-0.00027481 	0.305488
0.00190635 	-0.000257486 	-0.000281106 	0.307426
0.00195652 	-0.000255025 	-0.000287402 	0.309363
0.00200669 	-0.000252564 	-0.000293698 	0.3113
0.00205686 	-0.000250103 	-0.000299993 	0.313237
0.00210702 	-0.000247642 	-0.000306289 	0.315174
0.00215719 	-0.000245181 	-0.000312585 	0.317111
0.00220736 	-0.00024272 	-0.000318881 	0.319048
0.00225753 	-0.000240259 	-0.000325177 	0.320985
0.00230769 	-0.000237797 	-0.000331472 	0.322922
0.00235786 	-0.000235336 	-0.000337768 	0.324859
0.00240803 	-0.000233126 	-0.000342881 	0.326361
0.00245819 	-0.000231027 	-0.000347466 	0.32767
0.00250836 	-0.000228928 	-0.000352051 	0.328979
0.00255853 	-0.00022683 	-0.000356636 	0.330287
0.0026087 	-0.000224731 	-0.000361221 	0.331596
0.00265886 	-0.000222632 	-0.000365806 	0.332905
0.00270903 	-0.000220534 	-0.000370392 	0.334213
0.0027592 	-0.000218435 	-0.000374977 	0.335522
0.00280936 	-0.000216336 	-0.000379562 	0.33683
0.00285953 	-0.000214237 	-0.000384147 	0.338139
0.0029097 	-0.000212139 	-0.000388732 	0.339448
0.00295987 	-0.00021004 	-0.000393317 	0.340756
0.00301003 	-0.000207941 	-0.000397902 	0.342065
0.0030602 	-0.000205843 	-0.000402487 	0.343374
0.00311037 	-0.000203758 	-0.000407042 	0.344673
0.00316054 	-0.000202295 	-0.00041027 	0.345551
0.0032107 	-0.000200833 	-0.000413499 	0.346429
0.00326087 	-0.00019937 	-0.000416727 	0.347307
0.00331104 	-0.000197907 	-0.000419955 	0.348185
0.0033612 	-0.000196444 	-0.000423184 	0.349063
0.00341137 	-0.000194982 	-0.000426412 	0.349941
0.00346154 	-0.000193519 	-0.000429641 	0.350819
0.00351171 	-0.000192056 	-0.000432869 	0.351698
0.00356187 	-0.000190593 	-0.000436097 	0.352576
0.00361204 	-0.00018913 	-0.000439326 	0.353454
0.00366221 	-0.000187668 	-0.000442554 	0.354332
0.00371237 	-0.000186205 	-0.000445783 	0.35521
0.00376254 	-0.000184742 	-0.000449011 	0.356088
0.00381271 	-0.000183279 	-0.000452239 	0.356966
0.00386288 	-0.000181817 	-0.000455468 	0.357845
0.00391304 	-0.000180354 	-0.000458696 	0.358723
0.00396321 	-0.000178891 	-0.000461925 	0.359601
0.00401338 	-0.00017784 	-0.000464306 	0.36018
0.00406355 	-0.00017683 	-0.000466605 	0.360729
0.00411371 	-0.000175819 	-0.000468904 	0.361279
0.00416388 	-0.000174809 	-0.000471202 	0.361828
0.00421405 	-0.000173798 	-0.000473501 	0.362378
0.00426421 	-0.000172788 	-0.0004758 	0.362927
0.00431438 	-0.000171778 	-0.000478099 	0.363477
0.00436455 	-0.000170767 	-0.000480397 	0.364027
0.00441472 	-0.000169757 	-0.000482696 	0.364576
0.00446488 	-0.000168746 	-0.000484995 	0.365126
0.00451505 	-0.000167736 	-0.000487293 	0.365675
0.00456522 	-0.000166725 	-0.000489592 	0.366225
0.00461538 	-0.000165715 	-0.000491891 	0.366774
0.00466555 	-0.000164704 	-0.000494189 	0.367324
0.00471572 	-0.000163694 	-0.000496488 	0.367873
0.00476589 	-0.000162684 	-0.000498787 	0.368423
0.00481605 	-0.000161673 	-0.000501085 	0.368972
0.00486622 	-0.000160663 	-0.000503384 	0.369522
0.00491639 	-0.000159652 	-0.000505683 	0.370072
0.00496656 	-0.000158642 	-0.000507982 	0.370621
0.00501672 	-0.000157841 	-0.000509556 	0.370921
0.00506689 	-0.000157051 	-0.000511093 	0.371207
0.00511706 	-0.000156262 	-0.000512629 	0.371493
0.00516722 	-0.000155472 	-0.000514165 	0.371779
0.00521739 	-0.000154682 	-0.000515701 	0.372065
0.00526756 	-0.000153893 	-0.000517237 	0.372351
0.00531773 	-0.000153103 	-0.000518774 	0.372637
0.00536789 	-0.000152313 	-0.00052031 	0.372923
0.00541806 	-0.000151524 	-0.000521846 	0.373209
0.00546823 	-0.000150734 	-0.000523382 	0.373495
0.00551839 	-0.000149944 	-0.000524918 	0.373781
0.00556856 	-0.000149155 	-0.000526454 	0.374067
0.00561873 	-0.000148365 	-0.000527991 	0.374353
0.0056689 	-0.000147576 	-0.000529527 	0.374639
0.00571906 	-0.000146786 	-0.000531063 	0.374925
0.00576923 	-0.000145996 	-0.000532599 	0.375211
0.0058194 	-0.000145207 	-0.000534135 	0.375497
0.00586957 	-0.000144417 	-0.000535671 	0.375783
0.00591973 	-0.000143627 	-0.000537208 	0.376069
0.0059699 	-0.000142838 	-0.000538744 	0.376355
0.00602007 	-0.000142048 	-0.00054028 	0.376642
0.00607023 	-0.000141258 	-0.000541816 	0.376928
0.0061204 	-0.000140469 	-0.000543352 	0.377214
0.00617057 	-0.000139777 	-0.000544368 	0.377353
0.00622074 	-0.000139136 	-0.00054512 	0.377419
0.0062709 	-0.000138494 	-0.000545872 	0.377484
0.00632107 	-0.000137852 	-0.000546624 	0.37755
0.00637124 	-0.000137211 	-0.000547376 	0.377615
0.0064214 	-0.000136569 	-0.000548128 	0.377681
0.00647157 	-0.000135928 	-0.00054888 	0.377747
0.00652174 	-0.000135286 	-0.000549632 	0.377812
0.00657191 	-0.000134644 	-0.000550384 	0.377878
0.00662207 	-0.000134003 	-0.000551136 	0.377943
0.00667224 	-0.000133361 	-0.000551888 	0.378009
0.00672241 	-0.000132719 	-0.00055264 	0.378074
0.00677258 	-0.000132078 	-0.000553392 	0.37814
0.00682274 	-0.000131436 	-0.000554144 	0.378205
0.00687291 	-0.000130795 	-0.000554896 	0.378271
0.00692308 	-0.000130153 	-0.000555647 	0.378336
0.00697324 	-0.000129511 	-0.000556399 	0.378402
0.00702341 	-0.00012887 	-0.000557151 	0.378467
0.00707358 	-0.000128228 	-0.000557903 	0.378533
0.00712375 	-0.000127586 	-0.000558655 	0.378598
0.00717391 	-0.000126945 	-0.000559407 	0.378664
0.00722408 	-0.000126303 	-0.000560159 	0.378729
0.00727425 	-0.000125662 	-0.000560911 	0.378795
0.00732441 	-0.00012502 	-0.000561663 	0.378861
0.00737458 	-0.000124378 	-0.000562415 	0.378926
0.00742475 	-0.000123737 	-0.000563167 	0.378992
0.00747492 	-0.000123095 	-0.000563919 	0.379057
0.00752508 	-0.000122511 	-0.000564281 	0.379023
0.00757525 	-0.000121986 	-0.000564254 	0.37889
0.00762542 	-0.00012146 	-0.000564226 	0.378758
0.00767559 	-0.000120934 	-0.000564199 	0.378625
0.00772575 	-0.000120409 	-0.000564171 	0.378492
0.00777592 	-0.000119883 	-0.000564143 	0.378359
0.00782609 	-0.000119357 	-0.000564116 	0.378226
0.00787625 	-0.000118832 	-0.000564088 	0.378093
0.00792642 	-0.000118306 	-0.000564061 	0.37796
0.00797659 	-0.00011778 	-0.000564033 	0.377827
0.00802676 	-0.000117255 	-0.000564006 	0.377694
0.00807692 	-0.000116729 	-0.000563978 	0.377561
0.00812709 	-0.000116203 	-0.000563951 	0.377428
0.00817726 	-0.000115677 	-0.000563923 	0.377295
0.00822742 	-0.000115152 	-0.000563896 	0.377162
0.00827759 	-0.000114626 	-0.000563868 	0.377029
0.00832776 	-0.0001141 	-0.000563841 	0.376897
0.00837793 	-0.000113575 	-0.000563813 	0.376764
0.00842809 	-0.000113049 	-0.000563786 	0.376631
0.00847826 	-0.000112523 	-0.000563758 	0.376498
0.00852843 	-0.000111998 	-0.000563731 	0.376365
0.0085786 	-0.000111472 	-0.000563703 	0.376232
0.00862876 	-0.000110946 	-0.000563676 	0.376099
0.00867893 	-0.000110421 	-0.000563648 	0.375966
0.0087291 	-0.000109895 	-0.000563621 	0.375833
0.00877926 	-0.000109369 	-0.000563593 	0.3757
0.00882943 	-0.000108844 	-0.000563565 	0.375567
0.0088796 	-0.000108373 	-0.000563217 	0.375353
0.00892977 	-0.000108009 	-0.000562235 	0.37498
0.00897993 	-0.000107646 	-0.000561253 	0.374606
0.0090301 	-0.000107283 	-0.000560271 	0.374233
0.00908027 	-0.000106919 	-0.000559288 	0.373859
0.00913043 	-0.000106556 	-0.000558306 	0.373486
0.0091806 	-0.000106193 	-0.000557324 	0.373112
0.00923077 	-0.00010583 	-0.000556342 	0.372739
0.00928094 	-0.000105466 	-0.00055536 	0.372365
0.0093311 	-0.000105103 	-0.000554378 	0.371992
0.00938127 	-0.00010474 	-0.000553396 	0.371618
0.00943144 	-0.000104376 	-0.000552414 	0.371245
0.00948161 	-0.000104013 	-0.000551432 	0.370871
0.00953177 	-0.00010365 	-0.00055045 	0.370498
0.00958194 	-0.000103287 	-0.000549468 	0.370124
0.00963211 	-0.000102923 	-0.000548486 	0.369751
0.00968227 	-0.00010256 	-0.000547504 	0.369377
0.00973244 	-0.000102197 	-0.000546522 	0.369003
0.00978261 	-0.000101833 	-0.00054554 	0.36863
0.00983278 	-0.00010147 	-0.000544558 	0.368256
0.00988294 	-0.000101107 	-0.000543576 	0.367883
0.00993311 	-0.000100744 	-0.000542594 	0.367509
0.00998328 	-0.00010038 	-0.000541612 	0.367136
0.0100334 	-0.000100035 	-0.000540573 	0.366748
0.0100836 	-0.000100026 	-0.000538486 	0.36609
0.0101338 	-0.000100017 	-0.000536398 	0.365432
0.0101839 	-0.000100008 	-0.00053431 	0.364774
0.0102341 	-9.99987e-05 	-0.000532223 	0.364116
0.0102843 	-9.99896e-05 	-0.000530135 	0.363458
0.0103344 	-9.99805e-05 	-0.000528047 	0.3628
0.0103846 	-9.99714e-05 	-0.00052596 	0.362142
0.0104348 	-9.99624e-05 	-0.000523872 	0.361484
0.0104849 	-9.99533e-05 	-0.000521784 	0.360826
0.0105351 	-9.99442e-05 	-0.000519697 	0.360168
0.0105853 	-9.99351e-05 	-0.000517609 	0.35951
0.0106355 	-9.9926e-05 	-0.000515522 	0.358852
0.0106856 	-9.99169e-05 	-0.000513434 	0.358194
0.0107358 	-9.99079e-05 	-0.000511346 	0.357536
0.010786 	-9.98988e-05 	-0.000509259 	0.356878
0.0108361 	-9.98897e-05 	-0.000507171 	0.356221
0.0108863 	-9.98806e-05 	-0.000505083 	0.355563
0.0109365 	-9.98715e-05 	-0.000502996 	0.354905
0.0109866 	-9.98624e-05 	-0.000500908 	0.354247
0.0110368 	-9.99103e-05 	-0.000498678 	0.353556
0.011087 	-0.000100539 	-0.000495002 	0.352529
0.0111371 	-0.000101167 	-0.000491326 	0.351503
0.0111873 	-0.000101796 	-0.00048765 	0.350477
0.0112375 	-0.000102425 	-0.000483974 	0.349451
0.0112876 	-0.000103053 	-0.000480298 	0.348424
0.0113378 	-0.000103682 	-0.000476622 	0.347398
0.011388 	-0.00010431 	-0.000472945 	0.346372
0.0114381 	-0.000104939 	-0.000469269 	0.345345
0.0114883 	-0.000105568 	-0.000465593 	0.344319
0.0115385 	-0.000106196 	-0.000461917 	0.343293
0.0115886 	-0.000106825 	-0.000458241 	0.342267
0.0116388 	-0.000107453 	-0.000454565 	0.34124
0.011689 	-0.000108082 	-0.000450889 	0.340214
0.0117391 	-0.00010871 	-0.000447213 	0.339188
0.0117893 	-0.000109339 	-0.000443536 	0.338161
0.0118395 	-0.000109968 	-0.00043986 	0.337135
0.0118896 	-0.000110596 	-0.000436184 	0.336109
0.0119398 	-0.000112127 	-0.000430031 	0.334544
0.01199 	-0.00011368 	-0.00042382 	0.332966
0.0120401 	-0.000115232 	-0.000417609 	0.331389
0.0120903 	-0.000116784 	-0.000411399 	0.329811
0.0121405 	-0.000118336 	-0.000405188 	0.328234
0.0121906 	-0.000119888 	-0.000398977 	0.326656
0.0122408 	-0.000121441 	-0.000392767 	0.325079
0.012291 	-0.000122993 	-0.000386556 	0.323501
0.0123411 	-0.000124545 	-0.000380345 	0.321924
0.0123913 	-0.000126097 	-0.000374135 	0.320346
0.0124415 	-0.000127649 	-0.000367924 	0.318769
0.0124916 	-0.000129201 	-0.000361713 	0.317191
0.0125418 	-0.000130754 	-0.000355503 	0.315613
0.012592 	-0.000132306 	-0.000349292 	0.314036
0.0126421 	-0.000134117 	-0.000342123 	0.312173
0.0126923 	-0.000136508 	-0.000332805 	0.309671
0.0127425 	-0.0001389 	-0.000323487 	0.307169
0.0127926 	-0.000141291 	-0.000314169 	0.304667
0.0128428 	-0.000143682 	-0.000304851 	0.302165
0.012893 	-0.000146074 	-0.000295533 	0.299663
0.0129431 	-0.000148465 	-0.000286215 	0.297161
0.0129933 	-0.000150857 	-0.000276896 	0.294659
0.0130435 	-0.000153248 	-0.000267578 	0.292157
0.0130936 	-0.000155639 	-0.00025826 	0.289655
0.0131438 	-0.000158031 	-0.000248942 	0.287153
0.013194 	-0.000160422 	-0.000239624 	0.284651
0.0132441 	-0.000162814 	-0.000230306 	0.282149
0.0132943 	-0.000164881 	-0.000219413 	0.27843
0.0133445 	-0.00016683 	-0.000207948 	0.27427
0.0133946 	-0.000168779 	-0.000196483 	0.270109
0.0134448 	-0.000170729 	-0.000185018 	0.265948
0.013495 	-0.000172678 	-0.000173553 	0.261788
0.0135452 	-0.000174627 	-0.000162088 	0.257627
0.0135953 	-0.000176576 	-0.000150622 	0.253466
0.0136455 	-0.000178526 	-0.000139157 	0.249305
0.0136957 	-0.000180475 	-0.000127692 	0.245145
0.0137458 	-0.000182424 	-0.000116227 	0.240984
0.013796 	-0.000184373 	-0.000104762 	0.236823
0.0138462 	-0.000182258 	-9.49808e-05 	0.229378
0.0138963 	-0.000179944 	-8.52818e-05 	0.221773
0.0139465 	-0.00017763 	-7.55827e-05 	0.214168
0.0139967 	-0.000175317 	-6.58837e-05 	0.206563
0.0140468 	-0.000173003 	-5.61846e-05 	0.198957
0.014097 	-0.000170689 	-4.64856e-05 	0.191352
0.0141472 	-0.000168376 	-3.67866e-05 	0.183747
0.0141973 	-0.000166062 	-2.70875e-05 	0.176142
0.0142475 	-0.000163748 	-1.73885e-05 	0.168537
0.0142977 	-0.00015597 	-1.2382e-05 	0.158015
0.0143478 	-0.000145989 	-9.26818e-06 	0.146316
0.014398 	-0.000136007 	-6.15432e-06 	0.134617
0.0144482 	-0.000126025 	-3.04047e-06 	0.122918
0.0144983 	-0.000116043 	7.33879e-08 	0.111219
0.0145485 	-0.000106061 	3.18724e-06 	0.0995206
0.0145987 	-9.60792e-05 	6.3011e-06 	0.0878218
0.0146488 	-8.60973e-05 	9.41496e-06 	0.0761229
0.014699 	-7.4226e-05 	8.89387e-06 	0.0650959
0.0147492 	-6.1855e-05 	7.41156e-06 	0.0542466
0.0147993 	-4.9484e-05 	5.92925e-06 	0.0433973
0.0148495 	-3.7113e-05 	4.44694e-06 	0.032548
0.0148997 	-2.4742e-05 	2.96462e-06 	0.0216986
0.0149498 	-1.2371e-05 	1.48231e-06 	0.0108493
0.015 	0 	0 	0
