0 	0 	0 	0
5.01672e-05 	-0.000214693 	-1.34065e-05 	0.014655
0.000100334 	0.000200001 	-2.72778e-05 	0.0305044
0.000150502 	0.000730524 	-4.22618e-05 	0.0454062
0.000200669 	0.00113514 	-5.59373e-05 	0.0586544
0.000250836 	0.00144525 	-6.97645e-05 	0.0705651
0.000301003 	0.00171445 	-8.4118e-05 	0.081457
0.000351171 	0.0019627 	-9.90326e-05 	0.0914945
0.000401338 	0.00219758 	-0.000114368 	0.100776
0.000451505 	0.00242216 	-0.000129851 	0.109363
0.000501672 	0.00263759 	-0.000145231 	0.117302
0.000551839 	0.00284403 	-0.000160367 	0.12463
0.000602007 	0.00304122 	-0.000175173 	0.13139
0.000652174 	0.00322867 	-0.000189551 	0.137627
0.000702341 	0.00340568 	-0.000203407 	0.143385
0.000752508 	0.00357134 	-0.000216718 	0.148706
0.000802676 	0.0037246 	-0.000229531 	0.153626
0.000852843 	0.00386273 	-0.000241844 	0.158127
0.00090301 	0.0039881 	-0.000253779 	0.162304
0.000953177 	0.00410168 	-0.000265275 	0.166189
0.00100334 	0.00420454 	-0.000276239 	0.169812
0.00105351 	0.00429778 	-0.000286663 	0.173197
0.00110368 	0.00438219 	-0.000296653 	0.176361
0.00115385 	0.00445676 	-0.000306472 	0.179275
0.00120401 	0.00452524 	-0.000316237 	0.182023
0.00125418 	0.00458878 	-0.000325817 	0.184625
0.00130435 	0.00464831 	-0.00033509 	0.187097
0.00135452 	0.004704 	-0.000343713 	0.189417
0.00140468 	0.00475721 	-0.000351759 	0.19162
0.00145485 	0.00480851 	-0.000359324 	0.193734
0.00150502 	0.00485804 	-0.000366407 	0.195764
0.00155518 	0.00490438 	-0.000372055 	0.197673
0.00160535 	0.00494819 	-0.000377503 	0.199513
0.00165552 	0.00498969 	-0.000383494 	0.201289
0.00170569 	0.00502788 	-0.000392524 	0.202978
0.00175585 	0.00506494 	-0.000404713 	0.204594
0.00180602 	0.00510212 	-0.000417872 	0.206158
0.00185619 	0.00514114 	-0.000430156 	0.207644
0.00190635 	0.00518287 	-0.00043574 	0.20907
0.00195652 	0.00522528 	-0.000436287 	0.210465
0.00200669 	0.00526588 	-0.000425611 	0.211827
0.00205686 	0.00529679 	-0.000412585 	0.213204
0.00210702 	0.00532116 	-0.000398219 	0.21459
0.00215719 	0.00531898 	-0.000401534 	0.216026
0.00220736 	0.00530892 	-0.000412514 	0.217456
0.00225753 	0.00528624 	-0.000435769 	0.218879
0.00230769 	0.00526205 	-0.000458125 	0.220219
0.00235786 	0.00523778 	-0.000479425 	0.221522
0.00240803 	0.00522366 	-0.000485376 	0.222684
0.00245819 	0.00520979 	-0.000485222 	0.223805
0.00250836 	0.00519642 	-0.000472691 	0.224844
0.00255853 	0.00516187 	-0.000459549 	0.225808
0.0026087 	0.0051123 	-0.000445974 	0.226719
0.00265886 	0.00500821 	-0.000446656 	0.227508
0.00270903 	0.00489117 	-0.000450725 	0.228268
0.0027592 	0.00473 	-0.000471575 	0.228957
0.00280936 	0.00458014 	-0.000493633 	0.229676
0.00285953 	0.00449052 	-0.000522053 	0.23056
0.0029097 	0.00444956 	-0.000545679 	0.231551
0.00295987 	0.0045311 	-0.000557231 	0.232812
0.00301003 	0.00464755 	-0.000560471 	0.234093
0.0030602 	0.00482178 	-0.000549948 	0.235407
0.00311037 	0.00498011 	-0.000537929 	0.236575
0.00316054 	0.00511776 	-0.000523964 	0.237555
0.0032107 	0.00521476 	-0.000501038 	0.238408
0.00326087 	0.00526363 	-0.000467508 	0.239111
0.00331104 	0.00527004 	-0.000429277 	0.23984
0.0033612 	0.00522365 	-0.000385201 	0.240602
0.00341137 	0.0051476 	-0.000362803 	0.241505
0.00346154 	0.00502657 	-0.000373256 	0.242622
0.00351171 	0.00489717 	-0.0003979 	0.243778
0.00356187 	0.00474937 	-0.000453755 	0.245019
0.00361204 	0.00460577 	-0.000506282 	0.246209
0.00366221 	0.00448001 	-0.000544638 	0.247184
0.00371237 	0.00435506 	-0.000581642 	0.248149
0.00376254 	0.00425671 	-0.000574591 	0.248831
0.00381271 	0.00415836 	-0.00056754 	0.249512
0.00386288 	0.00405596 	-0.000540521 	0.250021
0.00391304 	0.00395273 	-0.000509429 	0.250494
0.00396321 	0.0038227 	-0.000491693 	0.250863
0.00401338 	0.00367419 	-0.000483162 	0.251159
0.00406355 	0.00351304 	-0.000484346 	0.251423
0.00411371 	0.00332419 	-0.00050683 	0.251613
0.00416388 	0.00313533 	-0.000529314 	0.251803
0.00421405 	0.0029977 	-0.000558608 	0.252164
0.00426421 	0.00286039 	-0.000587945 	0.252526
0.00431438 	0.00281912 	-0.000597683 	0.253178
0.00436455 	0.00283365 	-0.000596032 	0.253999
0.00441472 	0.0028681 	-0.000589118 	0.254857
0.00446488 	0.00296968 	-0.000564481 	0.255841
0.00451505 	0.00307126 	-0.000539844 	0.256824
0.00456522 	0.00314493 	-0.000532728 	0.257599
0.00461538 	0.00321082 	-0.000530489 	0.258314
0.00466555 	0.00325655 	-0.000533461 	0.25895
0.00471572 	0.00325335 	-0.000549083 	0.259394
0.00476589 	0.00325014 	-0.000564705 	0.259837
0.00481605 	0.00321439 	-0.000574966 	0.26018
0.00486622 	0.00316816 	-0.000583502 	0.260491
0.00491639 	0.00312176 	-0.000591122 	0.260797
0.00496656 	0.00307457 	-0.000594447 	0.261081
0.00501672 	0.00302738 	-0.000597772 	0.261365
0.00506689 	0.00298504 	-0.000601693 	0.261644
0.00511706 	0.0029467 	-0.000606103 	0.261918
0.00516722 	0.00290835 	-0.000610513 	0.262193
0.00521739 	0.00287489 	-0.000615277 	0.262452
0.00526756 	0.00284211 	-0.000620092 	0.26271
0.00531773 	0.00281005 	-0.000624991 	0.262965
0.00536789 	0.00278192 	-0.000630355 	0.263203
0.00541806 	0.00275379 	-0.000635718 	0.263441
0.00546823 	0.00272726 	-0.000641266 	0.263672
0.00551839 	0.00270329 	-0.000647112 	0.26389
0.00556856 	0.00267933 	-0.000652958 	0.264108
0.00561873 	0.0026576 	-0.000658937 	0.264314
0.0056689 	0.00263762 	-0.000665019 	0.264511
0.00571906 	0.00261764 	-0.000671101 	0.264707
0.00576923 	0.00260032 	-0.000677285 	0.264889
0.0058194 	0.00258419 	-0.000683516 	0.265065
0.00586957 	0.00256806 	-0.000689746 	0.26524
0.00591973 	0.00255474 	-0.000696143 	0.265399
0.0059699 	0.00254227 	-0.00070259 	0.265553
0.00602007 	0.00252981 	-0.000709037 	0.265707
0.00607023 	0.00252001 	-0.000715683 	0.265845
0.0061204 	0.00251091 	-0.000722381 	0.265978
0.00617057 	0.00250182 	-0.000729078 	0.266111
0.00622074 	0.00249505 	-0.000735948 	0.266229
0.0062709 	0.00248899 	-0.00074287 	0.266343
0.00632107 	0.00248293 	-0.000749792 	0.266456
0.00637124 	0.00247878 	-0.000756779 	0.266556
0.0064214 	0.00247552 	-0.000763798 	0.266651
0.00647157 	0.00247226 	-0.000770816 	0.266746
0.00652174 	0.00247054 	-0.000778062 	0.266832
0.00657191 	0.0024701 	-0.0007855 	0.266911
0.00662207 	0.00246966 	-0.000792938 	0.266989
0.00667224 	0.0024699 	-0.000800025 	0.267061
0.00672241 	0.00247138 	-0.000806459 	0.267121
0.00677258 	0.00247287 	-0.000812893 	0.267181
0.00682274 	0.00247441 	-0.000819646 	0.267238
0.00687291 	0.00247648 	-0.000829291 	0.267276
0.00692308 	0.00247855 	-0.000838936 	0.267314
0.00697324 	0.00248062 	-0.00084858 	0.267352
0.00702341 	0.00248117 	-0.000858325 	0.26736
0.00707358 	0.00248131 	-0.000868096 	0.267361
0.00712375 	0.00248145 	-0.000877867 	0.267361
0.00717391 	0.00247375 	-0.00088255 	0.267309
0.00722408 	0.00245524 	-0.000880217 	0.267186
0.00727425 	0.00243672 	-0.000877883 	0.267062
0.00732441 	0.0024182 	-0.00087555 	0.266939
0.00737458 	0.00235546 	-0.000888429 	0.266597
0.00742475 	0.00229231 	-0.000901446 	0.266253
0.00747492 	0.00222916 	-0.000914463 	0.265909
0.00752508 	0.00215252 	-0.000940551 	0.265494
0.00757525 	0.00206239 	-0.00097971 	0.265009
0.00762542 	0.00197225 	-0.00101887 	0.264524
0.00767559 	0.0018828 	-0.00105777 	0.264042
0.00772575 	0.0018682 	-0.00106811 	0.263852
0.00777592 	0.0018536 	-0.00107845 	0.263663
0.00782609 	0.001839 	-0.00108879 	0.263473
0.00787625 	0.00187529 	-0.00108581 	0.263504
0.00792642 	0.00194849 	-0.00107318 	0.263693
0.00797659 	0.00202168 	-0.00106055 	0.263883
0.00802676 	0.00209427 	-0.00105193 	0.264071
0.00807692 	0.00216456 	-0.00105837 	0.264254
0.00812709 	0.00223484 	-0.00106481 	0.264437
0.00817726 	0.00230513 	-0.00107125 	0.264619
0.00822742 	0.00235205 	-0.00108512 	0.264677
0.00827759 	0.0023964 	-0.00109979 	0.26472
0.00832776 	0.00244074 	-0.00111447 	0.264763
0.00837793 	0.00247704 	-0.00112602 	0.264745
0.00842809 	0.00250898 	-0.00113587 	0.264694
0.00847826 	0.00254093 	-0.00114573 	0.264643
0.00852843 	0.00257272 	-0.00115291 	0.264579
0.0085786 	0.00260433 	-0.0011569 	0.264501
0.00862876 	0.00263594 	-0.00116089 	0.264422
0.00867893 	0.00266813 	-0.00116465 	0.264343
0.0087291 	0.00270157 	-0.00116791 	0.264263
0.00877926 	0.00273501 	-0.00117118 	0.264182
0.00882943 	0.00276876 	-0.00117699 	0.264096
0.0088796 	0.00280351 	-0.00119113 	0.263994
0.00892977 	0.00283827 	-0.00120527 	0.263891
0.00897993 	0.00287348 	-0.00122077 	0.263761
0.0090301 	0.00291045 	-0.00124152 	0.263529
0.00908027 	0.00294741 	-0.00126227 	0.263297
0.00913043 	0.00298553 	-0.00127591 	0.262998
0.0091806 	0.00302753 	-0.001266 	0.26248
0.00923077 	0.00306953 	-0.00125609 	0.261962
0.00928094 	0.00311302 	-0.00123564 	0.261339
0.0093311 	0.00315984 	-0.00119162 	0.260479
0.00938127 	0.00320665 	-0.0011476 	0.259619
0.00943144 	0.00325058 	-0.00112239 	0.258835
0.00948161 	0.0032908 	-0.00112127 	0.258149
0.00953177 	0.00333101 	-0.00112016 	0.257464
0.00958194 	0.00336493 	-0.00114781 	0.257098
0.00963211 	0.00339494 	-0.00119327 	0.25693
0.00968227 	0.00342495 	-0.00123874 	0.256761
0.00973244 	0.00345476 	-0.00126585 	0.25671
0.00978261 	0.00348454 	-0.00128964 	0.256679
0.00983278 	0.00351477 	-0.00130995 	0.256633
0.00988294 	0.00354816 	-0.0013058 	0.256483
0.00993311 	0.00358155 	-0.00130164 	0.256333
0.00998328 	0.003616 	-0.00129313 	0.256124
0.0100334 	0.00365173 	-0.0012793 	0.255844
0.0100836 	0.00368747 	-0.00126547 	0.255564
0.0101338 	0.00372347 	-0.00125429 	0.255223
0.0101839 	0.00375954 	-0.00124368 	0.25487
0.0102341 	0.00379525 	-0.00123414 	0.254507
0.0102843 	0.00382984 	-0.00122792 	0.254113
0.0103344 	0.00386443 	-0.00122171 	0.253719
0.0103846 	0.00389703 	-0.00121717 	0.253299
0.0104348 	0.00392882 	-0.00121332 	0.252868
0.0104849 	0.00396002 	-0.00120976 	0.252428
0.0105351 	0.00398916 	-0.00120726 	0.251957
0.0105853 	0.0040183 	-0.00120477 	0.251485
0.0106355 	0.00404675 	-0.00120074 	0.250983
0.0106856 	0.00407499 	-0.00119626 	0.250472
0.0107358 	0.0041035 	-0.00119034 	0.249947
0.010786 	0.00413249 	-0.00118194 	0.249399
0.0108361 	0.00416148 	-0.00117354 	0.24885
0.0108863 	0.00419098 	-0.00116629 	0.248267
0.0109365 	0.00422047 	-0.00115905 	0.247683
0.0109866 	0.00424804 	-0.00115456 	0.247069
0.0110368 	0.00427471 	-0.00115133 	0.246441
0.011087 	0.00429774 	-0.00114686 	0.245789
0.0111371 	0.00431546 	-0.00114056 	0.2451
0.0111873 	0.00433091 	-0.00113245 	0.244397
0.0112375 	0.00433526 	-0.00111547 	0.243624
0.0112876 	0.00433961 	-0.0010985 	0.242851
0.0113378 	0.00433449 	-0.00107323 	0.241989
0.011388 	0.00432907 	-0.0010477 	0.241125
0.0114381 	0.00432697 	-0.00102567 	0.240214
0.0114883 	0.00432565 	-0.00100446 	0.239292
0.0115385 	0.00433662 	-0.000991883 	0.238367
0.0115886 	0.00435318 	-0.000983235 	0.23744
0.0116388 	0.00438015 	-0.000977691 	0.236522
0.011689 	0.00441398 	-0.000974195 	0.235611
0.0117391 	0.00445068 	-0.000968556 	0.234697
0.0117893 	0.00448967 	-0.000961193 	0.233781
0.0118395 	0.00452542 	-0.000950954 	0.232845
0.0118896 	0.00455842 	-0.000938285 	0.231894
0.0119398 	0.00458522 	-0.000923842 	0.23091
0.01199 	0.00460727 	-0.000908035 	0.229902
0.0120401 	0.00462214 	-0.000890802 	0.228849
0.0120903 	0.00463267 	-0.000872706 	0.227769
0.0121405 	0.0046361 	-0.000852403 	0.226628
0.0121906 	0.00463671 	-0.000831224 	0.225462
0.0122408 	0.00463191 	-0.000812006 	0.224214
0.012291 	0.0046261 	-0.00079316 	0.22295
0.0123411 	0.00461839 	-0.000780525 	0.221563
0.0123913 	0.00461105 	-0.000766914 	0.220142
0.0124415 	0.00460525 	-0.000749199 	0.218577
0.0124916 	0.0046005 	-0.000726009 	0.216917
0.0125418 	0.00459725 	-0.000695107 	0.215122
0.012592 	0.00459333 	-0.000663309 	0.213208
0.0126421 	0.00458907 	-0.00063107 	0.211235
0.0126923 	0.00458231 	-0.000616368 	0.209269
0.0127425 	0.00457549 	-0.000606175 	0.207333
0.0127926 	0.00456883 	-0.000605912 	0.205475
0.0128428 	0.00456277 	-0.000598614 	0.203634
0.012893 	0.00455709 	-0.000586921 	0.201804
0.0129431 	0.00454898 	-0.000560478 	0.199895
0.0129933 	0.00453825 	-0.000533077 	0.197935
0.0130435 	0.00452352 	-0.000504425 	0.195896
0.0130936 	0.00450211 	-0.000480505 	0.193743
0.0131438 	0.00447724 	-0.000459047 	0.191525
0.013194 	0.00444722 	-0.000441271 	0.189201
0.0132441 	0.00441223 	-0.000423042 	0.186746
0.0132943 	0.00437397 	-0.000403976 	0.184196
0.0133445 	0.00433113 	-0.000383112 	0.181506
0.0133946 	0.00428321 	-0.000361656 	0.178647
0.0134448 	0.004232 	-0.000340434 	0.175673
0.013495 	0.00417731 	-0.000319797 	0.172573
0.0135452 	0.0041177 	-0.00030054 	0.169278
0.0135953 	0.00405498 	-0.00028171 	0.165855
0.0136455 	0.00398884 	-0.000263208 	0.162295
0.0136957 	0.00391821 	-0.000244891 	0.15856
0.0137458 	0.00384155 	-0.000226963 	0.154609
0.013796 	0.00375977 	-0.000209482 	0.150481
0.0138462 	0.0036725 	-0.000192576 	0.146162
0.0138963 	0.00357939 	-0.000176387 	0.141638
0.0139465 	0.00347839 	-0.000161185 	0.136824
0.0139967 	0.003371 	-0.000146541 	0.131769
0.0140468 	0.0032566 	-0.000132599 	0.126466
0.014097 	0.00313413 	-0.000119634 	0.120897
0.0141472 	0.00300239 	-0.000107921 	0.115046
0.0141973 	0.00286045 	-9.74258e-05 	0.108887
0.0142475 	0.00270777 	-8.76722e-05 	0.102347
0.0142977 	0.0025493 	-7.81923e-05 	0.0954736
0.0143478 	0.00238945 	-6.92137e-05 	0.0882931
0.014398 	0.0022332 	-6.09232e-05 	0.0808532
0.0144482 	0.00208546 	-5.32229e-05 	0.07323
0.0144983 	0.00195027 	-4.59078e-05 	0.0655267
0.0145485 	0.00182973 	-3.89103e-05 	0.0578673
0.0145987 	0.00172258 	-3.22551e-05 	0.0503795
0.0146488 	0.0016226 	-2.58842e-05 	0.0431705
0.014699 	0.00151706 	-1.96738e-05 	0.0363046
0.0147492 	0.00138477 	-1.35709e-05 	0.0297865
0.0147993 	0.00119179 	-7.79388e-06 	0.023552
0.0148495 	0.000882567 	-2.80822e-06 	0.0174511
0.0148997 	0.000445088 	2.93374e-07 	0.0113116
0.0149498 	6.22505e-05 	9.16839e-07 	0.00527866
0.015 	0 	0 	0
