-0.0075 	373
-0.00715932 	360.717
-0.00676191 	358.8
-0.00629832 	358.034
-0.00575752 	357.563
-0.00512667 	357.192
-0.00439077 	356.861
-0.00353231 	356.541
-0.00253089 	356.214
-0.00136271 	355.862
0 	355.473
0.00136271 	355.049
0.00253089 	354.605
0.00353231 	354.148
0.00439077 	353.666
0.00512667 	353.118
0.00575752 	352.425
0.00629832 	351.4
0.00676191 	349.193
0.00715932 	338.078
0.0075 	313
