-0.0075 	0 	0 	0
-0.0075 	-9.38977e-35 	-2.02107e-36 	-7.42859e-33
-0.00745622 	-0.00012341 	-2.65629e-06 	-0.0097634
-0.00745622 	-0.00012341 	-2.65629e-06 	-0.0097634
-0.00741165 	-0.000253709 	-4.94022e-06 	-0.0198548
-0.00741165 	-0.000253709 	-4.94022e-06 	-0.0198548
-0.00736628 	-0.000392471 	-6.43087e-06 	-0.0301748
-0.00736628 	-0.000392471 	-6.43087e-06 	-0.0301748
-0.0073201 	-0.000533403 	-5.15526e-06 	-0.0405904
-0.0073201 	-0.000533403 	-5.15526e-06 	-0.0405904
-0.00727309 	-0.00067528 	-3.42344e-06 	-0.0510044
-0.00727309 	-0.00067528 	-3.42344e-06 	-0.0510044
-0.00722524 	-0.00081899 	-2.84111e-07 	-0.0613308
-0.00722524 	-0.00081899 	-2.84111e-07 	-0.0613308
-0.00717653 	-0.000964102 	3.95828e-06 	-0.0714779
-0.00717653 	-0.000964102 	3.95828e-06 	-0.0714779
-0.00712695 	-0.00110957 	9.35787e-06 	-0.0813547
-0.00712695 	-0.00110957 	9.35787e-06 	-0.0813547
-0.00707647 	-0.00125405 	1.59983e-05 	-0.0908803
-0.00707647 	-0.00125405 	1.59983e-05 	-0.0908803
-0.0070251 	-0.00139601 	2.3859e-05 	-0.0999914
-0.0070251 	-0.00139601 	2.3859e-05 	-0.0999914
-0.0069728 	-0.00153404 	3.30616e-05 	-0.10865
-0.0069728 	-0.00153404 	3.30616e-05 	-0.10865
-0.00691956 	-0.00166722 	4.35774e-05 	-0.116854
-0.00691956 	-0.00166722 	4.35774e-05 	-0.116854
-0.00686537 	-0.00179495 	5.53697e-05 	-0.124629
-0.00686537 	-0.00179495 	5.53697e-05 	-0.124629
-0.00681021 	-0.00191664 	6.85671e-05 	-0.132014
-0.00681021 	-0.00191664 	6.85671e-05 	-0.132014
-0.00675406 	-0.00203169 	8.31345e-05 	-0.139037
-0.00675406 	-0.00203169 	8.31345e-05 	-0.139037
-0.0066969 	-0.00213962 	9.90641e-05 	-0.145716
-0.0066969 	-0.00213962 	9.90641e-05 	-0.145716
-0.00663871 	-0.00224007 	0.00011638 	-0.152068
-0.00663871 	-0.00224007 	0.00011638 	-0.152068
-0.00657949 	-0.0023328 	0.000135009 	-0.158105
-0.00657949 	-0.0023328 	0.000135009 	-0.158105
-0.0065192 	-0.00241768 	0.000154874 	-0.163843
-0.0065192 	-0.00241768 	0.000154874 	-0.163843
-0.00645783 	-0.0024947 	0.000175851 	-0.169298
-0.00645783 	-0.0024947 	0.000175851 	-0.169298
-0.00639535 	-0.00256404 	0.000197776 	-0.174493
-0.00639535 	-0.00256404 	0.000197776 	-0.174493
-0.00633176 	-0.00262585 	0.000220566 	-0.179453
-0.00633176 	-0.00262585 	0.000220566 	-0.179453
-0.00626703 	-0.00268002 	0.000244374 	-0.184202
-0.00626703 	-0.00268002 	0.000244374 	-0.184202
-0.00620114 	-0.00272606 	0.000269381 	-0.188746
-0.00620114 	-0.00272606 	0.000269381 	-0.188746
-0.00613406 	-0.00276344 	0.000295194 	-0.193076
-0.00613406 	-0.00276344 	0.000295194 	-0.193076
-0.00606579 	-0.00279228 	0.000321183 	-0.197189
-0.00606579 	-0.00279228 	0.000321183 	-0.197189
-0.00599629 	-0.00281328 	0.000347456 	-0.201102
-0.00599629 	-0.00281328 	0.000347456 	-0.201102
-0.00592554 	-0.00282694 	0.000374372 	-0.204826
-0.00592554 	-0.00282694 	0.000374372 	-0.204826
-0.00585352 	-0.00283349 	0.000401552 	-0.208344
-0.00585352 	-0.00283349 	0.000401552 	-0.208344
-0.00578022 	-0.00283297 	0.000428042 	-0.211654
-0.00578022 	-0.00283297 	0.000428042 	-0.211654
-0.00570559 	-0.00282474 	0.000452519 	-0.214832
-0.00570559 	-0.00282474 	0.000452519 	-0.214832
-0.00562963 	-0.00280773 	0.000477266 	-0.21802
-0.00562963 	-0.00280773 	0.000477266 	-0.21802
-0.00555231 	-0.00278167 	0.000505642 	-0.221273
-0.00555231 	-0.00278167 	0.000505642 	-0.221273
-0.0054736 	-0.00274924 	0.000535215 	-0.224447
-0.0054736 	-0.00274924 	0.000535215 	-0.224447
-0.00539348 	-0.00271345 	0.000563709 	-0.227383
-0.00539348 	-0.00271345 	0.000563709 	-0.227383
-0.00531193 	-0.00267266 	0.000590329 	-0.230073
-0.00531193 	-0.00267266 	0.000590329 	-0.230073
-0.00522891 	-0.00262377 	0.000615959 	-0.23258
-0.00522891 	-0.00262377 	0.000615959 	-0.23258
-0.0051444 	-0.00256537 	0.000642828 	-0.234972
-0.0051444 	-0.00256537 	0.000642828 	-0.234972
-0.00505838 	-0.00249768 	0.000668662 	-0.237326
-0.00505838 	-0.00249768 	0.000668662 	-0.237326
-0.00497081 	-0.00242336 	0.000691689 	-0.239712
-0.00497081 	-0.00242336 	0.000691689 	-0.239712
-0.00488168 	-0.0023458 	0.000713817 	-0.242116
-0.00488168 	-0.0023458 	0.000713817 	-0.242116
-0.00479094 	-0.00226616 	0.000736943 	-0.244415
-0.00479094 	-0.00226616 	0.000736943 	-0.244415
-0.00469858 	-0.00218231 	0.000760943 	-0.246494
-0.00469858 	-0.00218231 	0.000760943 	-0.246494
-0.00460456 	-0.00209095 	0.000783939 	-0.248359
-0.00460456 	-0.00209095 	0.000783939 	-0.248359
-0.00450886 	-0.00199137 	0.000804709 	-0.25009
-0.00450886 	-0.00199137 	0.000804709 	-0.25009
-0.00441144 	-0.00188554 	0.000823981 	-0.251756
-0.00441144 	-0.00188554 	0.000823981 	-0.251756
-0.00431227 	-0.00177615 	0.000842721 	-0.253404
-0.00431227 	-0.00177615 	0.000842721 	-0.253404
-0.00421133 	-0.00166509 	0.000860879 	-0.255114
-0.00421133 	-0.00166509 	0.000860879 	-0.255114
-0.00410857 	-0.00155056 	0.000877661 	-0.256951
-0.00410857 	-0.00155056 	0.000877661 	-0.256951
-0.00400397 	-0.00142865 	0.000892232 	-0.258788
-0.00400397 	-0.00142865 	0.000892232 	-0.258788
-0.0038975 	-0.00129994 	0.000904191 	-0.260369
-0.0038975 	-0.00129994 	0.000904191 	-0.260369
-0.00378912 	-0.00116952 	0.000913012 	-0.261622
-0.00378912 	-0.00116952 	0.000913012 	-0.261622
-0.00367879 	-0.0010393 	0.000918863 	-0.262685
-0.00367879 	-0.0010393 	0.000918863 	-0.262685
-0.00356649 	-0.000906362 	0.000922693 	-0.263681
-0.00356649 	-0.000906362 	0.000922693 	-0.263681
-0.00345217 	-0.000768558 	0.000925126 	-0.264634
-0.00345217 	-0.000768558 	0.000925126 	-0.264634
-0.0033358 	-0.000625928 	0.000926698 	-0.265535
-0.0033358 	-0.000625928 	0.000926698 	-0.265535
-0.00321735 	-0.000477098 	0.000928269 	-0.266422
-0.00321735 	-0.000477098 	0.000928269 	-0.266422
-0.00309677 	-0.000318808 	0.00092884 	-0.267417
-0.00309677 	-0.000318808 	0.00092884 	-0.267417
-0.00297403 	-0.000150055 	0.00092302 	-0.268707
-0.00297403 	-0.000150055 	0.00092302 	-0.268707
-0.00284909 	2.68513e-05 	0.000909518 	-0.270337
-0.00284909 	2.68513e-05 	0.000909518 	-0.270337
-0.0027219 	0.000202534 	0.000895145 	-0.271922
-0.0027219 	0.000202534 	0.000895145 	-0.271922
-0.00259244 	0.000364455 	0.000881762 	-0.273035
-0.00259244 	0.000364455 	0.000881762 	-0.273035
-0.00246065 	0.000509276 	0.00086496 	-0.273727
-0.00246065 	0.000509276 	0.00086496 	-0.273727
-0.00232651 	0.00064167 	0.000843455 	-0.27425
-0.00232651 	0.00064167 	0.000843455 	-0.27425
-0.00218995 	0.000765631 	0.000819112 	-0.274698
-0.00218995 	0.000765631 	0.000819112 	-0.274698
-0.00205095 	0.000882467 	0.000793717 	-0.275079
-0.00205095 	0.000882467 	0.000793717 	-0.275079
-0.00190946 	0.000992732 	0.000766735 	-0.275448
-0.00190946 	0.000992732 	0.000766735 	-0.275448
-0.00176543 	0.00109818 	0.00073445 	-0.275911
-0.00176543 	0.00109818 	0.00073445 	-0.275911
-0.00161881 	0.00120463 	0.000694908 	-0.276478
-0.00161881 	0.00120463 	0.000694908 	-0.276478
-0.00146957 	0.0013107 	0.000651347 	-0.27691
-0.00146957 	0.0013107 	0.000651347 	-0.27691
-0.00131765 	0.00140582 	0.000604335 	-0.277031
-0.00131765 	0.00140582 	0.000604335 	-0.277031
-0.001163 	0.00148595 	0.000550658 	-0.276926
-0.001163 	0.00148595 	0.000550658 	-0.276926
-0.00100559 	0.00155298 	0.00049102 	-0.276679
-0.00100559 	0.00155298 	0.00049102 	-0.276679
-0.000845345 	0.00160775 	0.000431799 	-0.2763
-0.000845345 	0.00160775 	0.000431799 	-0.2763
-0.000682232 	0.00165031 	0.000371378 	-0.27579
-0.000682232 	0.00165031 	0.000371378 	-0.27579
-0.000516194 	0.00168082 	0.000305379 	-0.275161
-0.000516194 	0.00168082 	0.000305379 	-0.275161
-0.000347178 	0.00169918 	0.000238708 	-0.274427
-0.000347178 	0.00169918 	0.000238708 	-0.274427
-0.000175132 	0.00170507 	0.000160985 	-0.273615
-0.000175132 	0.00170507 	0.000160985 	-0.273615
0 	0.00169876 	7.89838e-05 	-0.272778
0 	0.00169876 	7.89838e-05 	-0.272778
0 	0.00169876 	7.89838e-05 	-0.272778
0 	0.00169876 	7.89838e-05 	-0.272778
0.000175132 	0.00167768 	7.53255e-06 	-0.271939
0.000175132 	0.000559474 	-0.000761779 	-0.241517
0.000347178 	0.0016303 	-6.08434e-05 	-0.270967
0.000347178 	0.000468157 	-0.000996776 	-0.240976
0.000516194 	0.00154723 	-0.000124704 	-0.269711
0.000516194 	0.000380759 	-0.00120783 	-0.240607
0.000682232 	0.0014487 	-0.000183631 	-0.268486
0.000682232 	0.000296975 	-0.0013948 	-0.240369
0.000845345 	0.00135815 	-0.000232644 	-0.267654
0.000845345 	0.000213366 	-0.00157581 	-0.240259
0.00100559 	0.00127378 	-0.000270089 	-0.26713
0.00100559 	0.000125397 	-0.00177129 	-0.240312
0.001163 	0.00118771 	-0.000305009 	-0.266726
0.001163 	2.63905e-05 	-0.001949 	-0.24063
0.00131765 	0.00109514 	-0.000338489 	-0.266329
0.00131765 	-9.21439e-05 	-0.00201396 	-0.241352
0.00146957 	0.000995342 	-0.000368038 	-0.26591
0.00146957 	-0.000228136 	-0.00201268 	-0.2424
0.00161881 	0.000887239 	-0.000392818 	-0.265432
0.00161881 	-0.000362865 	-0.00214179 	-0.243264
0.00176543 	0.00076807 	-0.000412822 	-0.264735
0.00176543 	-0.000494461 	-0.00235568 	-0.243672
0.00190946 	0.000641644 	-0.000429422 	-0.263677
0.00190946 	-0.000640038 	-0.00247197 	-0.243849
0.00205095 	0.000518792 	-0.000444892 	-0.262484
0.00205095 	-0.000805127 	-0.00249775 	-0.24394
0.00218995 	0.000403009 	-0.000456368 	-0.261456
0.00218995 	-0.000987368 	-0.00250598 	-0.243923
0.00232651 	0.000290414 	-0.000458114 	-0.26056
0.00232651 	-0.00118568 	-0.00252217 	-0.243767
0.00246065 	0.000175243 	-0.000450875 	-0.259553
0.00246065 	-0.00140054 	-0.00253517 	-0.243482
0.00259244 	4.95121e-05 	-0.000445182 	-0.258184
0.00259244 	-0.0016327 	-0.0025369 	-0.243085
0.0027219 	-8.22313e-05 	-0.000443835 	-0.256615
0.0027219 	-0.00188281 	-0.00252734 	-0.242592
0.00284909 	-0.000207256 	-0.000437216 	-0.25519
0.00284909 	-0.00215057 	-0.00251001 	-0.242016
0.00297403 	-0.000322189 	-0.000422515 	-0.25392
0.00297403 	-0.00243464 	-0.0024848 	-0.241369
0.00309677 	-0.000430002 	-0.000404788 	-0.252578
0.00309677 	-0.0027335 	-0.00243776 	-0.240661
0.00321735 	-0.000533285 	-0.000386233 	-0.250958
0.00321735 	-0.00304563 	-0.00236416 	-0.239903
0.0033358 	-0.000633682 	-0.000365579 	-0.249176
0.0033358 	-0.00336843 	-0.00229588 	-0.239128
0.00345217 	-0.000732813 	-0.000342924 	-0.247482
0.00345217 	-0.0037006 	-0.00226859 	-0.238397
0.00356649 	-0.000830471 	-0.000320251 	-0.245912
0.00356649 	-0.00404086 	-0.00226156 	-0.237705
0.00367879 	-0.00092536 	-0.000298983 	-0.244381
0.00367879 	-0.00438185 	-0.0022048 	-0.23686
0.00378912 	-0.00471648 	-0.00208232 	-0.235702
0.00378912 	-0.0010168 	-0.0002777 	-0.242828
0.0038975 	-0.00110452 	-0.000255673 	-0.24123
0.0038975 	-0.00504344 	-0.00195452 	-0.23428
0.00400397 	-0.00118828 	-0.000233692 	-0.239582
0.00400397 	-0.00536318 	-0.00187856 	-0.232714
0.00410857 	-0.00126796 	-0.000211948 	-0.237885
0.00410857 	-0.00567773 	-0.0018437 	-0.231082
0.00421133 	-0.00134343 	-0.000190496 	-0.236135
0.00421133 	-0.00599159 	-0.00177523 	-0.229441
0.00431227 	-0.00141462 	-0.000169654 	-0.234332
0.00431227 	-0.00630898 	-0.00164421 	-0.22787
0.00441144 	-0.0014815 	-0.000149719 	-0.232473
0.00441144 	-0.00662831 	-0.00150313 	-0.226426
0.00450886 	-0.001544 	-0.000130926 	-0.230558
0.00450886 	-0.00693745 	-0.00142707 	-0.225018
0.00460456 	-0.00160184 	-0.000113527 	-0.228586
0.00460456 	-0.00722412 	-0.00141138 	-0.223449
0.00469858 	-0.00165457 	-9.74787e-05 	-0.226558
0.00469858 	-0.00748865 	-0.00136986 	-0.22161
0.00479094 	-0.00170178 	-8.239e-05 	-0.224473
0.00479094 	-0.00773772 	-0.00128102 	-0.219541
0.00488168 	-0.00174332 	-6.79947e-05 	-0.222329
0.00488168 	-0.00797588 	-0.00118352 	-0.217338
0.00497081 	-0.00177946 	-5.4365e-05 	-0.220122
0.00497081 	-0.00820559 	-0.00109164 	-0.215073
0.00505838 	-0.00181082 	-4.17899e-05 	-0.217842
0.00505838 	-0.00842823 	-0.00100329 	-0.212784
0.0051444 	-0.00183782 	-3.0433e-05 	-0.215481
0.0051444 	-0.00864333 	-0.000918617 	-0.210498
0.00522891 	-0.00186015 	-2.01202e-05 	-0.213035
0.00522891 	-0.00884757 	-0.000845032 	-0.208227
0.00531193 	-0.00903605 	-0.000788253 	-0.205942
0.00531193 	-0.00187703 	-1.06437e-05 	-0.210509
0.00539348 	-0.00188783 	-2.01448e-06 	-0.207905
0.00539348 	-0.00920526 	-0.00073394 	-0.20359
0.0054736 	-0.00189249 	5.62315e-06 	-0.205225
0.0054736 	-0.00935416 	-0.000668517 	-0.201117
0.00555231 	-0.00189147 	1.21353e-05 	-0.20246
0.00555231 	-0.00948345 	-0.000596612 	-0.198502
0.00562963 	-0.00188535 	1.75297e-05 	-0.199599
0.00562963 	-0.00959437 	-0.000527869 	-0.195756
0.00570559 	-0.0018745 	2.19687e-05 	-0.196626
0.00570559 	-0.00968763 	-0.000467407 	-0.192901
0.00578022 	-0.00185907 	2.56137e-05 	-0.193529
0.00578022 	-0.00976288 	-0.000413994 	-0.189947
0.00585352 	-0.00183906 	2.85507e-05 	-0.190294
0.00585352 	-0.00981893 	-0.000364247 	-0.18689
0.00592554 	-0.00181454 	3.07994e-05 	-0.186905
0.00592554 	-0.00985419 	-0.000316385 	-0.183716
0.00599629 	-0.00178566 	3.23366e-05 	-0.183345
0.00599629 	-0.00986711 	-0.000270719 	-0.180401
0.00606579 	-0.00985608 	-0.000228284 	-0.176917
0.00606579 	-0.00175259 	3.31473e-05 	-0.179595
0.00613406 	-0.00171554 	3.32641e-05 	-0.17563
0.00613406 	-0.00981933 	-0.000189516 	-0.173227
0.00620114 	-0.00167467 	3.27764e-05 	-0.171425
0.00620114 	-0.009755 	-0.000154179 	-0.169287
0.00626703 	-0.00163007 	3.18039e-05 	-0.166953
0.00626703 	-0.00966113 	-0.000122107 	-0.165043
0.00633176 	-0.00158178 	3.04457e-05 	-0.162187
0.00633176 	-0.00953564 	-9.35039e-05 	-0.160455
0.00639535 	-0.00152979 	2.87284e-05 	-0.157101
0.00639535 	-0.00937666 	-6.88751e-05 	-0.155512
0.00645783 	-0.00147413 	2.66651e-05 	-0.151675
0.00645783 	-0.00918257 	-4.83503e-05 	-0.150215
0.0065192 	-0.00141479 	2.43312e-05 	-0.145889
0.0065192 	-0.00895202 	-3.13997e-05 	-0.144563
0.00657949 	-0.00135175 	2.18697e-05 	-0.139726
0.00657949 	-0.00868388 	-1.74994e-05 	-0.138548
0.00663871 	-0.00128497 	1.93821e-05 	-0.133169
0.00663871 	-0.00837677 	-6.52753e-06 	-0.132153
0.0066969 	-0.00121448 	1.68903e-05 	-0.126205
0.0066969 	-0.00802866 	1.67567e-06 	-0.125377
0.00675406 	-0.00114028 	1.43698e-05 	-0.118822
0.00675406 	-0.00763769 	7.56308e-06 	-0.118244
0.00681021 	-0.00106215 	1.17685e-05 	-0.111017
0.00681021 	-0.00720262 	1.12506e-05 	-0.110798
0.00686537 	-0.000979943 	9.17501e-06 	-0.102814
0.00686537 	-0.00672361 	1.27807e-05 	-0.103089
0.00691956 	-0.000893933 	6.73988e-06 	-0.0942738
0.00691956 	-0.00620364 	1.25319e-05 	-0.0951891
0.0069728 	-0.000804899 	4.52978e-06 	-0.0854947
0.0069728 	-0.00564916 	1.08959e-05 	-0.0871853
0.0070251 	-0.000714138 	2.61384e-06 	-0.0766022
0.0070251 	-0.00506984 	8.28537e-06 	-0.0791644
0.00707647 	-0.000623352 	1.08206e-06 	-0.0677352
0.00707647 	-0.00447781 	5.12208e-06 	-0.0711991
0.00712695 	-0.000534384 	4.97891e-09 	-0.0590225
0.00712695 	-0.00388601 	1.84062e-06 	-0.0633354
0.00717653 	-0.000448884 	-5.80653e-07 	-0.0505622
0.00717653 	-0.00330647 	-1.02367e-06 	-0.0555841
0.00722524 	-0.00036805 	-6.63612e-07 	-0.0424108
0.00722524 	-0.00274912 	-2.842e-06 	-0.0479137
0.00727309 	-0.000292634 	-3.08224e-07 	-0.0345861
0.00727309 	-0.00222211 	-3.51725e-06 	-0.0402363
0.0073201 	-0.00022323 	2.11397e-07 	-0.0270769
0.0073201 	-0.00173328 	-4.2468e-06 	-0.0323786
0.00736628 	-0.000160717 	1.37167e-06 	-0.0198562
0.00736628 	-0.00129281 	7.52063e-07 	-0.0240363
0.00741165 	-0.000105157 	1.25457e-06 	-0.0129182
0.00741165 	-0.000888193 	-4.48096e-07 	-0.0152304
0.00745622 	-5.33304e-05 	6.99124e-07 	-0.00630018
0.00745622 	-0.00046814 	-8.26741e-07 	-0.00687503
0.0075 	0 	0 	0
0.0075 	0 	0 	0
