
2703
(
9.12097e-09
9.12553e-09
2.00969e-08
1.45504e-08
1.0318e-07
5.21619e-08
4.29011e-07
2.85435e-07
1.28549e-06
1.12379e-06
3.03313e-06
3.13793e-06
6.029e-06
7.05667e-06
1.0489e-05
1.35627e-05
1.63414e-05
2.28962e-05
2.31875e-05
3.44949e-05
3.04461e-05
4.70998e-05
3.75926e-05
5.94489e-05
4.43241e-05
7.09405e-05
5.05472e-05
8.17757e-05
5.66485e-05
9.13981e-05
6.34173e-05
0.000100759
7.02888e-05
0.000109671
7.68832e-05
0.000118664
8.38487e-05
0.000128874
9.13317e-05
0.000140145
9.9447e-05
0.000152835
0.000108198
0.000167052
0.000117505
0.000182416
0.000127312
0.000198766
0.000137645
0.000216247
0.000148576
0.000235129
0.0001602
0.000255707
0.000172607
0.000278271
0.00018588
0.000303134
0.000200089
0.000330619
0.000215298
0.000361011
0.000231544
0.000394439
0.000248811
0.000430639
0.000266812
0.000468343
0.000285014
0.000503586
0.00030316
0.000531152
0.000321292
0.000552884
0.00033944
0.000570426
0.00035763
0.000585452
0.000375904
0.000598122
0.000394284
0.000608646
0.000412791
0.000617275
0.000431475
0.000624542
0.000450389
0.000630965
0.000469702
0.000636976
0.0004798
0.000642775
0.000492865
0.000653183
0.000517463
0.000667821
0.000540319
0.000671762
0.000555671
0.000677532
0.000582155
0.000689003
0.000625961
0.000702833
0.000668427
0.000708925
0.000709418
0.000723561
0.000749328
0.000744986
0.000788495
0.000771384
0.000827173
0.0008014
0.000865525
0.000834093
0.000903614
0.000868712
0.000941428
0.000904566
0.000978982
0.000941009
0.00101638
0.000977961
0.0010537
0.00101568
0.0010909
0.00105387
0.00112792
0.00109223
0.00116464
0.00113044
0.00120095
0.00116823
0.00123671
0.0012054
0.00127178
0.00124178
0.00130598
0.00127722
0.00133912
0.00131159
0.00137096
0.00134473
0.00140122
0.00137648
0.00142956
0.00140659
0.00145557
0.00143477
0.00147873
0.00146049
0.0014985
0.00148305
0.0015144
0.00150192
0.00152594
0.00151678
0.00153269
0.00152707
5.35842e-09
1.72354e-08
1.15228e-07
4.93259e-07
1.46109e-06
3.37581e-06
6.51894e-06
1.09511e-05
1.64517e-05
2.2618e-05
2.90459e-05
3.54771e-05
4.18437e-05
4.82047e-05
5.46691e-05
6.1349e-05
6.83533e-05
7.57927e-05
8.37705e-05
9.2382e-05
0.000101713
0.000111838
0.000122817
0.000134695
0.000147498
0.000161242
0.000175946
0.000191624
0.000208268
0.000225845
0.000244306
0.000263571
0.000283554
0.000304208
0.000325525
0.000347503
0.000370103
0.000393267
0.000416963
0.000441172
0.000465862
0.000491008
0.000516608
0.000542658
0.000569141
0.000596033
0.000623321
0.000650998
0.000679057
0.000707511
0.000736385
0.000765705
0.000795478
0.000825702
0.000856381
0.000887516
0.000919104
0.000951127
0.000983551
0.00101633
0.00104942
0.00108274
0.00111625
0.00114988
0.00118355
0.00121717
0.00125063
0.00128375
0.0013163
0.00134802
0.00137858
0.00140765
0.00143485
0.00145975
0.00148192
0.00150092
0.00151629
0.0015276
0.00153441
0.00153651
4.55598e-09
1.66571e-08
1.17406e-07
5.06869e-07
1.50721e-06
3.49534e-06
6.77229e-06
1.13975e-05
1.71083e-05
2.34235e-05
2.98582e-05
3.61019e-05
4.20635e-05
4.77932e-05
5.34036e-05
5.90231e-05
6.47842e-05
7.08261e-05
7.72842e-05
8.42887e-05
9.19605e-05
0.000100409
0.000109728
0.00012
0.000131296
0.000143689
0.000157256
0.000172081
0.000188211
0.00020557
0.000223991
0.000243298
0.000263333
0.000284061
0.000305498
0.000327568
0.000350153
0.000373213
0.000396843
0.000421221
0.000446362
0.000472012
0.000497998
0.000524321
0.000550982
0.000577983
0.000605317
0.000632984
0.00066099
0.000689383
0.000718217
0.000747478
0.000777119
0.000807137
0.000837579
0.000868487
0.000899879
0.000931752
0.000964088
0.000996842
0.00102994
0.00106331
0.00109686
0.00113055
0.00116435
0.0011982
0.00123205
0.00126576
0.00129911
0.00133175
0.00136325
0.0013932
0.00142117
0.00144669
0.00146929
0.00148847
0.00150374
0.00151465
0.00152083
0.00152207
5.19662e-09
1.65752e-08
1.11218e-07
4.78301e-07
1.42505e-06
3.32037e-06
6.48149e-06
1.10079e-05
1.66651e-05
2.29499e-05
2.93142e-05
3.53654e-05
4.09558e-05
4.61079e-05
5.09136e-05
5.55149e-05
6.00754e-05
6.47645e-05
6.97532e-05
7.52109e-05
8.12994e-05
8.81661e-05
9.59388e-05
0.000104736
0.000114678
0.000125897
0.000138553
0.000152818
0.000168827
0.00018654
0.000205688
0.000225921
0.000246936
0.000268636
0.000291118
0.000314378
0.000338281
0.000362795
0.000388048
0.000414172
0.000440998
0.000468132
0.000495363
0.000522672
0.000550046
0.000577472
0.000604946
0.000632483
0.000660147
0.000688076
0.000716344
0.000744857
0.000773496
0.000802268
0.000831277
0.000860618
0.000890353
0.000920519
0.000951142
0.000982222
0.00101371
0.00104552
0.00107758
0.00110984
0.00114227
0.00117487
0.00120764
0.00124051
0.0012733
0.00130567
0.00133714
0.00136727
0.00139562
0.00142174
0.0014451
0.00146518
0.00148143
0.00149334
0.00150052
0.00150275
5.35556e-09
1.66642e-08
1.10564e-07
4.74819e-07
1.41462e-06
3.29792e-06
6.44579e-06
1.09672e-05
1.66359e-05
2.29465e-05
2.93363e-05
3.53916e-05
4.09392e-05
4.59932e-05
5.06363e-05
5.49894e-05
5.91999e-05
6.34171e-05
6.77885e-05
7.24566e-05
7.75564e-05
8.32271e-05
8.96361e-05
9.69796e-05
0.000105473
0.000115329
0.000126739
0.000139865
0.000154866
0.00017181
0.00019054
0.000210781
0.000232239
0.000254612
0.000277844
0.000301985
0.000326906
0.000352463
0.000378692
0.000405723
0.000433495
0.000461696
0.00049004
0.000518394
0.000546671
0.000574815
0.000602808
0.000630673
0.000658491
0.000686402
0.000714489
0.000742735
0.000771134
0.000799673
0.000828335
0.000857153
0.000886199
0.000915548
0.000945253
0.000975342
0.0010058
0.00103657
0.00106757
0.00109873
0.00113005
0.00116151
0.00119313
0.00122485
0.00125656
0.00128798
0.00131871
0.00134835
0.00137649
0.00140268
0.00142638
0.00144705
0.00146412
0.00147704
0.00148532
0.00148881
5.5387e-09
1.67695e-08
1.09722e-07
4.70366e-07
1.40137e-06
3.26967e-06
6.40164e-06
1.09193e-05
1.66082e-05
2.29598e-05
2.93911e-05
3.54574e-05
4.09491e-05
4.58666e-05
5.02813e-05
5.42899e-05
5.80272e-05
6.16316e-05
6.5207e-05
6.88096e-05
7.24978e-05
7.6383e-05
8.06917e-05
8.58385e-05
9.23616e-05
0.000100644
0.000110819
0.000122943
0.00013713
0.00015347
0.000171892
0.000192241
0.000214273
0.000237531
0.000261715
0.000286817
0.000312673
0.000339017
0.000365851
0.000393517
0.000422278
0.000451778
0.000481488
0.00051116
0.000540636
0.000569806
0.000598635
0.000627156
0.000655462
0.000683666
0.000711853
0.000740103
0.000768533
0.000797139
0.000825794
0.000854463
0.000883223
0.000912167
0.000941362
0.000970854
0.00100066
0.00103073
0.00106099
0.00109138
0.00112187
0.00115247
0.00118318
0.00121399
0.0012448
0.00127541
0.00130549
0.00133469
0.0013626
0.00138878
0.00141272
0.00143386
0.0014516
0.00146538
0.00147467
0.00147922
5.61539e-09
1.6841e-08
1.09673e-07
4.69833e-07
1.39964e-06
3.2663e-06
6.39855e-06
1.09232e-05
1.66298e-05
2.30078e-05
2.9466e-05
3.55481e-05
4.10307e-05
4.59123e-05
5.02636e-05
5.41755e-05
5.77852e-05
6.11827e-05
6.43898e-05
6.74008e-05
7.02198e-05
7.29085e-05
7.71297e-05
8.25257e-05
8.7035e-05
9.37929e-05
0.000104154
0.000116329
0.000130478
0.000146719
0.000165036
0.000185343
0.000207495
0.000231054
0.000255576
0.000280993
0.000307178
0.000333862
0.000361034
0.000388993
0.000418047
0.000447945
0.000478124
0.000508272
0.00053821
0.00056779
0.000596955
0.000625728
0.000654228
0.000682577
0.00071084
0.000739084
0.000767408
0.000795882
0.000824434
0.000852979
0.000881562
0.000910275
0.000939185
0.000968345
0.000997784
0.00102747
0.00105733
0.00108729
0.00111731
0.00114741
0.00117761
0.00120791
0.00123826
0.00126848
0.00129824
0.00132719
0.00135497
0.00138114
0.00140522
0.00142663
0.0014448
0.00145912
0.00146904
0.00147425
5.65284e-09
1.6878e-08
1.09656e-07
4.69592e-07
1.39885e-06
3.26479e-06
6.39749e-06
1.09265e-05
1.66436e-05
2.30374e-05
2.95126e-05
3.56061e-05
4.10869e-05
4.5952e-05
5.02712e-05
5.41317e-05
5.76701e-05
6.09274e-05
6.38666e-05
6.64718e-05
6.87171e-05
7.05553e-05
7.51925e-05
8.05515e-05
8.33301e-05
8.95797e-05
0.000100333
0.000112688
0.000126867
0.000143058
0.000161303
0.000181562
0.000203748
0.000227455
0.000252162
0.000277751
0.000304115
0.000330983
0.000358328
0.000386419
0.000415595
0.00044569
0.000476121
0.00050653
0.000536732
0.000566554
0.000595925
0.000624862
0.000653493
0.000681949
0.000710284
0.000738556
0.00076686
0.000795308
0.000823859
0.000852386
0.000880916
0.000909544
0.000938342
0.000967366
0.000996652
0.00102618
0.00105587
0.00108565
0.00111548
0.00114536
0.00117532
0.0012054
0.00123555
0.00126558
0.00129519
0.00132402
0.00135173
0.00137788
0.001402
0.00142353
0.00144188
0.00145644
0.00146663
0.00147213
5.65119e-09
1.68777e-08
1.09671e-07
4.69669e-07
1.39909e-06
3.26536e-06
6.39852e-06
1.0928e-05
1.66455e-05
2.30397e-05
2.95154e-05
3.56101e-05
4.10933e-05
4.59623e-05
5.02872e-05
5.41555e-05
5.77042e-05
6.09767e-05
6.39346e-05
6.65507e-05
6.87736e-05
7.05769e-05
7.45962e-05
7.93299e-05
8.2773e-05
8.96355e-05
0.000100367
0.000112798
0.00012702
0.000143238
0.000161505
0.000181783
0.000203984
0.000227699
0.000252407
0.000277991
0.000304339
0.000331188
0.000358518
0.0003866
0.000415769
0.000445853
0.000476269
0.000506662
0.000536848
0.000566655
0.000596014
0.00062494
0.000653565
0.000682016
0.000710348
0.000738621
0.000766928
0.00079538
0.000823936
0.000852469
0.000881005
0.000909642
0.000938451
0.000967488
0.000996786
0.00102633
0.00105603
0.00108582
0.00111565
0.00114555
0.00117553
0.00120561
0.00123577
0.00126582
0.00129544
0.00132427
0.00135198
0.00137813
0.00140225
0.00142377
0.00144211
0.00145665
0.00146683
0.0014723
5.60917e-09
1.68386e-08
1.09715e-07
4.70052e-07
1.40032e-06
3.26784e-06
6.40118e-06
1.09267e-05
1.66332e-05
2.30102e-05
2.94672e-05
3.55489e-05
4.10336e-05
4.59202e-05
5.02797e-05
5.42035e-05
5.78286e-05
6.12466e-05
6.44923e-05
6.7559e-05
7.04216e-05
7.31647e-05
7.68748e-05
8.17586e-05
8.70025e-05
9.43712e-05
0.000104676
0.000116892
0.000131058
0.00014731
0.000165637
0.000185952
0.000208101
0.000231645
0.000256149
0.000281545
0.000307705
0.000334363
0.000361511
0.000389453
0.00041849
0.000448359
0.000478501
0.000508611
0.000538512
0.00056806
0.000597198
0.000625952
0.000654441
0.000682783
0.000711044
0.000739292
0.000767628
0.000796118
0.000824686
0.000853248
0.000881852
0.00091059
0.000939529
0.000968721
0.000998193
0.00102792
0.00105781
0.00108779
0.00111785
0.00114799
0.00117823
0.00120856
0.00123895
0.00126919
0.00129897
0.00132794
0.00135572
0.0013819
0.00140595
0.00142734
0.00144547
0.00145975
0.00146961
0.00147476
5.52776e-09
1.67651e-08
1.09794e-07
4.70735e-07
1.40249e-06
3.27217e-06
6.40582e-06
1.09246e-05
1.6613e-05
2.29622e-05
2.93902e-05
3.5454e-05
4.09465e-05
4.58686e-05
5.02923e-05
5.43152e-05
5.80723e-05
6.17021e-05
6.53243e-05
6.90066e-05
7.28083e-05
7.68477e-05
8.13401e-05
8.66775e-05
9.33359e-05
0.000101663
0.000111831
0.000123938
0.000138114
0.000154449
0.000172867
0.000193205
0.000215206
0.000238418
0.000262557
0.00028762
0.000313442
0.000339757
0.000366562
0.000394202
0.000422934
0.00045239
0.000482045
0.000511664
0.000541089
0.000570216
0.000599013
0.000627511
0.000655804
0.000684001
0.000712188
0.000740447
0.000768895
0.000797523
0.000826203
0.000854901
0.000883692
0.000912673
0.000941908
0.000971447
0.0010013
0.00103142
0.00106173
0.00109216
0.00112271
0.00115336
0.00118413
0.00121499
0.00124585
0.00127651
0.00130662
0.00133584
0.00136376
0.00138993
0.00141384
0.00143493
0.00145262
0.00146634
0.00147554
0.00148001
5.34196e-09
1.66636e-08
1.10696e-07
4.75469e-07
1.41658e-06
3.3023e-06
6.45345e-06
1.0978e-05
1.66484e-05
2.29593e-05
2.93492e-05
3.54065e-05
4.09605e-05
4.60263e-05
5.06878e-05
5.50669e-05
5.93119e-05
6.35733e-05
6.79995e-05
7.27346e-05
7.79179e-05
8.36929e-05
9.02208e-05
9.76856e-05
0.000106289
0.000116236
0.000127717
0.000140898
0.000155943
0.000172917
0.000191666
0.000211909
0.000233345
0.000255679
0.000278866
0.000302958
0.000327828
0.000353341
0.000379525
0.000406502
0.000434211
0.000462343
0.000490613
0.000518898
0.000547112
0.000575204
0.000603159
0.000630999
0.000658807
0.000686724
0.000714824
0.000743085
0.000771504
0.000800066
0.000828758
0.000857612
0.000886698
0.000916095
0.000945851
0.000975997
0.00100652
0.00103734
0.00106839
0.00109962
0.001131
0.00116253
0.00119421
0.001226
0.00125778
0.00128924
0.00132001
0.00134967
0.00137782
0.00140399
0.00142766
0.00144829
0.0014653
0.00147814
0.00148635
0.00148975
5.18315e-09
1.65789e-08
1.11388e-07
4.79117e-07
1.4275e-06
3.32588e-06
6.49133e-06
1.10223e-05
1.66831e-05
2.29706e-05
2.93379e-05
3.53944e-05
4.09947e-05
4.61628e-05
5.09914e-05
5.56233e-05
6.02226e-05
6.49588e-05
7.00032e-05
7.5525e-05
8.16858e-05
8.86318e-05
9.64888e-05
0.000105374
0.000115404
0.000126711
0.000139448
0.000153784
0.000169851
0.000187604
0.000206774
0.000227005
0.000247999
0.000269668
0.000292114
0.00031533
0.00033919
0.000363669
0.000388891
0.000414971
0.000441735
0.000468797
0.000495954
0.000523194
0.000550507
0.000577881
0.000605314
0.000632822
0.000660473
0.000688409
0.000716689
0.00074521
0.00077386
0.000802648
0.000831679
0.000861047
0.000890814
0.000921019
0.000951689
0.00098282
0.00101436
0.00104623
0.00107834
0.00111066
0.00114315
0.00117583
0.00120867
0.0012416
0.00127445
0.00130686
0.00133835
0.0013685
0.00139686
0.00142296
0.0014463
0.00146633
0.00148253
0.00149438
0.0015015
0.00150366
4.54641e-09
1.66669e-08
1.17583e-07
5.07682e-07
1.50962e-06
3.50069e-06
6.78183e-06
1.14117e-05
1.71265e-05
2.34452e-05
2.98834e-05
3.61319e-05
4.21007e-05
4.78412e-05
5.34663e-05
5.91048e-05
6.48894e-05
7.09595e-05
7.74506e-05
8.44927e-05
9.22066e-05
0.000100701
0.000110069
0.00012039
0.000131736
0.000144177
0.000157788
0.000172651
0.000188812
0.000206196
0.00022463
0.000243936
0.00026396
0.000284673
0.000306094
0.000328143
0.000350707
0.000373752
0.000397372
0.000421741
0.000446862
0.000472482
0.000498435
0.000524728
0.000551362
0.00057834
0.000605655
0.000633309
0.000661308
0.000689704
0.000718545
0.000747815
0.000777467
0.000807502
0.000837965
0.000868898
0.000900317
0.000932222
0.000964595
0.000997391
0.00103054
0.00106395
0.00109755
0.00113128
0.00116512
0.00119903
0.00123292
0.00126667
0.00130006
0.00133272
0.00136423
0.00139419
0.00142215
0.00144765
0.00147022
0.00148936
0.00150459
0.00151545
0.00152157
0.00152274
5.35052e-09
1.7247e-08
1.15415e-07
4.94113e-07
1.46359e-06
3.38129e-06
6.52866e-06
1.09655e-05
1.64706e-05
2.26409e-05
2.90727e-05
3.55085e-05
4.18807e-05
4.82491e-05
5.47228e-05
6.14135e-05
6.843e-05
7.58827e-05
8.3875e-05
9.25019e-05
0.000101849
0.000111991
0.000122988
0.000134884
0.000147706
0.000161467
0.000176187
0.00019188
0.000208537
0.000226125
0.000244592
0.000263861
0.000283845
0.000304498
0.000325811
0.000347783
0.000370375
0.000393529
0.000417216
0.000441416
0.0004661
0.000491243
0.000516843
0.000542898
0.000569391
0.000596297
0.0006236
0.000651293
0.000679372
0.000707846
0.000736742
0.000766086
0.000795884
0.000826134
0.000856841
0.000888007
0.000919626
0.000951681
0.000984138
0.00101695
0.00105007
0.00108343
0.00111697
0.00115062
0.00118432
0.00121797
0.00125145
0.00128458
0.00131714
0.00134886
0.00137941
0.00140847
0.00143564
0.00146051
0.00148264
0.00150159
0.00151691
0.00152816
0.00153491
0.00153694
9.12097e-09
2.01008e-08
1.03272e-07
4.29446e-07
1.28677e-06
3.03593e-06
6.03395e-06
1.04964e-05
1.63509e-05
2.31988e-05
3.04592e-05
3.76079e-05
4.43424e-05
5.05698e-05
5.66767e-05
6.34521e-05
7.03311e-05
7.6934e-05
8.39086e-05
9.14014e-05
9.95272e-05
0.00010829
0.000117608
0.000127427
0.000137772
0.000148716
0.000160351
0.000172769
0.00018605
0.000200266
0.00021548
0.000231729
0.000248995
0.000266996
0.000285195
0.000303337
0.000321462
0.000339604
0.000357788
0.000376055
0.00039443
0.000412934
0.000431619
0.000450536
0.000469859
0.000479968
0.000493045
0.000517656
0.000540526
0.000555892
0.000582389
0.000626208
0.000668689
0.000709692
0.000749615
0.000788796
0.000827487
0.000865851
0.000903953
0.000941781
0.000979347
0.00101676
0.00105409
0.0010913
0.00112833
0.00116505
0.00120136
0.00123713
0.00127219
0.00130639
0.00133952
0.00137135
0.00140159
0.00142991
0.0014559
0.00147903
0.00149877
0.00151463
0.00152615
0.00153286
0.00153435
0.00153224
0.00153085
0.00153249
0.00152246
0.00152756
0.00150963
0.0015185
0.00149282
0.00150517
0.00147254
0.00148826
0.0014493
0.0014681
0.00142361
0.00144507
0.00139597
0.00141953
0.00136689
0.00139189
0.00133679
0.00136266
0.00130599
0.00133225
0.00127475
0.001301
0.00124331
0.00126919
0.00121184
0.00123697
0.00118047
0.0012045
0.00114932
0.00117196
0.0011185
0.00113958
0.00108801
0.0011076
0.00105781
0.00107595
0.00102785
0.00104458
0.000998197
0.00101356
0.000968907
0.000982955
0.000940067
0.000952834
0.00091176
0.000923258
0.000884046
0.000894295
0.000856937
0.000865959
0.000830398
0.000838258
0.000804361
0.000811178
0.000778751
0.00078466
0.000753511
0.000758621
0.000728617
0.000732989
0.000704065
0.000707772
0.00067986
0.000682974
0.000656007
0.000658599
0.000632514
0.000634659
0.000609392
0.000611164
0.000586648
0.00058812
0.000564287
0.000565503
0.000542311
0.000543308
0.000520717
0.00052154
0.000499497
0.000500192
0.000478641
0.000479254
0.000458135
0.000458708
0.000437954
0.000438538
0.000418073
0.000418703
0.00039846
0.00039918
0.00037908
0.000379937
0.000359898
0.000360932
0.00034088
0.000342135
0.000321988
0.000323508
0.000303188
0.000305006
0.000284447
0.000286594
0.000265748
0.000268223
0.000247102
0.000249847
0.000228551
0.000231396
0.000210133
0.000212976
0.000191855
0.000194654
0.000173719
0.000176427
0.000155763
0.000158272
0.00013806
0.000140259
0.000120707
0.000122513
0.000103774
0.000105192
8.73652e-05
8.83437e-05
7.17175e-05
7.21912e-05
5.71167e-05
5.71451e-05
4.38517e-05
4.35243e-05
3.2212e-05
3.16291e-05
2.24468e-05
2.17023e-05
1.46992e-05
1.38816e-05
8.95148e-06
8.14556e-06
5.00855e-06
4.294e-06
2.5346e-06
1.9685e-06
1.13275e-06
7.33789e-07
4.29879e-07
1.81139e-07
1.30367e-07
-4.29097e-09
3.11041e-08
-2.87403e-08
8.07372e-09
-7.35883e-09
4.3004e-09
5.52337e-10
0.0015336
0.0015257
0.00151329
0.00149683
0.00147683
0.00145378
0.00142824
0.00140084
0.00137221
0.00134287
0.00131317
0.00128328
0.00125334
0.00122346
0.00119368
0.00116406
0.00113463
0.00110539
0.00107633
0.00104739
0.00101858
0.000989967
0.000961635
0.0009337
0.000906285
0.00087946
0.000853217
0.000827489
0.000802196
0.000777267
0.000752646
0.000728286
0.000704173
0.00068032
0.000656741
0.00063345
0.000610462
0.000587801
0.000565485
0.000543524
0.000521918
0.000500663
0.000479755
0.000459182
0.000438925
0.000418961
0.00039926
0.000379789
0.000360514
0.000341398
0.000322405
0.000303498
0.000284645
0.000265844
0.00024714
0.000228584
0.00021018
0.000191903
0.000173753
0.000155779
0.00013806
0.000120697
0.000103751
8.73307e-05
7.16735e-05
5.70644e-05
4.3797e-05
3.21635e-05
2.24106e-05
1.46759e-05
8.93851e-06
5.00228e-06
2.53196e-06
1.13179e-06
4.29585e-07
1.30306e-07
3.1113e-08
8.0902e-09
4.31102e-09
0.00151806
0.00150893
0.00149528
0.00147759
0.00145645
0.00143249
0.0014064
0.00137894
0.00135081
0.00132244
0.00129408
0.00126579
0.00123759
0.00120948
0.00118142
0.00115338
0.00112536
0.00109734
0.00106932
0.0010413
0.00101331
0.000985432
0.000957763
0.000930453
0.000903646
0.000877414
0.000851733
0.000826538
0.000801759
0.000777329
0.000753162
0.000729182
0.000705374
0.000681757
0.000658352
0.000635182
0.000612275
0.000589663
0.000567371
0.000545413
0.000523793
0.000502509
0.00048156
0.000460936
0.000440621
0.000420591
0.000400819
0.000381273
0.00036192
0.000342723
0.000323646
0.000304654
0.000285716
0.000266832
0.000248051
0.000229419
0.000210939
0.000192586
0.000174362
0.000156319
0.000138535
0.000121113
0.000104119
8.76547e-05
7.19474e-05
5.7286e-05
4.397e-05
3.22953e-05
2.25082e-05
1.47445e-05
8.98316e-06
5.02868e-06
2.54584e-06
1.13814e-06
4.32018e-07
1.31037e-07
3.12673e-08
8.11463e-09
4.32149e-09
0.00149968
0.00149137
0.00147842
0.00146136
0.00144084
0.00141756
0.00139233
0.00136597
0.00133912
0.00131209
0.00128501
0.00125789
0.00123074
0.00120355
0.00117628
0.00114893
0.00112148
0.00109395
0.00106634
0.00103868
0.00101101
0.000983414
0.000956016
0.000928975
0.000902425
0.000876431
0.000850974
0.000825993
0.000801423
0.000777198
0.000753225
0.000729428
0.000705779
0.000682285
0.000658965
0.000635851
0.000612983
0.000590396
0.000568117
0.000546163
0.000524538
0.000503241
0.000482271
0.00046162
0.000441272
0.000421205
0.000401392
0.000381803
0.000362403
0.000343158
0.00032403
0.000304987
0.000285998
0.000267073
0.000248268
0.00022962
0.00021112
0.000192745
0.000174501
0.00015644
0.000138643
0.00012121
0.000104204
8.77267e-05
7.20096e-05
5.73399e-05
4.40166e-05
3.23352e-05
2.25409e-05
1.47696e-05
9.00075e-06
5.0397e-06
2.55192e-06
1.14103e-06
4.33164e-07
1.31393e-07
3.13465e-08
8.129e-09
4.32799e-09
0.00148709
0.0014801
0.00146844
0.00145261
0.00143317
0.00141081
0.00138632
0.00136061
0.00133433
0.00130785
0.00128128
0.00125464
0.00122794
0.00120116
0.00117426
0.00114724
0.00112009
0.00109281
0.00106542
0.00103795
0.00101046
0.000983028
0.000955781
0.000928884
0.000902471
0.000876601
0.00085125
0.000826358
0.000801866
0.00077771
0.000753804
0.000730065
0.000706461
0.000682998
0.000659697
0.000636593
0.000613728
0.000591138
0.000568851
0.000546883
0.000525241
0.000503924
0.000482931
0.000462255
0.000441881
0.000421787
0.000401945
0.000382327
0.000362898
0.000343623
0.000324466
0.000305393
0.000286374
0.000267424
0.000248602
0.000229939
0.000211425
0.000193035
0.000174776
0.000156699
0.000138885
0.000121434
0.000104408
8.79091e-05
7.2171e-05
5.74797e-05
4.41341e-05
3.24297e-05
2.26129e-05
1.48207e-05
9.03405e-06
5.0593e-06
2.56215e-06
1.14567e-06
4.34927e-07
1.31915e-07
3.14523e-08
8.14291e-09
4.33333e-09
0.00147867
0.00147295
0.00146252
0.00144784
0.00142943
0.0014079
0.00138402
0.00135871
0.00133271
0.00130642
0.00128002
0.00125355
0.00122701
0.00120037
0.00117361
0.00114672
0.00111968
0.00109251
0.00106521
0.00103782
0.00101041
0.00098305
0.000955868
0.000929021
0.000902648
0.00087681
0.000851481
0.000826602
0.000802114
0.00077795
0.000754014
0.000730226
0.000706571
0.000683068
0.000659735
0.000636606
0.000613721
0.000591114
0.000568814
0.000546836
0.000525187
0.000503866
0.000482871
0.000462194
0.000441822
0.000421731
0.000401894
0.000382281
0.000362859
0.000343593
0.000324448
0.000305389
0.000286385
0.000267444
0.000248619
0.000229949
0.000211433
0.000193046
0.00017479
0.000156716
0.000138904
0.000121455
0.000104433
8.7939e-05
7.22037e-05
5.75131e-05
4.41658e-05
3.24574e-05
2.26351e-05
1.48369e-05
9.04472e-06
5.06561e-06
2.56549e-06
1.14722e-06
4.35532e-07
1.321e-07
3.14892e-08
8.14669e-09
4.33457e-09
0.00147443
0.0014695
0.00145984
0.00144589
0.00142814
0.00140718
0.00138373
0.00135867
0.00133279
0.00130656
0.0012802
0.00125376
0.00122725
0.00120064
0.00117392
0.00114706
0.00112006
0.00109291
0.00106563
0.00103824
0.00101081
0.000983438
0.000956234
0.000929353
0.000902942
0.000877071
0.000851717
0.000826816
0.000802305
0.000778119
0.000754158
0.000730344
0.000706666
0.000683145
0.000659799
0.000636659
0.000613763
0.000591148
0.000568839
0.000546855
0.0005252
0.000503875
0.000482877
0.000462199
0.000441824
0.000421732
0.000401896
0.000382284
0.000362864
0.000343601
0.000324459
0.000305405
0.000286407
0.000267469
0.000248643
0.000229972
0.000211457
0.000193072
0.00017482
0.00015675
0.000138941
0.000121495
0.000104473
8.79778e-05
7.22421e-05
5.75505e-05
4.42002e-05
3.2487e-05
2.26585e-05
1.48539e-05
9.05595e-06
5.07223e-06
2.56895e-06
1.14878e-06
4.36128e-07
1.32276e-07
3.15244e-08
8.1511e-09
4.33623e-09
0.00147264
0.00146807
0.00145875
0.00144512
0.00142766
0.00140694
0.00138366
0.0013587
0.00133285
0.00130662
0.00128025
0.00125381
0.00122729
0.0012007
0.00117399
0.00114715
0.00112017
0.00109305
0.00106578
0.0010384
0.00101097
0.000983591
0.000956377
0.000929482
0.000903059
0.000877182
0.000851825
0.000826918
0.0008024
0.000778203
0.00075423
0.000730403
0.000706715
0.000683187
0.000659837
0.000636694
0.000613795
0.000591177
0.000568867
0.000546882
0.000525225
0.000503899
0.0004829
0.000462221
0.000441846
0.000421753
0.000401916
0.000382303
0.000362883
0.000343618
0.000324476
0.000305421
0.000286422
0.000267484
0.000248658
0.000229988
0.000211474
0.000193092
0.000174841
0.000156772
0.000138964
0.000121518
0.000104494
8.79973e-05
7.22611e-05
5.75693e-05
4.4218e-05
3.25023e-05
2.26708e-05
1.48628e-05
9.06183e-06
5.07572e-06
2.57077e-06
1.14961e-06
4.36443e-07
1.32369e-07
3.15423e-08
8.1528e-09
4.33671e-09
0.00147279
0.0014682
0.00145886
0.00144521
0.00142774
0.00140701
0.00138372
0.00135875
0.00133289
0.00130667
0.0012803
0.00125385
0.00122734
0.00120074
0.00117403
0.00114719
0.00112021
0.00109308
0.00106581
0.00103843
0.001011
0.000983618
0.000956401
0.000929506
0.000903081
0.000877203
0.000851845
0.000826939
0.000802419
0.000778222
0.000754248
0.00073042
0.000706732
0.000683203
0.000659852
0.000636708
0.000613809
0.00059119
0.00056888
0.000546893
0.000525236
0.00050391
0.00048291
0.00046223
0.000441855
0.000421762
0.000401924
0.000382311
0.00036289
0.000343625
0.000324482
0.000305427
0.000286428
0.000267489
0.000248663
0.000229993
0.000211479
0.000193096
0.000174845
0.000156775
0.000138967
0.000121521
0.000104497
8.8e-05
7.22637e-05
5.75717e-05
4.42202e-05
3.25042e-05
2.26723e-05
1.4864e-05
9.06257e-06
5.07617e-06
2.57101e-06
1.14973e-06
4.36486e-07
1.32382e-07
3.15449e-08
8.15315e-09
4.33685e-09
0.00147488
0.00146989
0.00146018
0.00144617
0.00142838
0.00140738
0.0013839
0.00135883
0.00133294
0.00130671
0.00128035
0.00125391
0.00122739
0.00120078
0.00117405
0.00114719
0.00112018
0.00109303
0.00106573
0.00103834
0.0010109
0.000983524
0.000956314
0.000929429
0.000903015
0.000877141
0.000851783
0.000826879
0.000802366
0.000778177
0.000754214
0.000730397
0.000706718
0.000683193
0.000659845
0.000636703
0.000613804
0.000591186
0.000568876
0.00054689
0.000525233
0.000503906
0.000482907
0.000462227
0.00044185
0.000421757
0.000401919
0.000382306
0.000362884
0.00034362
0.000324478
0.000305423
0.000286424
0.000267485
0.000248657
0.000229985
0.000211469
0.000193084
0.000174831
0.00015676
0.000138951
0.000121504
0.000104482
8.79865e-05
7.22505e-05
5.75583e-05
4.42074e-05
3.24931e-05
2.26635e-05
1.48576e-05
9.05839e-06
5.0737e-06
2.56973e-06
1.14914e-06
4.36265e-07
1.32317e-07
3.15327e-08
8.15216e-09
4.33664e-09
0.00147937
0.00147356
0.00146306
0.00144831
0.00142983
0.00140825
0.00138434
0.00135901
0.001333
0.00130671
0.0012803
0.00125383
0.00122727
0.00120062
0.00117386
0.00114695
0.0011199
0.00109271
0.0010654
0.001038
0.00101058
0.000983212
0.000956021
0.000929166
0.000902785
0.00087694
0.000851603
0.000826718
0.000802224
0.000778053
0.000754112
0.000730318
0.000706659
0.00068315
0.000659812
0.000636678
0.000613788
0.000591177
0.000568872
0.000546891
0.000525238
0.000503914
0.000482916
0.000462237
0.00044186
0.000421766
0.000401928
0.000382313
0.000362889
0.000343622
0.000324474
0.000305414
0.000286408
0.000267466
0.000248639
0.000229969
0.000211451
0.000193063
0.000174806
0.000156731
0.000138919
0.00012147
0.000104448
8.79534e-05
7.22178e-05
5.75266e-05
4.41781e-05
3.2468e-05
2.26436e-05
1.48432e-05
9.04895e-06
5.06813e-06
2.56682e-06
1.14782e-06
4.35764e-07
1.32169e-07
3.15032e-08
8.14841e-09
4.33521e-09
0.00148794
0.00148087
0.00146912
0.00145321
0.00143371
0.00141129
0.00138677
0.00136104
0.00133475
0.00130826
0.00128168
0.00125503
0.00122832
0.00120152
0.00117461
0.00114757
0.0011204
0.00109311
0.0010657
0.00103822
0.00101071
0.000983267
0.000956007
0.000929097
0.000902673
0.000876791
0.000851428
0.000826526
0.000802023
0.000777857
0.000753941
0.000730193
0.00070658
0.000683108
0.000659799
0.000636687
0.000613815
0.000591218
0.000568925
0.000546952
0.000525304
0.000503983
0.000482985
0.000462305
0.000441928
0.00042183
0.000401986
0.000382364
0.000362932
0.000343654
0.000324495
0.000305421
0.000286399
0.000267448
0.000248624
0.00022996
0.000211445
0.000193054
0.000174795
0.000156717
0.000138903
0.000121452
0.000104426
8.79275e-05
7.21892e-05
5.74971e-05
4.415e-05
3.24436e-05
2.26241e-05
1.4829e-05
9.03961e-06
5.0626e-06
2.56389e-06
1.14646e-06
4.35229e-07
1.32005e-07
3.14702e-08
8.14507e-09
4.33412e-09
0.00150051
0.00149211
0.00147909
0.00146197
0.00144139
0.00141807
0.00139281
0.00136643
0.00133957
0.00131254
0.00128544
0.00125832
0.00123116
0.00120394
0.00117666
0.0011493
0.00112183
0.00109428
0.00106665
0.00103897
0.00101129
0.000983677
0.000956265
0.000929211
0.000902649
0.000876642
0.000851172
0.000826179
0.000801597
0.00077736
0.000753377
0.000729569
0.000705911
0.000682406
0.000659077
0.000635954
0.000613078
0.000590484
0.000568199
0.000546238
0.000524607
0.000503305
0.000482329
0.000461673
0.000441321
0.000421251
0.000401434
0.000381841
0.000362438
0.000343189
0.00032406
0.000305015
0.000286023
0.000267096
0.00024829
0.000229641
0.00021114
0.000192764
0.00017452
0.000156459
0.000138662
0.000121229
0.000104223
8.77461e-05
7.20288e-05
5.73582e-05
4.40334e-05
3.23498e-05
2.25528e-05
1.47784e-05
9.00666e-06
5.04322e-06
2.55377e-06
1.14187e-06
4.33484e-07
1.31487e-07
3.13654e-08
8.13132e-09
4.32886e-09
0.00151866
0.00150946
0.00149575
0.00147801
0.00145683
0.00143284
0.00140674
0.00137927
0.00135113
0.00132278
0.00129441
0.00126612
0.00123792
0.0012098
0.00118173
0.00115368
0.00112564
0.00109761
0.00106957
0.00104154
0.00101354
0.000985641
0.000957959
0.000930638
0.000903821
0.000877579
0.000851889
0.000826684
0.000801896
0.000777458
0.000753283
0.000729298
0.000705486
0.000681863
0.000658452
0.000635276
0.000612364
0.000589746
0.000567448
0.000545485
0.00052386
0.000502572
0.000481619
0.00046099
0.00044067
0.000420637
0.000400862
0.000381313
0.000361956
0.000342755
0.000323675
0.000304681
0.000285739
0.000266854
0.000248071
0.000229439
0.000210958
0.000192604
0.00017438
0.000156336
0.000138553
0.00012113
0.000104137
8.76723e-05
7.19647e-05
5.73024e-05
4.39849e-05
3.23082e-05
2.25186e-05
1.47522e-05
8.98836e-06
5.03178e-06
2.54747e-06
1.13888e-06
4.323e-07
1.3112e-07
3.12841e-08
8.11678e-09
4.32232e-09
0.00153396
0.001526
0.00151353
0.00149703
0.00147699
0.00145391
0.00142836
0.00140094
0.00137231
0.00134298
0.00131328
0.0012834
0.00125346
0.00122357
0.00119379
0.00116417
0.00113473
0.00110549
0.00107643
0.00104748
0.00101867
0.000990049
0.000961711
0.000933771
0.000906353
0.000879529
0.000853286
0.000827558
0.000802265
0.000777337
0.000752717
0.00072836