/*--------------------------------*- C++ -*----------------------------------*\
| =========                 |                                                 |
| \\      /  F ield         | OpenFOAM: The Open Source CFD Toolbox           |
|  \\    /   O peration     | Version:  v1912                                 |
|   \\  /    A nd           | Website:  www.openfoam.com                      |
|    \\/     M anipulation  |                                                 |
\*---------------------------------------------------------------------------*/
FoamFile
{
    version     2.0;
    format      ascii;
    class       volScalarField;
    location    "197.2";
    object      omega;
}
// * * * * * * * * * * * * * * * * * * * * * * * * * * * * * * * * * * * * * //

dimensions      [0 0 -1 0 0 0 0];


internalField   nonuniform List<scalar> 
10077
(
156509
156508
156508
156509
156509
156509
156509
156509
156509
156509
156509
156509
156509
156509
156508
156508
28179.8
27036.2
27024.1
26997.1
26999.8
27000.1
27000.9
27001.8
27001.9
27001.6
27000.6
26999.9
26999.5
26996.9
27024
27036.6
9623.54
9229.85
9189.77
9174.06
9175.93
9176.67
9177.28
9178.14
9178.2
9178
9177.07
9176.44
9175.7
9173.87
9189.68
9229.96
4575.21
4417.64
4368.93
4356.23
4357.21
4357.09
4357.35
4357.89
4357.9
4357.79
4357.2
4356.94
4357.09
4356.13
4368.91
4417.75
2622.91
2560.84
2517.64
2500.06
2500.48
2498.21
2497.94
2497.89
2497.89
2497.84
2497.9
2498.19
2500.51
2500.09
2517.73
2561.04
1695.69
1684.02
1653.44
1626.83
1627.01
1621.76
1620.82
1619.96
1619.98
1619.96
1620.89
1621.89
1627.23
1627.02
1653.64
1684.33
1197.65
1218.38
1202.03
1166.22
1166.41
1157.95
1156.32
1154.58
1154.64
1154.64
1156.52
1158.25
1166.81
1166.57
1202.3
1218.81
911.705
953.51
948.893
906.94
907.305
896.071
893.818
891.265
891.364
891.377
894.138
896.506
907.854
907.426
949.214
954.006
742.237
795.69
798.446
754.953
755.527
742.358
739.633
736.426
736.56
736.58
740.047
742.896
756.175
755.531
798.773
796.207
640.054
697.225
703.277
662.77
663.475
649.311
646.263
642.587
642.748
642.772
646.747
649.914
664.163
663.397
703.584
697.72
577.628
632.029
638.827
604.589
605.34
590.932
587.682
583.702
583.878
583.909
588.215
591.567
606.028
605.232
639.103
632.465
538.926
585.943
591.243
565.997
566.64
552.74
549.406
545.311
545.486
545.53
549.966
553.377
567.293
566.625
591.478
586.297
514.627
550.309
552.651
538.299
538.687
526.016
522.712
518.705
518.857
518.925
523.279
526.624
539.287
538.883
552.842
550.566
499.284
520.129
518.69
517.085
517.029
505.676
502.355
498.437
498.565
498.654
502.923
506.253
517.551
517.604
518.839
520.284
489.432
492.578
487.064
498.893
498.254
488.719
485.435
481.746
481.832
481.954
485.994
489.247
498.684
499.332
487.173
492.632
482.532
466.118
456.651
481.592
480.297
472.901
469.679
466.322
466.354
466.516
470.22
473.368
480.625
481.942
456.726
466.079
476.424
440.064
426.998
463.906
461.946
456.855
453.702
450.764
450.731
450.941
454.22
457.256
462.17
464.164
427.043
439.943
469.419
414.191
398.015
445.134
442.557
439.818
436.738
434.33
434.22
434.488
437.225
440.148
442.68
445.301
398.036
414.001
460.378
388.527
369.8
425.027
421.912
421.493
418.531
416.743
416.548
416.883
418.966
421.753
421.939
425.105
369.801
388.284
448.761
363.233
342.536
403.727
400.147
402.013
399.26
398.135
397.853
398.262
399.631
402.202
400.085
403.72
342.521
362.951
434.673
338.529
316.431
381.702
377.695
381.869
379.419
378.914
378.551
379.036
379.722
381.981
377.547
381.612
316.404
338.221
418.777
314.655
291.679
359.513
355.167
361.539
359.475
359.479
359.057
359.605
359.713
361.573
354.941
359.345
291.641
314.333
402.117
291.847
268.435
337.532
333
341.309
339.706
340.119
339.668
340.234
339.879
341.267
332.707
337.295
268.39
291.518
385.421
270.321
246.81
315.964
311.377
321.401
320.294
321.079
320.612
321.172
320.399
321.289
311.026
315.667
246.761
269.991
368.613
250.242
226.866
294.954
290.423
301.988
301.382
302.572
302.086
302.631
301.417
301.808
290.023
294.605
226.815
249.916
351.634
231.601
208.618
274.584
270.226
283.147
283.027
284.649
284.143
284.674
282.995
282.904
269.787
274.192
208.565
231.283
334.442
214.287
192.038
254.859
250.821
264.864
265.198
267.27
266.743
267.266
265.103
264.563
250.356
254.436
191.986
213.98
317.013
198.227
177.067
235.716
232.194
247.041
247.782
250.313
249.76
250.282
247.631
246.69
231.72
235.278
177.016
197.936
299.337
183.383
163.617
217.412
214.296
229.521
230.607
233.589
233.006
233.534
230.413
229.132
213.836
216.966
163.567
183.109
281.422
169.71
151.56
200.585
197.42
212.613
213.928
217.209
216.606
217.136
213.7
212.199
196.972
200.13
151.513
169.456
263.256
157.17
140.75
185.321
182.015
196.876
198.3
201.697
201.088
201.611
198.05
196.449
181.569
184.87
140.705
156.938
244.782
145.722
131.055
171.319
168.038
182.248
183.702
187.143
186.533
187.047
183.444
181.824
167.608
170.887
131.014
145.51
226.808
135.313
122.326
158.395
155.286
168.53
169.936
173.323
172.722
173.223
169.686
168.126
154.88
157.995
122.289
135.122
210.353
125.877
114.454
146.432
143.608
155.644
156.936
160.172
159.59
160.071
156.706
155.27
143.235
146.072
114.42
125.705
195.241
117.339
107.344
135.359
132.889
143.564
144.695
147.694
147.143
147.596
144.494
143.231
132.55
135.045
107.313
117.186
181.47
109.626
100.917
125.126
123.03
132.293
133.23
135.925
135.416
135.834
133.066
132.007
122.724
124.861
100.89
109.49
169.019
102.667
95.1005
115.673
113.929
121.823
122.547
124.894
124.433
124.813
122.424
121.587
113.652
115.455
95.0764
102.546
157.87
96.3859
89.8086
107.028
105.468
112.156
112.706
114.718
114.311
114.647
112.613
111.963
105.212
106.847
89.7866
96.2779
147.824
90.6959
84.9517
99.1078
97.5253
103.315
103.717
105.455
105.089
105.393
103.643
103.155
97.3007
98.9527
84.931
90.5989
138.618
85.5132
80.4671
91.7136
90.2822
95.0877
95.3405
96.9127
96.556
96.8546
95.2812
94.9533
90.1043
91.5817
80.4472
85.4254
130.082
80.7769
76.3113
85
83.9299
87.5853
87.7177
89.0502
88.7283
89
87.6759
87.4821
83.7952
84.899
76.2919
80.6969
122.143
76.4346
72.4481
79.1146
78.3625
81.109
81.1667
82.1795
81.9268
82.1416
81.1428
81.0386
78.2626
79.0409
72.4287
76.3617
114.739
72.4301
68.8463
73.9353
73.4461
75.5619
75.5774
76.3542
76.1552
76.3254
75.5645
75.5141
73.3739
73.8827
68.8267
72.3641
107.819
68.7184
65.4798
69.3545
69.079
70.7264
70.7291
71.3579
71.1945
71.3351
70.7218
70.6918
69.0277
69.3166
65.4598
68.6589
101.34
65.2691
62.327
65.285
65.1846
66.4889
66.4948
67.0016
66.8708
66.9835
66.4906
66.4631
65.1485
65.2561
62.3065
65.2161
95.2668
62.0548
59.37
61.6498
61.6961
62.7594
62.7824
63.1952
63.0932
63.1804
62.7789
62.7384
61.6705
61.6273
59.3487
62.0085
89.5724
59.0671
56.5938
58.3861
58.5559
59.4514
59.5026
59.8503
59.7728
59.8376
59.4979
59.4316
58.5368
58.3677
56.5715
59.0238
84.2336
56.2925
53.9862
55.4401
55.715
56.4839
56.5652
56.8713
56.813
56.8593
56.5578
56.4638
55.699
55.424
53.9629
56.2503
79.2278
53.7103
51.5369
52.7676
53.1158
53.7889
53.8949
54.1665
54.124
54.1549
53.8846
53.7676
53.1002
52.7523
51.5124
53.6685
74.5346
51.2995
49.2306
50.3202
50.7101
51.3116
51.4426
51.6872
51.6587
51.6756
51.4294
51.2887
50.6936
50.3043
49.2051
51.2577
70.1379
49.0406
47.0465
48.0534
48.4747
49.0215
49.1775
49.4015
49.3854
49.3898
49.1615
48.9965
48.4562
48.0359
47.0202
48.9989
66.0232
46.9168
44.9715
45.9425
46.391
46.8924
47.0738
47.282
47.2771
47.27
47.0549
46.8651
46.37
45.923
44.9445
46.8752
62.1776
44.9135
43
43.9722
44.4444
44.9031
45.1101
45.3056
45.3111
45.293
45.0884
44.8733
44.4204
43.9503
42.9722
44.8722
58.588
43.0185
41.1261
42.1214
42.6138
43.037
43.2698
43.4534
43.4692
43.4403
43.2452
43.0047
42.5865
42.0974
41.0977
42.9776
55.2412
41.2218
39.3444
40.3623
40.8728
41.281
41.54
41.7112
41.7374
41.6974
41.5126
41.2459
40.8425
40.3365
39.3154
41.1815
52.1137
39.5157
37.6498
38.6805
39.207
39.6224
39.8987
40.0676
40.1003
40.0532
39.8693
39.5851
39.174
38.6529
37.6204
39.4761
49.1855
37.8945
36.0385
37.0682
37.6082
38.0396
38.3284
38.5008
38.5367
38.4856
38.2976
38.0006
37.5728
37.0392
36.0088
37.8558
46.4509
36.3537
34.5073
35.5216
36.0716
36.5213
36.8199
36.9978
37.0355
36.982
36.7879
36.4808
36.0342
35.4913
34.4774
36.316
43.907
34.889
33.0535
34.0386
34.5948
35.0615
35.3679
35.5518
35.5905
35.5354
35.3351
35.0199
34.5557
34.0074
33.0237
34.8524
41.5516
33.4965
31.6748
32.6192
33.1769
33.6574
33.9699
34.159
34.1985
34.1422
33.9363
33.615
33.1366
32.5874
31.6451
33.461
39.382
32.1728
30.3689
31.264
31.8185
32.3087
32.6251
32.8183
32.8582
32.8012
32.5912
32.2657
31.7775
31.2319
30.3396
32.1385
37.3797
30.9147
29.1338
29.9737
30.5209
31.0164
31.3346
31.5305
31.5704
31.5132
31.3006
30.9734
30.4796
29.9414
29.1049
30.8816
35.5272
29.72
27.9675
28.748
29.2848
29.7816
30.0997
30.2975
30.3367
30.2802
30.0658
29.7388
29.2434
28.7159
27.9392
29.6882
33.8183
28.5869
26.8685
27.5862
28.1098
28.6045
28.9207
29.1212
29.1585
29.104
28.8872
28.5621
28.0688
27.5545
26.8409
28.5564
32.2432
27.514
25.8352
26.4872
26.9953
27.4849
27.7977
28.0006
28.0366
27.9837
27.7647
27.4432
26.9549
26.456
25.8084
27.4848
30.7921
26.5006
24.8666
25.4499
25.9404
26.4226
26.7306
26.9352
26.97
26.9185
26.6983
26.3818
25.9007
25.4193
24.8408
26.4729
29.4559
25.5465
23.9621
24.4743
24.9449
25.4189
25.7211
25.9248
25.9587
25.9086
25.6898
25.3794
24.9062
24.4446
23.9374
25.5202
28.2257
24.6516
23.1218
23.5619
24.0102
24.4759
24.7702
24.9704
25.0034
24.9547
24.74
24.4379
23.9729
23.5334
23.0984
24.6269
27.0936
23.8166
22.346
22.7159
23.1397
23.5955
23.8796
24.074
24.106
24.0588
23.8507
23.5592
23.1041
22.6887
22.3241
23.7935
26.0524
23.0424
21.6357
21.941
22.339
22.7804
23.052
23.2384
23.2692
23.224
23.0245
22.7461
22.3055
21.9155
21.6154
23.0209
25.0961
22.3303
20.9916
21.2426
21.6135
22.0339
22.2907
22.4673
22.4968
22.4537
22.2649
22.0017
21.5824
21.2189
20.9733
22.3104
24.2198
21.6818
20.4163
20.6225
20.9656
21.3597
21.5996
21.7646
21.7927
21.752
21.5756
21.3298
20.9368
20.6008
20.3995
21.6636
23.4203
21.0989
19.9144
20.0829
20.3978
20.7617
20.9828
21.1348
21.1611
21.1232
20.9608
20.7343
20.3715
20.0632
19.8995
21.0824
22.6967
20.5842
19.4874
19.626
19.9132
20.2442
20.4449
20.5826
20.6069
20.572
20.425
20.2194
19.8896
19.6084
19.4743
20.5694
22.0523
20.1404
19.1373
19.2544
19.5152
19.8116
19.9905
20.1128
20.1349
20.1034
19.9729
19.7895
19.4941
19.239
19.126
20.1273
21.4932
19.7712
18.8665
18.9712
19.2072
19.4683
19.6247
19.7306
19.7504
19.7225
19.6092
19.449
19.1888
18.9579
18.8572
19.7599
21.0227
19.4819
18.6783
18.7795
18.993
19.2191
19.3523
19.4415
19.4588
19.4346
19.3392
19.2026
18.9771
18.7683
18.6708
19.4723
20.6419
19.2773
18.5762
18.6827
18.8763
19.0687
19.1786
19.2506
19.2654
19.245
19.1677
19.0549
18.8628
18.6734
18.5705
19.2695
156509
156509
156509
156509
156509
156509
156509
156509
156509
156509
156509
156509
156509
156509
156509
156509
27015
27181.7
27012.4
27030.4
27044.7
27052.3
27056.3
27059.2
27059.6
27059.2
27056.4
27052.4
27044.8
27030.6
27012.5
27182
9247.22
9311.54
9192.78
9204.91
9215.88
9221.79
9225.1
9227.42
9227.77
9227.46
9225.2
9221.95
9216.03
9205.06
9192.87
9311.83
4453.73
4462.99
4380.04
4385.79
4394.34
4398.52
4401.13
4402.86
4403.16
4402.91
4401.24
4398.7
4394.52
4385.97
4380.16
4463.23
2591.93
2588.09
2526.21
2525.08
2532.19
2534.66
2536.67
2537.85
2538.11
2537.91
2536.82
2534.88
2532.43
2525.3
2526.36
2588.32
1691.97
1696.17
1648.37
1639.78
1645.94
1646.5
1647.93
1648.51
1648.76
1648.59
1648.12
1646.77
1646.24
1640.04
1648.56
1696.43
1191.84
1212.23
1174.74
1159.17
1164.62
1163.12
1163.95
1163.91
1164.15
1164.01
1164.19
1163.44
1164.99
1159.49
1174.96
1212.53
887.71
925.45
896.013
874.214
879.105
875.903
876.184
875.541
875.781
875.661
876.468
876.281
879.527
874.583
896.249
925.786
691.987
744.547
721.617
694.934
699.328
694.552
694.316
693.125
693.365
693.262
694.641
694.975
699.798
695.341
721.86
744.913
561.442
625
607.442
577.448
581.377
575.266
574.563
572.9
573.138
573.053
574.923
575.724
581.881
577.881
607.685
625.381
472.151
543.187
529.441
498.289
501.784
494.609
493.498
491.441
491.675
491.607
493.886
495.093
502.311
498.738
529.674
543.567
409.807
485.004
474.16
443.985
447.091
439.09
437.626
435.242
435.47
435.418
438.037
439.593
447.63
444.442
474.377
485.364
365.492
442.246
433.615
406.38
409.103
400.502
398.728
396.066
396.288
396.251
399.159
401.02
409.634
406.838
433.814
442.574
333.524
409.749
402.727
379.325
381.681
373.167
371.235
368.491
368.69
368.679
371.673
373.677
382.195
379.775
402.906
410.037
310.119
384.092
378.135
359.291
361.297
353.058
351.013
348.234
348.409
348.423
351.451
353.554
361.785
359.724
378.292
384.333
292.744
362.87
357.49
343.875
345.547
337.76
335.648
332.885
333.034
333.072
336.081
338.236
346.002
344.284
357.624
363.058
279.663
344.388
339.181
331.411
332.768
325.592
323.46
320.762
320.885
320.946
323.881
326.043
333.184
331.791
339.293
344.518
269.661
327.515
322.167
320.739
321.764
315.378
313.274
310.686
310.783
310.864
313.677
315.797
322.132
321.08
322.256
327.587
261.869
311.525
305.81
310.966
311.612
306.259
304.247
301.836
301.907
302.008
304.623
306.639
311.921
311.258
305.877
311.539
255.66
295.987
289.757
301.396
301.627
297.566
295.72
293.571
293.614
293.732
296.059
297.895
301.867
301.63
289.804
295.95
250.581
280.687
273.862
291.57
291.375
288.793
287.179
285.364
285.376
285.512
287.472
289.063
291.541
291.741
273.891
280.603
246.296
265.564
258.12
281.233
280.626
279.62
278.286
276.856
276.834
276.986
278.527
279.824
280.719
281.34
258.133
265.44
242.157
250.654
242.605
270.285
269.302
269.882
268.858
267.84
267.784
267.95
269.044
270.018
269.323
270.329
242.605
250.498
237.299
236.029
227.426
258.73
257.42
259.529
258.829
258.236
258.147
258.324
258.959
259.598
257.375
258.714
227.414
235.847
231.757
221.762
212.703
246.645
245.065
248.594
248.219
248.051
247.928
248.117
248.294
248.599
244.96
246.575
212.682
221.562
225.572
207.932
198.56
234.155
232.362
237.168
237.105
237.353
237.198
237.396
237.127
237.113
232.206
234.037
198.531
207.719
218.797
194.611
185.108
221.42
219.466
225.382
225.61
226.257
226.07
226.279
225.584
225.273
219.268
221.261
185.074
194.392
211.494
181.864
172.435
208.628
206.552
213.401
213.891
214.914
214.694
214.915
213.821
213.243
206.32
208.436
172.398
181.645
203.739
169.75
160.597
195.979
193.8
201.395
202.114
203.482
203.231
203.465
202.005
201.195
193.542
195.76
160.559
169.535
195.618
158.312
149.622
183.653
181.378
189.523
190.429
192.102
191.82
192.067
190.288
189.287
181.101
183.415
149.583
158.106
187.233
147.587
139.504
171.775
169.421
177.898
178.945
180.872
180.562
180.82
178.777
177.634
169.132
171.524
139.466
147.392
178.698
137.592
130.219
160.408
158.012
166.575
167.71
169.831
169.496
169.766
167.524
166.293
157.719
160.153
130.183
137.411
170.145
128.334
121.743
149.578
147.185
155.566
156.729
158.976
158.621
158.9
156.533
155.275
146.896
149.329
121.71
128.168
161.701
119.802
114.015
139.287
136.947
144.959
146.161
148.467
148.108
148.385
145.96
144.667
136.672
139.053
113.983
119.651
153.458
111.975
106.982
129.54
127.319
135.092
136.351
138.671
138.319
138.588
136.147
134.802
127.056
129.321
106.953
111.84
145.487
104.823
100.589
120.492
118.42
126.047
127.317
129.606
129.262
129.522
127.116
125.764
118.164
120.282
100.564
104.702
137.866
98.3051
94.7736
112.207
110.278
117.639
118.873
121.074
120.742
120.992
118.681
117.369
110.027
112.005
94.7502
98.1972
130.755
92.3765
89.4662
104.582
102.793
109.766
110.923
112.985
112.669
112.906
110.745
109.513
102.549
104.39
89.4447
92.2798
124.242
86.9889
84.6004
97.537
95.887
102.374
103.428
105.31
105.014
105.237
103.267
102.143
95.6533
97.3564
84.5802
86.9017
118.271
82.0853
80.1185
91.0105
89.5056
95.4486
96.391
98.0929
97.8292
98.0244
96.2481
95.2414
89.2857
90.8432
80.0992
82.0061
112.754
77.6125
75.9743
84.9633
83.6124
89.0207
89.8425
91.3575
91.1235
91.2947
89.7185
88.8371
83.4091
84.8115
75.9555
77.5401
107.603
73.5106
72.1258
79.3761
78.177
83.061
83.7666
85.1041
84.8983
85.0474
83.6606
82.8995
77.9929
79.2354
72.1071
73.4447
102.741
69.7264
68.5386
74.2165
73.1743
77.546
78.1529
79.3383
79.1574
79.2871
78.0626
77.404
73.014
74.0905
68.5197
69.6664
98.1001
66.2235
65.1882
69.4778
68.6221
72.4438
72.9698
74.0356
73.8751
73.989
72.8924
72.3185
68.4943
69.3717
65.1689
66.1687
93.622
62.9722
62.0532
65.1784
64.5343
67.7225
68.1773
69.1496
69.0052
69.1065
68.1113
67.6122
64.4396
65.0932
62.0334
62.9219
89.2632
59.9408
59.1149
61.3094
60.8744
63.3674
63.7461
64.6367
64.5055
64.5967
63.6915
63.2733
60.8047
61.2461
59.0943
59.8941
84.9938
57.1039
56.3565
57.8465
57.5901
59.4586
59.7302
60.4846
60.371
60.4488
59.6915
59.3849
57.5393
57.7996
56.335
57.0601
80.7969
54.4463
53.7625
54.7374
54.6355
56.014
56.2284
56.8063
56.7206
56.7768
56.1975
55.9572
54.5984
54.7024
53.74
54.4048
76.6675
51.9535
51.3183
51.9383
51.9699
52.9799
53.1518
53.5865
53.528
53.5626
53.1262
52.9353
51.9428
51.9118
51.2949
51.9138
72.6112
49.6121
49.0092
49.4128
49.551
50.2776
50.4218
50.7529
50.7151
50.7331
50.3997
50.2412
49.5295
49.3922
48.9848
49.5737
68.6435
47.4092
46.8205
47.1202
47.3321
47.8506
47.977
48.2336
48.2114
48.2167
47.9568
47.8197
47.3139
47.1026
46.7952
47.3719
64.783
45.3331
44.7412
45.0155
45.271
45.6542
45.7688
45.9724
45.9618
45.9574
45.7497
45.627
45.2542
44.9996
44.7151
45.2967
61.0475
43.3734
42.7645
43.0549
43.3369
43.6483
43.7589
43.9253
43.923
43.9116
43.7404
43.6227
43.3202
43.0398
42.7377
43.3378
57.4569
41.5207
40.8875
41.2123
41.5147
41.7948
41.9073
42.0535
42.0564
42.0405
41.8886
41.7694
41.497
41.1969
40.86
41.4858
54.0325
39.7667
39.1096
39.4803
39.7982
40.0638
40.1806
40.32
40.3252
40.3071
40.1612
40.0379
39.7787
39.4637
39.0817
39.7325
50.7949
38.1044
37.432
37.8465
38.1765
38.4333
38.5624
38.6954
38.7042
38.6824
38.5416
38.4059
38.1547
37.8283
37.4036
38.0709
47.7612
36.5275
35.845
36.2988
36.6383
36.8953
37.0393
37.168
37.1811
37.1547
37.0167
36.8662
36.6142
36.279
35.8162
36.4948
44.9424
35.0308
34.3348
34.8272
35.1741
35.4386
35.5971
35.7245
35.7413
35.7108
35.5728
35.4077
35.1476
34.8057
34.3059
34.9989
42.3409
33.6096
32.8968
33.4239
33.7762
34.0528
34.2241
34.3525
34.3721
34.3383
34.1982
34.0201
33.7476
33.4008
32.8679
33.5786
39.9484
32.2603
31.5307
32.0828
32.4388
32.7292
32.9111
33.0419
33.0634
33.0273
32.8839
32.695
32.4083
32.0583
31.502
32.2301
37.7431
30.9797
30.2355
30.7997
31.1574
31.4612
31.6514
31.7854
31.8081
31.7703
31.6231
31.4257
31.1252
30.774
30.2071
30.9505
35.692
29.7654
29.0097
29.5722
29.9291
30.244
30.44
30.5772
30.6006
30.5618
30.411
30.2075
29.8957
29.5456
28.9818
29.7373
33.7496
28.6154
27.8516
28.3994
28.753
29.0753
29.2747
29.4138
29.4379
29.3982
29.2451
29.0382
28.7188
28.3722
27.8244
28.5884
31.9251
27.5287
26.7595
27.2821
27.6297
27.9553
28.1555
28.2939
28.3192
28.2782
28.1258
27.9181
27.5951
27.2547
26.733
27.5028
30.2933
26.5045
25.7319
26.2218
26.561
26.8859
27.0846
27.2204
27.2458
27.2048
27.0551
26.8489
26.5266
26.1945
25.7063
26.4798
28.8645
25.5422
24.7676
25.2206
25.5496
25.8696
26.0648
26.1966
26.2217
26.1812
26.0358
25.8333
25.5156
25.1938
24.7433
25.5188
27.5984
24.6417
23.866
24.2808
24.5981
24.9089
25.0984
25.2262
25.2505
25.2111
25.0701
24.8734
24.565
24.2545
23.8433
24.6197
26.4669
23.8032
23.0276
23.4044
23.7093
24.0063
24.1891
24.3127
24.3361
24.2982
24.1617
23.972
23.6773
23.3789
23.0067
23.7826
25.4505
23.0274
22.2541
22.5932
22.8851
23.1655
23.3409
23.4599
23.4823
23.4461
23.3147
23.1327
22.8544
22.5686
22.2348
23.0081
24.5354
22.3152
21.5477
21.8484
22.1267
22.3904
22.5577
22.6717
22.6931
22.6587
22.5331
22.3594
22.0974
21.825
21.53
22.2974
23.712
21.668
20.9113
21.1713
21.436
21.6849
21.8438
21.9522
21.9724
21.94
21.8207
21.6559
21.4085
21.1492
20.8949
21.6517
22.9739
21.0875
20.3467
20.566
20.818
21.0529
21.203
21.3054
21.3245
21.2942
21.1817
21.026
20.7924
20.5452
20.3319
21.0726
22.3174
20.5755
19.854
20.0377
20.2771
20.4985
20.6396
20.7356
20.7534
20.7254
20.6201
20.474
20.2535
20.0187
19.8409
20.562
21.7407
20.1344
19.4369
19.5908
19.8175
20.0259
20.1578
20.247
20.2636
20.2378
20.1403
20.0037
19.7961
19.5738
19.4252
20.1224
21.2439
19.7669
19.0987
19.2289
19.4435
19.6391
19.7618
19.8439
19.8592
19.8358
19.7464
19.6194
19.4244
19.2139
19.0885
19.7564
20.8283
19.4759
18.8433
18.956
19.1594
19.3425
19.4561
19.5307
19.5448
19.5238
19.4427
19.3253
19.1426
18.9429
18.8344
19.4669
20.4957
19.2649
18.6746
18.7765
18.9695
19.1406
19.2451
19.312
19.3248
19.3062
19.2336
19.1258
18.955
18.7653
18.6671
19.2573
20.2481
19.1373
18.603
18.6998
18.8815
19.0413
19.1345
19.1923
19.2037
19.1877
19.1255
19.0289
18.8692
18.6903
18.5967
19.1313
20.0882
19.0981
18.6258
18.7216
156509
156509
156509
156509
156509
156509
156509
156509
156509
156509
156509
156509
156509
156509
156509
156509
27170
27068.9
27096
27089.4
27087.1
27089.7
27089.7
27090.7
27090.6
27090.7
27089.8
27089.8
27087.1
27089.4
27096.1
27069.1
9302.28
9257.04
9273.37
9266.83
9264.87
9266.35
9266.11
9266.68
9266.62
9266.72
9266.18
9266.46
9264.94
9266.84
9273.43
9257.22
4463.51
4446.25
4457.63
4450.58
4448.58
4448.9
4448.36
4448.55
4448.48
4448.6
4448.46
4449.05
4448.68
4450.64
4457.73
4446.46
2595.03
2590.73
2601.32
2593.23
2590.98
2590.31
2589.46
2589.3
2589.22
2589.36
2589.58
2590.5
2591.13
2593.34
2601.46
2590.99
1703.67
1707.64
1718.72
1709.12
1706.71
1705.13
1704
1703.51
1703.41
1703.58
1704.15
1705.36
1706.91
1709.28
1718.91
1707.95
1214.06
1225.79
1237.52
1225.62
1223.26
1220.88
1219.53
1218.72
1218.62
1218.81
1219.71
1221.15
1223.5
1225.82
1237.74
1226.14
916.271
936.336
948.325
933.982
931.857
928.472
926.929
925.836
925.735
925.935
927.138
928.766
932.139
934.218
948.561
936.721
721.43
749.562
761.279
744.681
742.92
738.709
737.03
735.698
735.604
735.805
737.262
739.023
743.232
744.947
761.525
749.968
586.992
622.134
633.169
614.792
613.448
608.61
606.85
605.329
605.248
605.444
607.099
608.939
613.783
615.08
633.416
622.548
490.797
531.003
541.384
521.899
520.963
515.706
513.909
512.256
512.186
512.376
514.17
516.042
521.312
522.201
541.626
531.415
420.253
463.457
473.282
453.4
452.819
447.346
445.546
443.815
443.754
443.939
445.814
447.683
453.174
453.711
473.516
463.859
367.618
411.971
421.263
401.689
401.391
395.881
394.107
392.346
392.292
392.471
394.378
396.215
401.745
402
421.488
412.356
327.348
371.849
380.682
361.9
361.829
356.369
354.629
352.861
352.811
352.987
354.9
356.697
362.178
362.209
380.895
372.213
296.066
340.012
348.452
330.83
330.947
325.63
323.935
322.178
322.13
322.305
324.205
325.95
331.287
331.134
348.655
340.352
271.454
314.311
322.361
306.226
306.496
301.392
299.755
298.027
297.982
298.154
300.021
301.703
306.825
306.522
322.552
314.624
251.869
293.189
300.744
286.456
286.848
282.014
280.444
278.762
278.719
278.888
280.705
282.313
287.165
286.742
300.921
293.473
236.123
275.455
282.372
270.314
270.802
266.283
264.79
263.17
263.127
263.294
265.045
266.569
271.103
270.588
282.536
275.706
223.344
260.185
266.343
256.889
257.451
253.288
251.883
250.339
250.297
250.461
252.129
253.56
257.737
257.15
266.492
260.398
212.854
246.695
251.988
245.492
246.11
242.339
241.031
239.578
239.535
239.697
241.267
242.595
246.378
245.739
252.122
246.867
204.109
234.483
238.814
235.577
236.224
232.905
231.704
230.356
230.312
230.471
231.927
233.143
236.469
235.805
238.934
234.614
196.688
223.188
226.471
226.676
227.319
224.562
223.492
222.264
222.219
222.375
223.7
224.777
227.536
226.879
226.575
223.277
190.258
212.551
214.713
218.403
219.019
216.935
216.033
214.956
214.908
215.06
216.219
217.122
219.201
218.577
214.803
212.601
184.555
202.396
203.387
210.471
211.041
209.714
209.006
208.12
208.068
208.214
209.165
209.868
211.186
210.614
203.464
202.408
179.372
192.605
192.408
202.674
203.184
202.664
202.169
201.506
201.449
201.588
202.299
202.782
203.289
202.782
192.471
192.583
174.548
183.106
181.736
194.874
195.315
195.622
195.35
194.933
194.869
195.001
195.448
195.701
195.38
194.947
181.786
183.053
169.963
173.861
171.363
186.992
187.36
188.483
188.436
188.276
188.206
188.33
188.502
188.524
187.386
187.031
171.403
173.782
165.526
164.859
161.308
178.998
179.29
181.193
181.364
181.464
181.386
181.502
181.397
181.196
179.278
179.004
161.338
164.758
161.167
156.107
151.607
170.897
171.111
173.738
174.112
174.464
174.378
174.488
174.114
173.705
171.065
170.872
151.628
155.99
156.838
147.626
142.302
162.719
162.858
166.133
166.692
167.282
167.187
167.29
166.665
166.066
162.781
162.666
142.315
147.496
152.506
139.443
133.438
154.509
154.58
158.417
159.137
159.945
159.843
159.94
159.084
158.32
154.476
154.432
133.444
139.304
148.151
131.584
125.056
146.323
146.335
150.641
151.501
152.504
152.394
152.486
151.425
150.518
146.208
146.225
125.057
131.441
143.768
124.077
117.19
138.22
138.186
142.871
143.848
145.022
144.905
144.992
143.753
142.726
138.041
138.104
117.186
123.934
139.356
116.943
109.863
130.255
130.195
135.173
136.246
137.568
137.445
137.528
136.135
135.009
130.036
130.125
109.856
116.802
134.925
110.197
103.073
122.479
122.414
127.607
128.757
130.201
130.075
130.152
128.633
127.429
122.246
122.339
103.062
110.062
130.488
103.847
96.7901
114.963
114.889
120.215
121.419
122.96
122.833
122.903
121.286
120.026
114.715
114.817
96.7775
103.718
126.058
97.8891
90.9869
107.877
107.706
113.036
114.251
115.859
115.733
115.795
114.113
112.844
107.531
107.728
90.9725
97.7696
121.652
92.3258
85.6387
101.332
100.998
106.269
107.457
109.076
108.949
109.01
107.316
106.077
100.823
101.18
85.623
92.2136
117.282
87.184
80.7226
95.2899
94.8004
100.026
101.178
102.781
102.653
102.713
101.037
99.834
94.6257
95.1352
80.7061
87.0787
112.954
82.4413
76.2129
89.6784
89.0636
94.2273
95.3376
96.8958
96.7594
96.8297
95.1974
94.0371
88.8892
89.5215
76.1958
82.3424
108.674
78.067
72.0796
84.4306
83.7262
88.7644
89.8228
91.3203
91.1814
91.2559
89.6864
88.5788
83.5537
84.2725
72.0623
77.9744
104.443
74.0224
68.2887
79.4882
78.7375
83.5938
84.6095
86.0328
85.9006
85.9702
84.4762
83.4156
78.57
79.3362
68.2711
73.9359
100.258
70.2708
64.7943
74.8231
74.0664
78.6903
79.6522
80.9906
80.866
80.9305
79.5242
78.5214
73.907
74.6787
64.7763
70.19
96.1201
66.7833
61.5521
70.4148
69.6899
74.0266
74.9276
76.1728
76.0564
76.1158
74.8063
73.8687
69.541
70.2792
61.5335
66.7077
92.025
63.533
58.5319
66.2505
65.5902
69.5929
70.429
71.5719
71.4651
71.5185
70.3153
69.4474
65.4532
66.1304
58.5126
63.4622
87.9531
60.4955
55.7106
62.348
61.7501
65.3914
66.1619
67.2
67.1032
67.1505
66.0558
65.2586
61.6258
62.242
55.6907
60.4289
83.8944
57.6493
53.0677
58.6941
58.1558
61.4162
62.1284
63.0653
62.9779
63.0197
62.0284
61.2955
58.0451
58.601
53.0471
57.5865
79.907
54.9767
50.5849
55.2747
54.8055
57.7004
58.3161
59.1575
59.0776
59.1152
58.2276
57.5921
54.7146
55.1934
50.5636
54.9171
76.0652
52.4617
48.2472
52.079
51.7657
54.2249
54.7582
55.5155
55.4417
55.4761
54.6786
54.1278
51.685
52.0119
48.2251
52.405
72.3771
50.0903
46.0438
49.1351
49.0149
50.9862
51.4361
52.1065
52.0379
52.0696
51.3669
50.9032
48.9473
49.0746
46.0208
50.0361
68.8533
47.8502
43.9646
46.4438
46.5139
48.0635
48.4312
48.9664
48.9156
48.9351
48.3771
48.0002
46.457
46.3934
43.9409
47.7984
65.5116
45.7309
41.9987
44.0047
44.2217
45.4931
45.8166
46.2029
46.1781
46.1788
45.7772
45.4384
44.1732
43.9622
41.9744
45.6812
62.3096
43.7235
40.1403
41.7838
42.1116
43.1628
43.4681
43.7993
43.79
43.7777
43.4331
43.1149
42.0696
41.7474
40.1154
43.6759
59.2195
41.8211
38.3876
39.7517
40.1615
41.0416
41.3331
41.6205
41.6232
41.6009
41.3014
40.9987
40.1242
39.7197
38.3622
41.7755
56.226
40.019
36.7395
37.883
38.3522
39.1017
39.3838
39.6371
39.6494
39.6192
39.3544
39.0626
38.3182
37.8542
36.7136
39.9754
53.3249
38.3143
35.1901
36.1562
36.6673
37.3193
37.5959
37.8235
37.8433
37.8067
37.5683
37.2828
36.6355
36.1294
35.1641
38.2728
50.5205
36.7056
33.732
34.553
35.0926
35.6739
35.9486
36.1571
36.183
36.1412
35.922
35.6392
35.0623
34.5277
33.7059
36.6662
47.821
35.1914
32.3551
33.0585
33.6164
34.1484
34.4241
34.619
34.6497
34.6038
34.3981
34.1149
33.5868
33.034
32.3293
35.154
45.2363
33.7657
31.051
31.6604
32.2288
32.7284
33.0072
33.1932
33.2278
33.1784
32.9815
32.6956
32.1995
31.6363
31.0253
33.73
42.777
32.4163
29.8144
30.3489
30.9218
31.4023
31.6858
31.8664
31.9043
31.8519
31.6603
31.3699
30.8926
30.3249
29.7891
32.382
40.4532
31.1351
28.6425
29.1163
29.6893
30.1607
30.4503
30.6284
30.6688
30.6141
30.4248
30.1285
29.66
29.0923
28.6177
31.1022
38.2744
29.9203
27.5334
27.9568
28.5268
28.9968
29.2934
29.4711
29.5138
29.4571
29.268
28.9648
28.4973
27.9328
27.5091
29.8888
36.2465
28.77
26.4857
26.8664
27.4289
27.9057
28.2105
28.3894
28.434
28.3755
28.1852
27.874
27.3991
26.8425
26.4622
28.74
34.3712
27.6831
25.4984
25.8424
26.3922
26.8801
27.1926
27.3747
27.4207
27.361
27.1673
26.8484
26.362
25.8187
25.4758
27.6545
32.6361
26.6585
24.5713
24.8828
25.4149
25.9132
26.2316
26.4173
26.4641
26.4036
26.2063
25.8815
25.3845
24.8592
24.5497
26.6314
31.0313
25.6957
23.7051
23.9861
24.4965
25.0014
25.3228
25.5113
25.5583
25.4977
25.2975
24.9698
24.4662
23.963
23.6844
25.6701
29.5564
24.7944
22.9014
23.1524
23.6376
24.1432
24.4642
24.6538
24.7005
24.6404
24.4392
24.1121
23.6077
23.1299
22.8814
24.7703
28.2049
23.9547
22.1619
22.3826
22.8397
23.3392
23.6558
23.8445
23.8904
23.8314
23.6313
23.3088
22.8105
22.3609
22.1427
23.9321
26.9697
23.1769
21.4871
21.678
22.1048
22.5912
22.8995
23.0849
23.1294
23.0722
22.8757
22.5618
22.0766
21.6573
21.4689
23.1559
25.8441
22.4618
20.8777
21.0404
21.4353
21.9021
22.1982
22.3778
22.4205
22.3656
22.1753
21.874
21.4085
21.021
20.8607
22.4424
24.8218
21.8104
20.3347
20.4724
20.8343
21.2756
21.5556
21.727
21.7675
21.7155
21.5339
21.249
20.809
20.4544
20.3192
21.7926
23.8973
21.2241
19.8595
19.9767
20.305
20.7156
20.9762
21.1371
21.1748
21.1263
20.9559
20.6909
20.2816
19.9603
19.8455
21.208
23.0671
20.7049
19.454
19.5551
19.8512
20.2268
20.4648
20.6131
20.6477
20.6031
20.4461
20.2041
19.8298
19.5402
19.4416
20.6903
22.3328
20.2548
19.1204
19.2106
19.4767
19.8138
20.0265
20.1604
20.1915
20.1513
20.0095
19.7932
19.4574
19.1972
19.1097
20.2419
21.702
19.8765
18.8616
18.9469
19.1854
19.4815
19.6668
19.7847
19.8121
19.7767
19.6517
19.4633
19.1684
18.9351