0 	0 	0 	0
0 	-1.27869e-35 	-1.52208e-36 	1.8527e-31
5.01672e-05 	-1.12178e-06 	-1.90733e-07 	0.0172848
5.01672e-05 	-1.12178e-06 	-1.90733e-07 	0.0172848
0.000100334 	-1.64911e-06 	-8.02392e-07 	0.0332649
0.000150502 	-2.09306e-06 	-1.8594e-06 	0.0480968
0.000150502 	-2.09306e-06 	-1.8594e-06 	0.0480968
0.000200669 	-2.59958e-06 	-3.36196e-06 	0.0618651
0.000200669 	-2.59958e-06 	-3.36196e-06 	0.0618651
0.000250836 	-3.11415e-06 	-5.28433e-06 	0.074649
0.000301003 	-3.59153e-06 	-7.61547e-06 	0.0865142
0.000301003 	-3.59153e-06 	-7.61547e-06 	0.0865142
0.000351171 	-4.0171e-06 	-1.03488e-05 	0.0975032
0.000401338 	-4.38722e-06 	-1.34907e-05 	0.107636
0.000451505 	-4.70244e-06 	-1.70646e-05 	0.116927
0.000451505 	-4.70244e-06 	-1.70646e-05 	0.116927
0.000501672 	-4.96513e-06 	-2.11067e-05 	0.125403
0.000551839 	-5.17863e-06 	-2.56549e-05 	0.133108
0.000551839 	-5.17863e-06 	-2.56549e-05 	0.133108
0.000602007 	-5.34672e-06 	-3.07395e-05 	0.140105
0.000602007 	-5.34672e-06 	-3.07395e-05 	0.140105
0.000652174 	-5.4734e-06 	-3.63821e-05 	0.146464
0.000652174 	-5.4734e-06 	-3.63821e-05 	0.146464
0.000702341 	-5.56266e-06 	-4.26003e-05 	0.152258
0.000702341 	-5.56266e-06 	-4.26003e-05 	0.152258
0.000752508 	-5.61823e-06 	-4.94092e-05 	0.157556
0.000802676 	-5.64303e-06 	-5.68227e-05 	0.162414
0.000852843 	-5.63581e-06 	-6.49363e-05 	0.166825
0.000852843 	-5.63581e-06 	-6.49363e-05 	0.166825
0.00090301 	-5.60429e-06 	-7.36236e-05 	0.170899
0.00090301 	-5.60429e-06 	-7.36236e-05 	0.170899
0.000953177 	-5.55145e-06 	-8.28354e-05 	0.174676
0.00100334 	-5.47995e-06 	-9.25204e-05 	0.178191
0.00100334 	-5.47995e-06 	-9.25204e-05 	0.178191
0.00105351 	-5.39211e-06 	-0.00010263 	0.181477
0.00105351 	-5.39211e-06 	-0.00010263 	0.181477
0.00110368 	-5.2896e-06 	-0.000113127 	0.184556
0.00115385 	-5.17088e-06 	-0.000124055 	0.187407
0.00120401 	-5.04158e-06 	-0.000135261 	0.190107
0.00120401 	-5.04158e-06 	-0.000135261 	0.190107
0.00130435 	-4.75575e-06 	-0.00015837 	0.195115
0.00130435 	-4.75575e-06 	-0.00015837 	0.195115
0.00135452 	-4.59905e-06 	-0.000170262 	0.197416
0.00135452 	-4.59905e-06 	-0.000170262 	0.197416
0.00140468 	-4.43526e-06 	-0.000182309 	0.199607
0.00145485 	-4.26625e-06 	-0.00019446 	0.201714
0.00145485 	-4.26625e-06 	-0.00019446 	0.201714
0.00150502 	-4.09259e-06 	-0.000206699 	0.203745
0.00150502 	-4.09259e-06 	-0.000206699 	0.203745
0.00155518 	-3.91279e-06 	-0.00021902 	0.205667
0.00155518 	-3.91279e-06 	-0.00021902 	0.205667
0.00160535 	-3.72966e-06 	-0.000231357 	0.20753
0.00160535 	-3.72966e-06 	-0.000231357 	0.20753
0.00165552 	-3.54359e-06 	-0.000243697 	0.209339
0.00165552 	-3.54359e-06 	-0.000243697 	0.209339
0.00170569 	-3.35358e-06 	-0.000256005 	0.211078
0.00170569 	-3.35358e-06 	-0.000256005 	0.211078
0.00175585 	-3.1605e-06 	-0.000268235 	0.212761
0.00175585 	-3.1605e-06 	-0.000268235 	0.212761
0.00180602 	-2.96535e-06 	-0.000280394 	0.214407
0.00180602 	-2.96535e-06 	-0.000280394 	0.214407
0.00185619 	-2.76732e-06 	-0.000292419 	0.215999
0.00185619 	-2.76732e-06 	-0.000292419 	0.215999
0.00190635 	-2.56697e-06 	-0.000304274 	0.217546
0.00190635 	-2.56697e-06 	-0.000304274 	0.217546
0.00195652 	-2.36523e-06 	-0.000316009 	0.219065
0.00195652 	-2.36523e-06 	-0.000316009 	0.219065
0.00200669 	-2.16121e-06 	-0.000327499 	0.220536
0.00200669 	-2.16121e-06 	-0.000327499 	0.220536
0.00205686 	-1.95575e-06 	-0.000338773 	0.221974
0.00210702 	-1.74933e-06 	-0.000349903 	0.223391
0.00210702 	-1.74933e-06 	-0.000349903 	0.223391
0.00215719 	-1.54092e-06 	-0.000360626 	0.224759
0.00220736 	-1.33183e-06 	-0.000371171 	0.226109
0.00225753 	-1.12166e-06 	-0.000381432 	0.22743
0.00225753 	-1.12166e-06 	-0.000381432 	0.22743
0.00230769 	-9.10387e-07 	-0.000391322 	0.228719
0.00230769 	-9.10387e-07 	-0.000391322 	0.228719
0.00235786 	-6.98638e-07 	-0.00040105 	0.229994
0.00235786 	-6.98638e-07 	-0.00040105 	0.229994
0.00240803 	-4.8559e-07 	-0.000410252 	0.231229
0.00240803 	-4.8559e-07 	-0.000410252 	0.231229
0.00245819 	-2.72128e-07 	-0.00041926 	0.23245
0.00245819 	-2.72128e-07 	-0.00041926 	0.23245
0.00250836 	-5.78248e-08 	-0.000427876 	0.233644
0.00250836 	-5.78248e-08 	-0.000427876 	0.233644
0.00255853 	1.57184e-07 	-0.000436131 	0.234814
0.0026087 	3.72693e-07 	-0.000444129 	0.235968
0.0026087 	3.72693e-07 	-0.000444129 	0.235968
0.00265886 	5.89164e-07 	-0.000451608 	0.23709
0.00270903 	8.05863e-07 	-0.000458963 	0.238205
0.00270903 	8.05863e-07 	-0.000458963 	0.238205
0.0027592 	1.02376e-06 	-0.000465654 	0.23928
0.00280936 	1.24186e-06 	-0.000472236 	0.24035
0.00280936 	1.24186e-06 	-0.000472236 	0.24035
0.00285953 	1.46099e-06 	-0.000478245 	0.241387
0.00285953 	1.46099e-06 	-0.000478245 	0.241387
0.0029097 	1.68051e-06 	-0.000484058 	0.242413
0.0029097 	1.68051e-06 	-0.000484058 	0.242413
0.00295987 	1.901e-06 	-0.000489382 	0.243412
0.00295987 	1.901e-06 	-0.000489382 	0.243412
0.00301003 	2.12207e-06 	-0.000494452 	0.244396
0.0030602 	2.3441e-06 	-0.000499104 	0.245356
0.00311037 	2.56694e-06 	-0.000503476 	0.246299
0.00311037 	2.56694e-06 	-0.000503476 	0.246299
0.00316054 	2.79082e-06 	-0.000507485 	0.247221
0.00316054 	2.79082e-06 	-0.000507485 	0.247221
0.00326087 	3.24188e-06 	-0.000514629 	0.24901
0.00326087 	3.24188e-06 	-0.000514629 	0.24901
0.00331104 	3.46915e-06 	-0.000517795 	0.249876
0.0033612 	3.69782e-06 	-0.000520658 	0.250722
0.0033612 	3.69782e-06 	-0.000520658 	0.250722
0.00341137 	3.92746e-06 	-0.000523327 	0.251552
0.00341137 	3.92746e-06 	-0.000523327 	0.251552
0.00346154 	4.15854e-06 	-0.000525701 	0.25236
0.00346154 	4.15854e-06 	-0.000525701 	0.25236
0.00351171 	4.39019e-06 	-0.000527941 	0.253156
0.00356187 	4.62312e-06 	-0.000529886 	0.253926
0.00356187 	4.62312e-06 	-0.000529886 	0.253926
0.00361204 	4.85631e-06 	-0.000531758 	0.25469
0.00366221 	5.09063e-06 	-0.000533326 	0.255425
0.00366221 	5.09063e-06 	-0.000533326 	0.255425
0.00371237 	5.325e-06 	-0.000534884 	0.25616
0.00371237 	5.325e-06 	-0.000534884 	0.25616
0.00376254 	5.56082e-06 	-0.00053612 	0.256862
0.00376254 	5.56082e-06 	-0.00053612 	0.256862
0.00381271 	5.79663e-06 	-0.000537356 	0.257564
0.00381271 	5.79663e-06 	-0.000537356 	0.257564
0.00386288 	6.03392e-06 	-0.000538349 	0.25824
0.00391304 	6.27152e-06 	-0.000539292 	0.258911
0.00391304 	6.27152e-06 	-0.000539292 	0.258911
0.00396321 	6.51012e-06 	-0.000540082 	0.259562
0.00401338 	6.74942e-06 	-0.000540766 	0.2602
0.00401338 	6.74942e-06 	-0.000540766 	0.2602
0.00406355 	6.98908e-06 	-0.00054138 	0.260829
0.00406355 	6.98908e-06 	-0.00054138 	0.260829
0.00411371 	7.22954e-06 	-0.00054184 	0.261435
0.00411371 	7.22954e-06 	-0.00054184 	0.261435
0.00421405 	7.7109e-06 	-0.000542571 	0.262615
0.00421405 	7.7109e-06 	-0.000542571 	0.262615
0.00426421 	7.9518e-06 	-0.000542841 	0.263189
0.00426421 	7.9518e-06 	-0.000542841 	0.263189
0.00431438 	8.19248e-06 	-0.000543014 	0.263743
0.00431438 	8.19248e-06 	-0.000543014 	0.263743
0.00436455 	8.43303e-06 	-0.00054313 	0.264284
0.00436455 	8.43303e-06 	-0.00054313 	0.264284
0.00441472 	8.67329e-06 	-0.000543219 	0.264819
0.00441472 	8.67329e-06 	-0.000543219 	0.264819
0.00446488 	8.9126e-06 	-0.000543217 	0.265328
0.00446488 	8.9126e-06 	-0.000543217 	0.265328
0.00451505 	9.15191e-06 	-0.000543214 	0.265837
0.00451505 	9.15191e-06 	-0.000543214 	0.265837
0.00456522 	9.3895e-06 	-0.000543146 	0.266321
0.00456522 	9.3895e-06 	-0.000543146 	0.266321
0.00461538 	9.62662e-06 	-0.00054306 	0.266798
0.00461538 	9.62662e-06 	-0.00054306 	0.266798
0.00466555 	9.86279e-06 	-0.00054296 	0.267266
0.00471572 	1.00967e-05 	-0.000542823 	0.26771
0.00476589 	1.03306e-05 	-0.000542687 	0.268155
0.00476589 	1.03306e-05 	-0.000542687 	0.268155
0.00486622 	1.07909e-05 	-0.000542382 	0.268987
0.00486622 	1.07909e-05 	-0.000542382 	0.268987
0.00491639 	1.10196e-05 	-0.000542228 	0.269393
0.00496656 	1.12439e-05 	-0.000542081 	0.269773
0.00496656 	1.12439e-05 	-0.000542081 	0.269773
0.00501672 	1.14682e-05 	-0.000541934 	0.270153
0.00506689 	1.1689e-05 	-0.000541805 	0.270515
0.00511706 	1.19068e-05 	-0.000541689 	0.270863
0.00511706 	1.19068e-05 	-0.000541689 	0.270863
0.00521739 	1.23357e-05 	-0.000541502 	0.27153
0.00521739 	1.23357e-05 	-0.000541502 	0.27153
0.00526756 	1.25459e-05 	-0.000541436 	0.271846
0.00526756 	1.25459e-05 	-0.000541436 	0.271846
0.00531773 	1.27547e-05 	-0.00054138 	0.272157
0.00536789 	1.2956e-05 	-0.000541377 	0.272441
0.00536789 	1.2956e-05 	-0.000541377 	0.272441
0.00541806 	1.31573e-05 	-0.000541373 	0.272725
0.00546823 	1.33546e-05 	-0.000541397 	0.272997
0.00551839 	1.35457e-05 	-0.000541464 	0.27325
0.00551839 	1.35457e-05 	-0.000541464 	0.27325
0.00556856 	1.37367e-05 	-0.000541531 	0.273503
0.00556856 	1.37367e-05 	-0.000541531 	0.273503
0.0056689 	1.41002e-05 	-0.000541775 	0.273961
0.0056689 	1.41002e-05 	-0.000541775 	0.273961
0.00571906 	1.42794e-05 	-0.000541913 	0.274184
0.00576923 	1.44492e-05 	-0.000542096 	0.274386
0.00576923 	1.44492e-05 	-0.000542096 	0.274386
0.0058194 	1.46147e-05 	-0.0005423 	0.274579
0.0058194 	1.46147e-05 	-0.0005423 	0.274579
0.00591973 	1.4934e-05 	-0.000542748 	0.274942
0.00591973 	1.4934e-05 	-0.000542748 	0.274942
0.0059699 	1.50842e-05 	-0.000543006 	0.275106
0.0059699 	1.50842e-05 	-0.000543006 	0.275106
0.00602007 	1.52343e-05 	-0.000543263 	0.275271
0.00607023 	1.53707e-05 	-0.000543552 	0.275413
0.0061204 	1.55035e-05 	-0.000543848 	0.275549
0.0061204 	1.55035e-05 	-0.000543848 	0.275549
0.00617057 	1.56363e-05 	-0.000544144 	0.275686
0.00622074 	1.57544e-05 	-0.000544456 	0.275802
0.00622074 	1.57544e-05 	-0.000544456 	0.275802
0.0062709 	1.58679e-05 	-0.000544772 	0.275911
0.00632107 	1.59815e-05 	-0.000545089 	0.276021
0.00632107 	1.59815e-05 	-0.000545089 	0.276021
0.00637124 	1.60804e-05 	-0.000545405 	0.276113
0.00637124 	1.60804e-05 	-0.000545405 	0.276113
0.0064214 	1.61725e-05 	-0.000545722 	0.276196
0.0064214 	1.61725e-05 	-0.000545722 	0.276196
0.00647157 	1.62646e-05 	-0.000546039 	0.27628
0.00647157 	1.62646e-05 	-0.000546039 	0.27628
0.00652174 	1.63435e-05 	-0.000546354 	0.27635
0.00657191 	1.64115e-05 	-0.000546666 	0.276408
0.00657191 	1.64115e-05 	-0.000546666 	0.276408
0.00662207 	1.64795e-05 	-0.000546979 	0.276467
0.00667224 	1.65379e-05 	-0.00054728 	0.276516
0.00672241 	1.65787e-05 	-0.00054756 	0.27655
0.00672241 	1.65787e-05 	-0.00054756 	0.27655
0.00677258 	1.66195e-05 	-0.00054784 	0.276583
0.00682274 	1.66572e-05 	-0.000548114 	0.276615
0.00682274 	1.66572e-05 	-0.000548114 	0.276615
0.00687291 	1.66673e-05 	-0.000548331 	0.276624
0.00687291 	1.66673e-05 	-0.000548331 	0.276624
0.00692308 	1.66775e-05 	-0.000548547 	0.276633
0.00697324 	1.66876e-05 	-0.000548764 	0.276642
0.00702341 	1.66708e-05 	-0.000548934 	0.276632
0.00707358 	1.66467e-05 	-0.000549092 	0.276617
0.00707358 	1.66467e-05 	-0.000549092 	0.276617
0.00717391 	1.65833e-05 	-0.000549361 	0.276577
0.00717391 	1.65833e-05 	-0.000549361 	0.276577
0.00722408 	1.65227e-05 	-0.00054941 	0.276538
0.00722408 	1.65227e-05 	-0.00054941 	0.276538
0.00727425 	1.64621e-05 	-0.000549458 	0.276499
0.00727425 	1.64621e-05 	-0.000549458 	0.276499
0.00732441 	1.64015e-05 	-0.000549506 	0.276459
0.00732441 	1.64015e-05 	-0.000549506 	0.276459
0.00737458 	1.63042e-05 	-0.000549453 	0.276397
0.00737458 	1.63042e-05 	-0.000549453 	0.276397
0.00742475 	1.62066e-05 	-0.0005494 	0.276334
0.00747492 	1.6109e-05 	-0.000549346 	0.276271
0.00752508 	1.59925e-05 	-0.000549255 	0.276196
0.00752508 	1.59925e-05 	-0.000549255 	0.276196
0.00757525 	1.58571e-05 	-0.000549126 	0.276109
0.00762542 	1.57217e-05 	-0.000548997 	0.276022
0.00767559 	1.5586e-05 	-0.000548867 	0.275935
0.00767559 	1.5586e-05 	-0.000548867 	0.275935
0.00772575 	1.5414e-05 	-0.000548617 	0.275824
0.00777592 	1.52421e-05 	-0.000548367 	0.275713
0.00777592 	1.52421e-05 	-0.000548367 	0.275713
0.00782609 	1.50701e-05 	-0.000548117 	0.275602
0.00787625 	1.48789e-05 	-0.000547814 	0.275478
0.00787625 	1.48789e-05 	-0.000547814 	0.275478
0.00792642 	1.46738e-05 	-0.000547472 	0.275343
0.00797659 	1.44687e-05 	-0.000547131 	0.275209
0.00802676 	1.42573e-05 	-0.000546768 	0.27507
0.00802676 	1.42573e-05 	-0.000546768 	0.27507
0.00807692 	1.40222e-05 	-0.000546327 	0.274913
0.00807692 	1.40222e-05 	-0.000546327 	0.274913
0.00812709 	1.37872e-05 	-0.000545886 	0.274756
0.00817726 	1.35521e-05 	-0.000545445 	0.274598
0.00817726 	1.35521e-05 	-0.000545445 	0.274598
0.00822742 	1.32943e-05 	-0.000544886 	0.274421
0.00827759 	1.30339e-05 	-0.000544314 	0.274241
0.00827759 	1.30339e-05 	-0.000544314 	0.274241
0.00832776 	1.27736e-05 	-0.000543742 	0.274061
0.00832776 	1.27736e-05 	-0.000543742 	0.274061
0.00837793 	1.24996e-05 	-0.000543096 	0.273866
0.00842809 	1.22182e-05 	-0.00054241 	0.273664
0.00842809 	1.22182e-05 	-0.00054241 	0.273664
0.00847826 	1.19368e-05 	-0.000541725 	0.273461
0.00847826 	1.19368e-05 	-0.000541725 	0.273461
0.0085786 	1.13489e-05 	-0.000540191 	0.273024
0.0085786 	1.13489e-05 	-0.000540191 	0.273024
0.00862876 	1.10502e-05 	-0.000539393 	0.272799
0.00867893 	1.07471e-05 	-0.000538561 	0.272567
0.0087291 	1.04345e-05 	-0.000537654 	0.272319
0.00877926 	1.01219e-05 	-0.000536746 	0.272072
0.00882943 	9.80667e-06 	-0.000535814 	0.271819
0.0088796 	9.48304e-06 	-0.000534799 	0.271549
0.0088796 	9.48304e-06 	-0.000534799 	0.271549
0.00892977 	9.15942e-06 	-0.000533784 	0.27128
0.00892977 	9.15942e-06 	-0.000533784 	0.27128
0.00897993 	8.83406e-06 	-0.000532747 	0.271005
0.00897993 	8.83406e-06 	-0.000532747 	0.271005
0.0090301 	8.50206e-06 	-0.000531626 	0.270713
0.00908027 	8.17005e-06 	-0.000530505 	0.27042
0.00908027 	8.17005e-06 	-0.000530505 	0.27042
0.00913043 	7.83663e-06 	-0.000529358 	0.270123
0.0091806 	7.49853e-06 	-0.000528131 	0.269808
0.0091806 	7.49853e-06 	-0.000528131 	0.269808
0.00923077 	7.16043e-06 	-0.000526903 	0.269493
0.00928094 	6.82106e-06 	-0.000525642 	0.26917
0.00928094 	6.82106e-06 	-0.000525642 	0.26917
0.0093311 	6.47886e-06 	-0.000524308 	0.268833
0.00938127 	6.13667e-06 	-0.000522974 	0.268495
0.00938127 	6.13667e-06 	-0.000522974 	0.268495
0.00943144 	5.79343e-06 	-0.000521592 	0.268147
0.00943144 	5.79343e-06 	-0.000521592 	0.268147
0.00948161 	5.44887e-06 	-0.000520151 	0.267785
0.00948161 	5.44887e-06 	-0.000520151 	0.267785
0.00953177 	5.10431e-06 	-0.000518709 	0.267424
0.00953177 	5.10431e-06 	-0.000518709 	0.267424
0.00958194 	4.75921e-06 	-0.0005172 	0.267049
0.00958194 	4.75921e-06 	-0.0005172 	0.267049
0.00963211 	4.41379e-06 	-0.000515648 	0.266664
0.00968227 	4.06836e-06 	-0.000514097 	0.26628
0.00968227 	4.06836e-06 	-0.000514097 	0.26628
0.00973244 	3.7233e-06 	-0.000512452 	0.265875
0.00978261 	3.37832e-06 	-0.000510789 	0.265466
0.00978261 	3.37832e-06 	-0.000510789 	0.265466
0.00983278 	3.03353e-06 	-0.000509112 	0.265055
0.00983278 	3.03353e-06 	-0.000509112 	0.265055
0.00988294 	2.69016e-06 	-0.000507334 	0.264622
0.00993311 	2.34678e-06 	-0.000505555 	0.264189
0.00993311 	2.34678e-06 	-0.000505555 	0.264189
0.00998328 	2.0046e-06 	-0.000503724 	0.263745
0.0100334 	1.66388e-06 	-0.000501826 	0.263288
0.0100836 	1.32316e-06 	-0.000499929 	0.26283
0.0100836 	1.32316e-06 	-0.000499929 	0.26283
0.0101338 	9.85378e-07 	-0.000497929 	0.262352
0.0101839 	6.48223e-07 	-0.000495907 	0.261869
0.0101839 	6.48223e-07 	-0.000495907 	0.261869
0.0102341 	3.12131e-07 	-0.000493854 	0.261379
0.0102341 	3.12131e-07 	-0.000493854 	0.261379
0.0102843 	-2.06562e-08 	-0.000491702 	0.26087
0.0103344 	-3.53443e-07 	-0.000489549 	0.260361
0.0103344 	-3.53443e-07 	-0.000489549 	0.260361
0.0103846 	-6.82636e-07 	-0.0004873 	0.259833
0.0103846 	-6.82636e-07 	-0.0004873 	0.259833
0.0104348 	-1.01035e-06 	-0.000485011 	0.259297
0.0104348 	-1.01035e-06 	-0.000485011 	0.259297
0.0104849 	-1.33682e-06 	-0.00048269 	0.258755
0.0104849 	-1.33682e-06 	-0.00048269 	0.258755
0.0105351 	-1.65883e-06 	-0.000480257 	0.258192
0.0105853 	-1.98083e-06 	-0.000477823 	0.257628
0.0105853 	-1.98083e-06 	-0.000477823 	0.257628
0.0106856 	-2.61374e-06 	-0.000472686 	0.25645
0.0106856 	-2.61374e-06 	-0.000472686 	0.25645
0.0107358 	-2.92698e-06 	-0.00047004 	0.255847
0.010786 	-3.23592e-06 	-0.000467293 	0.255226
0.010786 	-3.23592e-06 	-0.000467293 	0.255226
0.0108361 	-3.54481e-06 	-0.000464545 	0.254604
0.0108863 	-3.84644e-06 	-0.000461628 	0.253951
0.0108863 	-3.84644e-06 	-0.000461628 	0.253951
0.0109365 	-4.14807e-06 	-0.000458712 	0.253299
0.0109365 	-4.14807e-06 	-0.000458712 	0.253299
0.0109866 	-4.44434e-06 	-0.000455673 	0.252625
0.0110368 	-4.73817e-06 	-0.000452579 	0.25194
0.0110368 	-4.73817e-06 	-0.000452579 	0.25194
0.011087 	-5.02861e-06 	-0.000449408 	0.251242
0.011087 	-5.02861e-06 	-0.000449408 	0.251242
0.0111371 	-5.31414e-06 	-0.000446124 	0.250525
0.0111873 	-5.59819e-06 	-0.000442805 	0.249801
0.0111873 	-5.59819e-06 	-0.000442805 	0.249801
0.0112375 	-5.87495e-06 	-0.000439317 	0.249049
0.0112876 	-6.15172e-06 	-0.000435829 	0.248296
0.0112876 	-6.15172e-06 	-0.000435829 	0.248296
0.0113378 	-6.41952e-06 	-0.000432124 	0.247508
0.0113378 	-6.41952e-06 	-0.000432124 	0.247508
0.011388 	-6.68704e-06 	-0.000428413 	0.246719
0.0114381 	-6.94676e-06 	-0.000424499 	0.245898
0.0114381 	-6.94676e-06 	-0.000424499 	0.245898
0.0114883 	-7.20465e-06 	-0.000420538 	0.24507
0.0115385 	-7.45584e-06 	-0.000416378 	0.244212
0.0115385 	-7.45584e-06 	-0.000416378 	0.244212
0.0115886 	-7.70399e-06 	-0.000412127 	0.24334
0.0116388 	-7.9464e-06 	-0.000407674 	0.24244
0.0116388 	-7.9464e-06 	-0.000407674 	0.24244
0.011689 	-8.18502e-06 	-0.000403087 	0.241521
0.0117391 	-8.41856e-06 	-0.000398286 	0.240573
0.0117893 	-8.64801e-06 	-0.000393311 	0.239601
0.0118395 	-8.87256e-06 	-0.000388103 	0.238599
0.0118395 	-8.87256e-06 	-0.000388103 	0.238599
0.0118896 	-9.09297e-06 	-0.000382696 	0.237571
0.0119398 	-9.30803e-06 	-0.000377027 	0.236507
0.0119398 	-9.30803e-06 	-0.000377027 	0.236507
0.01199 	-9.51899e-06 	-0.000371157 	0.235416
0.0120401 	-9.72368e-06 	-0.000364989 	0.234283
0.0120401 	-9.72368e-06 	-0.000364989 	0.234283
0.0120903 	-9.92459e-06 	-0.000358641 	0.233125
0.0120903 	-9.92459e-06 	-0.000358641 	0.233125
0.0121906 	-1.03082e-05 	-0.000345115 	0.230687
0.0121906 	-1.03082e-05 	-0.000345115 	0.230687
0.0122408 	-1.04892e-05 	-0.000337873 	0.229393
0.012291 	-1.06685e-05 	-0.000330554 	0.228087
0.012291 	-1.06685e-05 	-0.000330554 	0.228087
0.0123411 	-1.08362e-05 	-0.00032275 	0.2267
0.0123913 	-1.10015e-05 	-0.000314855 	0.225296
0.0123913 	-1.10015e-05 	-0.000314855 	0.225296
0.0124415 	-1.11571e-05 	-0.000306572 	0.223822
0.0124415 	-1.11571e-05 	-0.000306572 	0.223822
0.0124916 	-1.13074e-05 	-0.000298096 	0.222311
0.0124916 	-1.13074e-05 	-0.000298096 	0.222311
0.0125418 	-1.14503e-05 	-0.000289348 	0.220746
0.012592 	-1.15842e-05 	-0.000280305 	0.219117
0.0126421 	-1.17138e-05 	-0.000271115 	0.217456
0.0126421 	-1.17138e-05 	-0.000271115 	0.217456
0.0126923 	-1.18299e-05 	-0.000261538 	0.215697
0.0127425 	-1.19413e-05 	-0.000251846 	0.213906
0.0127425 	-1.19413e-05 	-0.000251846 	0.213906
0.0127926 	-1.20419e-05 	-0.000241891 	0.212037
0.0128428 	-1.21329e-05 	-0.000231752 	0.210099
0.0128428 	-1.21329e-05 	-0.000231752 	0.210099
0.0129431 	-1.22864e-05 	-0.000211016 	0.206021
0.0129431 	-1.22864e-05 	-0.000211016 	0.206021
0.0129933 	-1.23479e-05 	-0.000200472 	0.203875
0.0130435 	-1.23988e-05 	-0.000189837 	0.201654
0.0130435 	-1.23988e-05 	-0.000189837 	0.201654
0.0131438 	-1.24613e-05 	-0.000168454 	0.196938
0.0131438 	-1.24613e-05 	-0.000168454 	0.196938
0.013194 	-1.24742e-05 	-0.000157776 	0.194453
0.0132441 	-1.24711e-05 	-0.000147184 	0.191857
0.0132441 	-1.24711e-05 	-0.000147184 	0.191857
0.0132943 	-1.2457e-05 	-0.000136674 	0.189185
0.0133445 	-1.24272e-05 	-0.000126307 	0.186405
0.0133445 	-1.24272e-05 	-0.000126307 	0.186405
0.0133946 	-1.23784e-05 	-0.000116172 	0.183493
0.0133946 	-1.23784e-05 	-0.000116172 	0.183493
0.0134448 	-1.2316e-05 	-0.000106225 	0.180486
0.0134448 	-1.2316e-05 	-0.000106225 	0.180486
0.013495 	-1.22385e-05 	-9.64986e-05 	0.177374
0.0135452 	-1.21359e-05 	-8.71897e-05 	0.174084
0.0135452 	-1.21359e-05 	-8.71897e-05 	0.174084
0.0135953 	-1.20167e-05 	-7.81825e-05 	0.170675
0.0135953 	-1.20167e-05 	-7.81825e-05 	0.170675
0.0136455 	-1.188e-05 	-6.95036e-05 	0.167135
0.0136455 	-1.188e-05 	-6.95036e-05 	0.167135
0.0136957 	-1.17213e-05 	-6.12502e-05 	0.16343
0.0136957 	-1.17213e-05 	-6.12502e-05 	0.16343
0.0137458 	-1.15358e-05 	-5.35323e-05 	0.159517
0.013796 	-1.13287e-05 	-4.62543e-05 	0.155431
0.013796 	-1.13287e-05 	-4.62543e-05 	0.155431
0.0138462 	-1.10986e-05 	-3.94465e-05 	0.151159
0.0138462 	-1.10986e-05 	-3.94465e-05 	0.151159
0.0138963 	-1.08441e-05 	-3.314e-05 	0.146686
0.0139465 	-1.0556e-05 	-2.75242e-05 	0.141923
0.0139465 	-1.0556e-05 	-2.75242e-05 	0.141923
0.0139967 	-1.02406e-05 	-2.24593e-05 	0.136914
0.0139967 	-1.02406e-05 	-2.24593e-05 	0.136914
0.0140468 	-9.8974e-06 	-1.79452e-05 	0.131644
0.0140468 	-9.8974e-06 	-1.79452e-05 	0.131644
0.014097 	-9.52563e-06 	-1.39909e-05 	0.126092
0.0141472 	-9.12474e-06 	-1.05967e-05 	0.120234
0.0141472 	-9.12474e-06 	-1.05967e-05 	0.120234
0.0141973 	-8.69466e-06 	-7.74927e-06 	0.114045
0.0142475 	-8.23052e-06 	-5.49154e-06 	0.107423
0.0142977 	-7.73605e-06 	-3.69207e-06 	0.100386
0.0142977 	-7.73605e-06 	-3.69207e-06 	0.100386
0.0143478 	-7.21162e-06 	-2.30655e-06 	0.0929224
0.014398 	-6.65921e-06 	-1.29624e-06 	0.08505
0.014398 	-6.65921e-06 	-1.29624e-06 	0.08505
0.0144482 	-6.08282e-06 	-6.12985e-07 	0.076827
0.0144983 	-5.48816e-06 	-1.97725e-07 	0.0683578
0.0144983 	-5.48816e-06 	-1.97725e-07 	0.0683578
0.0145485 	-4.88192e-06 	1.58074e-08 	0.0597934
0.0145485 	-4.88192e-06 	1.58074e-08 	0.0597934
0.0145987 	-4.27099e-06 	9.43504e-08 	0.0513155
0.0146488 	-3.66196e-06 	9.65583e-08 	0.0431068
0.014699 	-3.0612e-06 	6.59048e-08 	0.0353171
0.014699 	-3.0612e-06 	6.59048e-08 	0.0353171
0.0147492 	-2.47643e-06 	2.86176e-08 	0.0280427
0.0147993 	-1.92089e-06 	-2.32122e-09 	0.0213281
0.0147993 	-1.92089e-06 	-2.32122e-09 	0.0213281
0.0148495 	-1.42339e-06 	-2.50245e-08 	0.015182
0.0148495 	-1.42339e-06 	-2.50245e-08 	0.015182
0.0148997 	-1.0047e-06 	-3.05128e-08 	0.00959377
0.0148997 	-1.0047e-06 	-3.05128e-08 	0.00959377
0.0149498 	-5.85139e-07 	-2.131e-08 	0.00454543
0.0149498 	-5.85139e-07 	-2.131e-08 	0.00454543
0.015 	0 	0 	0
0.015 	0 	0 	0
