/*--------------------------------*- C++ -*----------------------------------*\
| =========                 |                                                 |
| \\      /  F ield         | OpenFOAM: The Open Source CFD Toolbox           |
|  \\    /   O peration     | Version:  v1912                                 |
|   \\  /    A nd           | Website:  www.openfoam.com                      |
|    \\/     M anipulation  |                                                 |
\*---------------------------------------------------------------------------*/
FoamFile
{
    version     2.0;
    format      ascii;
    class       volScalarField;
    location    "97.2";
    object      alphat;
}
// * * * * * * * * * * * * * * * * * * * * * * * * * * * * * * * * * * * * * //

dimensions      [1 -1 -1 0 0 0 0];


internalField   nonuniform List<scalar> 
2000
(
3.09344e-06
2.31501e-05
5.05487e-05
6.49671e-05
6.72463e-05
6.80278e-05
6.72445e-05
6.49684e-05
5.05567e-05
2.31651e-05
1.30679e-05
0.000446773
0.0006976
0.000807559
0.000830439
0.000837604
0.000830423
0.000807559
0.000697642
0.000446887
8.32677e-05
0.00191342
0.00212407
0.00227079
0.00230688
0.00232136
0.00230684
0.00227075
0.0021241
0.0019135
0.000863534
0.00341086
0.00372181
0.00394055
0.00399576
0.00401872
0.00399569
0.00394045
0.00372187
0.00341095
0.00263042
0.00521886
0.00555786
0.00577287
0.00584629
0.00587839
0.00584618
0.00577271
0.00555794
0.00521901
0.00509618
0.00755995
0.00777536
0.00782401
0.00790638
0.00794553
0.00790619
0.00782373
0.00777527
0.00756007
0.00819463
0.0108399
0.00961837
0.00958726
0.00970418
0.00975893
0.00970388
0.00958672
0.00961801
0.0108399
0.0120621
0.0141766
0.0115214
0.0111717
0.0112672
0.0113244
0.0112668
0.011171
0.0115207
0.0141758
0.0168661
0.0169116
0.0137224
0.0132308
0.0133435
0.0133949
0.0133432
0.0132302
0.0137217
0.0169108
0.0211451
0.018964
0.0166357
0.0165878
0.0167776
0.0168166
0.0167776
0.0165878
0.0166357
0.0189633
1.42581e-05
6.8065e-05
9.75411e-05
0.000109925
0.000116723
0.000118838
0.000116725
0.00010993
9.75565e-05
6.80827e-05
6.39981e-05
0.000837938
0.000993043
0.0010678
0.0011191
0.00113282
0.00111911
0.00106783
0.000993131
0.000838055
0.000684456
0.00300184
0.00307315
0.00316319
0.00324999
0.00327507
0.00325002
0.00316325
0.00307323
0.00300192
0.00255765
0.00504677
0.00536405
0.00555826
0.00567687
0.00571704
0.00567693
0.00555836
0.00536418
0.00504696
0.00443941
0.00691777
0.0077945
0.00809146
0.00823955
0.00829437
0.00823963
0.0080916
0.00779476
0.00691815
0.00638786
0.00900127
0.0105703
0.0108943
0.0110641
0.0111282
0.0110642
0.0108945
0.0105707
0.00900185
0.00827884
0.0115743
0.0137387
0.0140984
0.0142983
0.0143653
0.0142985
0.0140987
0.0137392
0.0115751
0.0102519
0.0145377
0.0172749
0.0175935
0.0178384
0.0178898
0.0178387
0.0175941
0.0172755
0.0145386
0.0128765
0.0162171
0.0194004
0.0199631
0.0202051
0.0202479
0.0202055
0.0199639
0.0194011
0.0162179
0.0128985
0.0166328
0.0192232
0.0196272
0.0198005
0.0198344
0.0198009
0.0196279
0.0192236
0.0166335
1.16167e-05
7.40485e-05
9.36883e-05
9.94189e-05
0.000102962
0.000103571
0.000102962
9.94221e-05
9.36979e-05
7.40722e-05
0.000293062
0.00078305
0.000846053
0.000862214
0.000876175
0.000877793
0.000876167
0.000862213
0.000846094
0.000783166
0.00245534
0.00281553
0.0025741
0.00258472
0.00261447
0.00262145
0.00261446
0.0025847
0.00257412
0.00281551
0.00530548
0.00506152
0.00448835
0.00450588
0.00455957
0.00457599
0.00455955
0.00450583
0.00448833
0.00506143
0.00760315
0.00696644
0.0062948
0.00631546
0.00639368
0.00642241
0.00639361
0.00631532
0.00629471
0.00696635
0.00963723
0.00891623
0.0081525
0.00810281
0.00819315
0.00823503
0.008193
0.00810251
0.00815229
0.00891613
0.0117367
0.0114628
0.00991332
0.00980076
0.00987992
0.00993318
0.00987962
0.00980018
0.00991279
0.0114626
0.0142832
0.0148377
0.0116323
0.0111837
0.0112668
0.0113276
0.0112665
0.0111829
0.0116315
0.014837
0.0178098
0.0172284
0.0137578
0.0131673
0.0132612
0.0133204
0.0132609
0.0131667
0.0137571
0.0172275
0.0211801
0.0189516
0.0164969
0.0163496
0.0165486
0.0166034
0.0165486
0.0163497
0.0164967
0.0189511
5.76434e-05
9.10846e-05
0.000104057
0.000113752
0.000120877
0.000123019
0.000120877
0.000113755
0.000104068
9.11031e-05
0.000742209
0.000938468
0.000997884
0.00105547
0.00110008
0.00111309
0.00110007
0.00105549
0.000997934
0.000938568
0.00336972
0.0033603
0.00316562
0.00320719
0.00328467
0.00330605
0.00328467
0.00320723
0.00316564
0.0033603
0.00649213
0.00620103
0.00586819
0.00589804
0.00600961
0.0060439
0.00600967
0.00589815
0.00586819
0.00620106
0.00910995
0.00870789
0.00852626
0.00860647
0.00875238
0.00880274
0.00875249
0.00860666
0.00852634
0.00870807
0.0106312
0.0105979
0.0111304
0.0113176
0.0115002
0.0115648
0.0115003
0.0113178
0.0111306
0.0105983
0.0116283
0.01252
0.0140056
0.0143933
0.0146191
0.0146953
0.0146193
0.0143936
0.014006
0.0125207
0.0124251
0.0148923
0.0174551
0.0179978
0.0181687
0.0182196
0.0181691
0.0179984
0.0174558
0.0148932
0.0127023
0.0165456
0.0196737
0.0202521
0.0204291
0.0204696
0.0204295
0.0202529
0.0196745
0.0165467
0.0120642
0.0166659
0.0192544
0.0197033
0.0198395
0.0198643
0.0198399
0.019704
0.0192549
0.0166666
3.19051e-05
8.3356e-05
9.77817e-05
0.00010046
0.000102494
0.000102463
0.000102492
0.00010046
9.77868e-05
8.33768e-05
0.000455154
0.000747843
0.000839015
0.00085093
0.000861271
0.000861248
0.000861249
0.000850913
0.000839036
0.000747955
0.00285082
0.00258658
0.00251192
0.00251749
0.00253503
0.00253672
0.00253499
0.00251744
0.00251192
0.00258662
0.00642898
0.00507063
0.00460093
0.0045483
0.004575
0.00457896
0.00457494
0.00454821
0.00460087
0.00507053
0.0100416
0.00770418
0.00674684
0.00660767
0.00664685
0.00665884
0.00664675
0.00660749
0.00674665
0.00770386
0.0127229
0.0103604
0.00859543
0.00849162
0.00853712
0.00857041
0.00853694
0.00849126
0.00859508
0.0103598
0.0147656
0.0129656
0.0103037
0.0100174
0.010061
0.010104
0.0100607
0.0100168
0.0103031
0.0129649
0.0169491
0.0155973
0.0119425
0.011345
0.0113797
0.0114275
0.0113794
0.0113442
0.0119416
0.0155965
0.0198824
0.0177669
0.0138626
0.0131351
0.0131894
0.0132371
0.0131891
0.0131345
0.0138618
0.017766
0.021812
0.0191249
0.0164063
0.0162051
0.0163978
0.0164441
0.0163979
0.0162051
0.0164062
0.0191243
0.000101799
9.60604e-05
0.000104791
0.000112774
0.000118911
0.000120897
0.00011891
0.000112774
0.000104798
9.60733e-05
0.00108043
0.000938541
0.000988782
0.00104592
0.00109114
0.0011059
0.00109113
0.00104592
0.000988811
0.000938595
0.003955
0.00321849
0.00311221
0.00317499
0.00325074
0.00327614
0.00325073
0.003175
0.0031122
0.00321842
0.00748504
0.00626332
0.00583812
0.0058571
0.00595724
0.00598958
0.00595726
0.00585716
0.00583805
0.00626315
0.0103961
0.00922512
0.00869663
0.00867534
0.00879739
0.00883597
0.00879747
0.00867548
0.00869658
0.00922509
0.0122657
0.0116408
0.0114923
0.0115326
0.0116829
0.0117319
0.011683
0.0115328
0.0114924
0.0116411
0.0130661
0.0137362
0.0144776
0.0146965
0.0148801
0.0149401
0.0148803
0.0146967
0.0144779
0.0137367
0.0129147
0.0155344
0.0178595
0.0182031
0.018362
0.0184103
0.0183624
0.0182037
0.01786
0.0155354
0.0123645
0.0166942
0.0198955
0.020443
0.0206016
0.0206415
0.0206021
0.0204438
0.0198963
0.0166953
0.0115609
0.0167397
0.0193923
0.0198503
0.0199531
0.0199778
0.0199536
0.0198511
0.0193928
0.0167405
3.40976e-05
9.0294e-05
0.000104923
0.000106545
0.000107826
0.000107674
0.000107823
0.000106543
0.000104925
9.03075e-05
0.000223212
0.00074137
0.000854811
0.000860503
0.000865578
0.000864059
0.000865554
0.000860476
0.000854817
0.000741451
0.00160504
0.00243074
0.00251945
0.00253567
0.00254803
0.00254882
0.00254798
0.00253561
0.00251945
0.00243077
0.00453722
0.00477892
0.00470464
0.00467348
0.00469074
0.00469327
0.00469067
0.00467335
0.00470463
0.00477884
0.00879947
0.00761843
0.00684253
0.00677523
0.00681155
0.00682739
0.00681145
0.00677502
0.00684239
0.00761802
0.0130984
0.0107434
0.00885197
0.0086545
0.00868985
0.0087164
0.00868968
0.00865413
0.0088516
0.0107426
0.0158619
0.0136387
0.0106015
0.0101957
0.0102176
0.0102537
0.0102173
0.0101952
0.0106009
0.013638
0.018204
0.0161264
0.012122
0.0114257
0.0114293
0.0114702
0.0114289
0.011425
0.012121
0.0161255
0.0211878
0.0180704
0.0138285
0.0130421
0.0130794
0.0131219
0.0130791
0.0130415
0.0138276
0.0180695
0.0228799
0.0191781
0.0162265
0.01604
0.0162351
0.0162817
0.0162352
0.01604
0.0162265
0.0191775
0.000121664
8.97641e-05
9.82091e-05
0.000105522
0.000111323
0.000113315
0.000111322
0.000105521
9.82152e-05
8.97759e-05
0.00135663
0.00090937
0.000955842
0.00100778
0.00105169
0.00106701
0.00105168
0.00100777
0.00095588
0.000909438
0.00436749
0.00293399
0.00291848
0.00300306
0.00308092
0.00310985
0.00308091
0.00300306
0.00291852
0.00293399
0.00815319
0.00556964
0.00544456
0.0055334
0.00563985
0.0056785
0.00563986
0.00553344
0.00544459
0.00556961
0.0111994
0.00857555
0.00831595
0.00836271
0.00849497
0.00853905
0.00849503
0.00836281
0.00831594
0.0085756
0.012549
0.0113187
0.0114267
0.0114306
0.0115847
0.0116319
0.0115848
0.0114307
0.0114267
0.0113189
0.0123559
0.0135474
0.0147808
0.0148476
0.0150193
0.0150682
0.0150194
0.0148478
0.0147809
0.0135479
0.011586
0.015439
0.0178913
0.0182167
0.0183939
0.0184366
0.0183942
0.0182173
0.0178918
0.0154397
0.0114039
0.0167848
0.0200188
0.0205427
0.0207096
0.020744
0.0207101
0.0205435
0.0200195
0.0167858
0.0112184
0.0169484
0.0196188
0.0200554
0.0201425
0.0201634
0.020143
0.0200561
0.0196194
0.0169492
4.09116e-05
9.44548e-05
0.0001116
0.00011466
0.000116861
0.00011724
0.000116859
0.000114659
0.000111602
9.44676e-05
0.000170235
0.000751961
0.000891934
0.000902861
0.000906954
0.000906283
0.000906929
0.000902839
0.000891938
0.000752052
0.000729578
0.00244767
0.00270247
0.00272389
0.00274662
0.0027516
0.00274658
0.00272384
0.00270246
0.0024478
0.00242689
0.00479344
0.00482184
0.0048489
0.00489043
0.00490015
0.00489037
0.0048488
0.00482182
0.00479338
0.0066091
0.00769337
0.0069855
0.00693614
0.00698406
0.00700219
0.00698396
0.00693595
0.00698535
0.00769291
0.0107486
0.0107817
0.00892908
0.00874861
0.00878836
0.00881611
0.0087882
0.00874826
0.00892873
0.0107808
0.0137419
0.0135901
0.010531
0.0101594
0.0101828
0.0102206
0.0101825
0.0101588
0.0105304
0.0135893
0.0166569
0.0160358
0.0119224
0.0112911
0.0112985
0.0113426
0.0112981
0.0112904
0.0119215
0.0160347
0.0203955
0.0178337
0.0135921
0.0128935
0.0129442
0.0129905
0.0129439
0.0128928
0.0135913
0.0178328
0.0240707
0.0190099
0.0160859
0.0159511
0.016155
0.0162061
0.016155
0.0159511
0.0160859
0.0190094
6.02092e-05
4.56632e-05
6.0322e-05
7.13953e-05
7.75424e-05
7.9436e-05
7.75412e-05
7.1395e-05
6.03298e-05
4.56801e-05
0.00127284
0.000616569
0.0006577
0.000717806
0.000764783
0.000779995
0.000764776
0.000717797
0.000657734
0.000616657
0.00343836
0.00208913
0.00226666
0.002412
0.00249821
0.00252645
0.00249821
0.00241202
0.00226675
0.00208935
0.00569707
0.00424894
0.00462377
0.0048402
0.00498899
0.00503469
0.004989
0.00484026
0.00462393
0.00424939
0.00953005
0.00747245
0.00770295
0.00780928
0.00799371
0.0080484
0.00799374
0.00780935
0.00770298
0.00747283
0.0118317
0.0105509
0.0109188
0.0109519
0.0111673
0.011227
0.0111674
0.010952
0.0109188
0.0105515
0.0105846
0.0131795
0.0141484
0.0142348
0.0144613
0.0145203
0.0144615
0.0142351
0.0141484
0.0131803
0.00987224
0.0154424
0.0171076
0.0174102
0.0176444
0.0176972
0.0176448
0.0174108
0.017108
0.0154432
0.0103012
0.016842
0.0193225
0.0198758
0.0200996
0.0201412
0.0201001
0.0198767
0.0193232
0.0168427
0.0108425
0.0169746
0.0194025
0.0198872
0.0200057
0.0200287
0.0200062
0.019888
0.0194031
0.0169753
0.0211592
0.019267
0.0188873
0.019443
0.0197047
0.0197287
0.0197051
0.0194436
0.0188881
0.0192667
0.0178873
0.0176254
0.0185263
0.0190563
0.0192174
0.0192091
0.0192179
0.019057
0.0185271
0.0176252
0.014561
0.0148781
0.0159952
0.0164982
0.0166144
0.0166007
0.0166145
0.0164985
0.0159958
0.0148783
0.0118163
0.0124566
0.0132287
0.0136351
0.0137209
0.0137136
0.0137209
0.0136351
0.0132292
0.0124568
0.00956317
0.00994688
0.0103585
0.0106068
0.0106326
0.0106214
0.0106325
0.0106067
0.0103588
0.00994705
0.00710845
0.00717658
0.00730945
0.00744031
0.00743552
0.00742689
0.00743541
0.00744021
0.00730953
0.00717667
0.00437475
0.00424623
0.00422895
0.00428304
0.00426507
0.00425942
0.004265
0.00428295
0.00422892
0.00424625
0.00182704
0.00169397
0.00163831
0.00165347
0.00164172
0.00163904
0.00164169
0.00165342
0.00163826
0.00169396
0.000117189
0.000103336
9.76475e-05
0.000100225
0.000100129
0.000100109
0.000100126
0.000100222
9.76442e-05
0.000103335
8.77961e-06
8.42219e-06
8.2734e-06
8.50873e-06
8.59369e-06
8.61462e-06
8.59361e-06
8.50871e-06
8.27344e-06
8.4223e-06
0.0132255
0.0154119
0.0162708
0.0163364
0.0163879
0.0164097
0.0163879
0.0163365
0.0162707
0.0154122
0.0135509
0.01395
0.0135639
0.0134815
0.0134817
0.0135101
0.0134814
0.0134811
0.0135635
0.0139517
0.0131587
0.0123419
0.0118898
0.0119128
0.0119369
0.0119791
0.0119365
0.0119123
0.0118895
0.0123423
0.0116285
0.0107826
0.0105005
0.0105836
0.0106249
0.0106759
0.0106246
0.0105833
0.0105002
0.010783
0.00945569
0.00878504
0.00869506
0.00880831
0.00884888
0.00889685
0.00884879
0.00880821
0.00869489
0.0087853
0.00678058
0.00643448
0.00647129
0.00659186
0.00663973
0.00668665
0.00663976
0.00659191
0.00647119
0.00643466
0.00391026
0.0037052
0.00380902
0.00391306
0.00395441
0.00399113
0.00395451
0.00391316
0.00380896
0.00370528
0.00165909
0.0016236
0.00168527
0.00173063
0.00175652
0.00177133
0.00175656
0.00173068
0.00168527
0.00162364
0.000104824
9.87441e-05
0.000115215
0.000124853
0.000130932
0.000134184
0.000130944
0.000124868
0.000115216
9.87483e-05
4.75786e-06
4.56777e-06
5.03412e-06
5.4157e-06
5.64951e-06
5.75435e-06
5.64989e-06
5.4162e-06
5.03433e-06
4.5679e-06
0.0211844
0.0191505
0.0188342
0.0193031
0.0195621
0.0195983
0.0195625
0.0193037
0.0188348
0.0191501
0.0182061
0.0173734
0.0183516
0.0189155
0.0191162
0.0191248
0.0191166
0.0189161
0.0183524
0.0173722
0.0145713
0.014728
0.015915
0.0164405
0.0165962
0.0165982
0.0165964
0.0164408
0.0159156
0.0147281
0.0115545
0.0120717
0.012977
0.0133874
0.0135115
0.0135127
0.0135116
0.0133875
0.0129774
0.0120719
0.008886
0.00924597
0.00984681
0.010123
0.010208
0.0102204
0.010208
0.0101229
0.00984703
0.00924603
0.00624506
0.00628294
0.00676941
0.00693341
0.00697205
0.00697105
0.00697195
0.00693332
0.00676949
0.00628295
0.00343371
0.00342788
0.00368577
0.00377005
0.0038099
0.0038211
0.00380988
0.00377007
0.00368574
0.00342787
0.00159528
0.0015532
0.00158275
0.00159148
0.00159957
0.00160028
0.00159952
0.00159143
0.00158271
0.00155317
9.40158e-05
8.80465e-05
9.5468e-05
9.65514e-05
9.87619e-05
9.94916e-05
9.87585e-05
9.65503e-05
9.54626e-05
8.80443e-05
3.04054e-06
2.81e-06
3.15831e-06
3.31762e-06
3.44436e-06
3.50269e-06
3.44442e-06
3.31774e-06
3.15821e-06
2.80996e-06
0.0124515
0.0151642
0.0161772
0.0162291
0.0162508
0.0162648
0.0162508
0.0162292
0.0161771
0.0151646
0.0131193
0.0133182
0.0132303
0.0131812
0.0131994
0.0132304
0.0131991
0.0131808
0.01323
0.0133184
0.0123833
0.0116593
0.0113486
0.0113882
0.011456
0.0115054
0.0114556
0.0113879
0.0113483
0.0116597
0.0105188
0.0098446
0.00970062
0.00979453
0.00989203
0.00994979
0.00989176
0.00979431
0.00970038
0.00984489
0.00814176
0.00779489
0.00793717
0.00806662
0.00817776
0.00822544
0.00817763
0.00806666
0.00793709
0.00779517
0.00553148
0.00536183
0.00555061
0.00565472
0.00575216
0.00578678
0.00575214
0.0056548
0.00555061
0.00536199
0.00346328
0.00342278
0.00352628
0.00358804
0.0036514
0.00367123
0.0036514
0.00358808
0.0035263
0.00342287
0.00178036
0.00178674
0.00181843
0.00184928
0.00187645
0.00188351
0.00187644
0.00184929
0.00181846
0.00178677
0.000121701
0.000124925
0.000137059
0.000144186
0.000151956
0.000153693
0.000151959
0.000144196
0.000137068
0.00012493
3.20538e-06
3.24485e-06
3.71036e-06
3.979e-06
4.24217e-06
4.31925e-06
4.24238e-06
3.97942e-06
3.71064e-06
3.24497e-06
0.0212327
0.0190618
0.0186813
0.0191315
0.0194181
0.0194551
0.0194184
0.0191321
0.0186819
0.0190616
0.0179858
0.01715
0.0180826
0.01868
0.0189324
0.0189481
0.0189328
0.0186806
0.0180834
0.01715
0.014054
0.0143798
0.0156256
0.0161785
0.0163813
0.0163922
0.0163815
0.0161788
0.0156262
0.0143798
0.0110863
0.0116205
0.0123288
0.0126604
0.0127916
0.012813
0.0127917
0.0126606
0.012329
0.0116206
0.00837964
0.00851521
0.00917057
0.00942337
0.00953043
0.00954917
0.00953046
0.00942348
0.00917074
0.00851529
0.00573393
0.00597533
0.00639186
0.0065332
0.00660704
0.00661836
0.006607
0.00653321
0.00639197
0.00597537
0.00365893
0.00381456
0.00396149
0.00402458
0.00406044
0.00406264
0.00406037
0.0040245
0.00396155
0.00381456
0.00180984
0.00185012
0.00187175
0.00189645
0.00190801
0.00190812
0.00190797
0.0018964
0.00187176
0.00185011
0.000116591
0.000116738
0.00011908
0.00012111
0.000123186
0.000123298
0.000123181
0.000121104
0.000119079
0.000116736
2.73385e-06
2.64436e-06
2.82e-06
2.89055e-06
2.98141e-06
3.00446e-06
2.98135e-06
2.89055e-06
2.81997e-06
2.64434e-06
0.0119579
0.0151227
0.0161443
0.0161992
0.0161931
0.016207
0.0161931
0.0161993
0.0161442
0.0151231
0.0126164
0.0130784
0.0130512
0.0130331
0.0130484
0.0130824
0.0130481
0.0130328
0.013051
0.0130787
0.0118813
0.0114194
0.0112168
0.011291
0.0113728
0.011426
0.0113724
0.0112907
0.0112165
0.01142
0.0101616
0.0097785
0.00966176
0.00976724
0.00987977
0.00993727
0.00987946
0.00976698
0.00966161
0.00977881
0.00778949
0.00764125
0.00775706
0.00788248
0.00800811
0.00804891
0.00800799
0.00788245
0.00775705
0.00764148
0.0055861
0.00557047
0.0056396
0.00576186
0.00586162
0.00588579
0.00586155
0.00576185
0.00563966
0.00557065
0.00365837
0.00369571
0.00372062
0.0038162
0.00387873
0.0038927
0.00387869
0.00381618
0.00372068
0.00369582
0.00183391
0.00185774
0.00188175
0.00193288
0.00196334
0.0019714
0.00196334
0.00193288
0.00188178
0.00185777
0.000126623
0.000133497
0.000142467
0.000153792
0.000161633
0.00016336
0.000161636
0.000153797
0.000142477
0.000133502
3.2922e-06
3.46046e-06
3.78594e-06
4.08716e-06
4.33285e-06
4.38738e-06
4.33299e-06
4.08742e-06
3.78626e-06
3.46057e-06
0.0215929
0.0189622
0.0184867
0.0189838
0.0192986
0.0193413
0.019299
0.0189843
0.0184874
0.018962
0.0178648
0.0170342
0.0178927
0.0185475
0.0188339
0.0188577
0.0188343
0.0185481
0.0178935
0.0170342
0.0138263
0.0143085
0.0151926
0.0155094
0.0157011
0.0157275
0.0157012
0.0155097
0.0151929
0.0143083
0.0109062
0.0110428
0.0116033
0.0119447
0.0120889
0.0121032
0.0120889
0.0119448
0.0116035
0.0110429
0.00795447
0.00825728
0.00877882
0.00903964
0.0091351
0.00914132
0.00913508
0.00903966
0.00877902
0.00825739
0.00581968
0.00613853
0.00644694
0.0066084
0.00666083
0.00666437
0.00666077
0.00660831
0.00644704
0.00613858
0.00392158
0.00410365
0.00423249
0.00431903
0.00434318
0.00434685
0.00434311
0.00431892
0.00423251
0.00410365
0.00192376
0.00197699
0.00201474
0.00205006
0.00206061
0.00206395
0.00206057
0.00205
0.00201474
0.00197698
0.000122874
0.000124115
0.000126525
0.00012986
0.000131367
0.000131668
0.000131361
0.000129852
0.000126521
0.000124112
2.66219e-06
2.61419e-06
2.70457e-06
2.79968e-06
2.86769e-06
2.88081e-06
2.86759e-06
2.79956e-06
2.70449e-06
2.61415e-06
0.0116326
0.0152418
0.0162736
0.0163108
0.0162751
0.0162833
0.0162752
0.0163109
0.0162735
0.0152422
0.0121997
0.0130663
0.0130522
0.0129898
0.0129698
0.0129997
0.0129694
0.0129895
0.0130518
0.0130666
0.0116067
0.0113959
0.0113183
0.011378
0.0114395
0.0114967
0.0114391
0.0113777
0.011318
0.0113963
0.0102673
0.010105
0.0100689
0.0102334
0.0103469
0.0104021
0.0103467
0.0102332
0.0100688
0.0101052
0.00816722
0.00815885
0.00824505
0.00839558
0.00851535
0.00855386
0.00851523
0.00839549
0.0082451
0.00815906
0.00618646
0.00627512
0.00631134
0.00645772
0.00655678
0.00658417
0.0065567
0.00645765
0.00631143
0.00627529
0.0040046
0.00408495
0.00409181
0.00420814
0.00427653
0.00429522
0.0042765
0.00420811
0.00409188
0.00408505
0.00185106
0.0018793
0.00189861
0.0019565
0.00199057
0.00200093
0.00199058
0.00195651
0.00189865
0.00187934
0.000128929
0.0001371
0.000144763
0.000156727
0.000164597
0.000166578
0.0001646
0.000156733
0.000144773
0.000137104
3.55915e-06
3.8123e-06
4.11559e-06
4.47423e-06
4.73657e-06
4.80248e-06
4.73669e-06
4.47444e-06
4.11591e-06
3.81238e-06
0.0221452
0.0189402
0.0183917
0.0189361
0.01926
0.0193082
0.0192604
0.0189366
0.0183923
0.01894
0.017981
0.017075
0.0178955
0.0185806
0.018868
0.0188958
0.0188684
0.0185812
0.0178963
0.0170751
0.0138686
0.0144235
0.015198
0.0155435
0.015736
0.0157613
0.015736
0.0155437
0.0151983
0.0144237
0.0109729
0.0113652
0.0118092
0.0121737
0.0123109
0.012318
0.0123109
0.0121737
0.0118096
0.0113653
0.0081591
0.00849085
0.00889582
0.00917339
0.00925257
0.00925034
0.0092525
0.00917335
0.00889604
0.00849098
0.00578344
0.00606083
0.00631078
0.00649318
0.00653141
0.00653338
0.00653133
0.00649309
0.00631085
0.00606092
0.00375677
0.00388596
0.00401635
0.00411264
0.00412632
0.00413249
0.00412625
0.00411255
0.00401634
0.00388599
0.00185241
0.00188781
0.00193824
0.001967
0.00197001
0.00197394
0.00196997
0.00196695
0.00193822
0.0018878
0.000116456
0.000115727
0.000118453
0.000120682
0.000120754
0.000121093
0.000120748
0.000120675
0.000118446
0.000115727
2.33043e-06
2.27165e-06
2.33932e-06
2.46701e-06
2.52664e-06
2.54404e-06
2.52651e-06
2.46688e-06
2.33918e-06
2.27166e-06
0.0113079
0.0153218
0.0164674
0.0165502
0.0165269
0.0165302
0.0165269
0.0165503
0.0164674
0.0153223
0.0124468
0.0139662
0.0138725
0.0136375
0.013542
0.0135509
0.0135417
0.0136372
0.0138721
0.0139666
0.0118626
0.0122262
0.0120436
0.0119581
0.0119355
0.011965
0.0119351
0.0119576
0.0120433
0.0122265
0.0106714
0.010545
0.010487
0.0105699
0.0106561
0.0107032
0.010656
0.0105697
0.0104868
0.0105451
0.00879308
0.0087921
0.00890056
0.00907965
0.00919504
0.0092476
0.00919496
0.00907957
0.00890053
0.00879232
0.00724716
0.00742572
0.00756232
0.00770861
0.00779874
0.00784109
0.00779869
0.00770855
0.00756237
0.0074259
0.00547127
0.00567185
0.00569807
0.00572883
0.00576326
0.00578014
0.00576322
0.00572876
0.00569813
0.00567194
0.00287579
0.00291555
0.00287729
0.00289729
0.00292089
0.00293114
0.0029209
0.0028973
0.00287735
0.00291558
0.000302822
0.000313344
0.000310451
0.000317244
0.000324607
0.000326981
0.00032461
0.000317247
0.000310468
0.000313344
1.22685e-05
1.31667e-05
1.39118e-05
1.44112e-05
1.48415e-05
1.49883e-05
1.48417e-05
1.44115e-05
1.39125e-05
1.31668e-05
)
;

boundaryField
{
    leftWall
    {
        type            compressible::alphatWallFunction;
        Prt             0.85;
        value           uniform 0;
    }
    rightWall
    {
        type            compressible::alphatWallFunction;
        Prt             0.85;
        value           uniform 0;
    }
    leftSides_periodic0
    {
        type            cyclic;
    }
    leftSides_periodic1
    {
        type            cyclic;
    }
    rightSides_periodic0
    {
        type            cyclic;
    }
    rightSides_periodic1
    {
        type            cyclic;
    }
    leftInOut_periodic0
    {
        type            cyclic;
    }
    leftInOut_periodic1
    {
        type            cyclic;
    }
    rightInOut_periodic0
    {
        type            cyclic;
    }
    rightInOut_periodic1
    {
        type            cyclic;
    }
}


// ************************************************************************* //
