/*--------------------------------*- C++ -*----------------------------------*\
| =========                 |                                                 |
| \\      /  F ield         | OpenFOAM: The Open Source CFD Toolbox           |
|  \\    /   O peration     | Version:  v1906                                 |
|   \\  /    A nd           | Web:      www.OpenFOAM.com                      |
|    \\/     M anipulation  |                                                 |
\*---------------------------------------------------------------------------*/
FoamFile
{
    version     2.0;
    format      ascii;
    class       volScalarField;
    location    "37.2";
    object      heatTransferCoeff(T);
}
// * * * * * * * * * * * * * * * * * * * * * * * * * * * * * * * * * * * * * //

dimensions      [1 0 -3 -1 0 0 0];


internalField   uniform 0;

boundaryField
{
    leftWall
    {
        type            calculated;
        value           nonuniform List<scalar> 
100
(
7.2544
-67.9813
24.1479
-152.88
-21.2316
-183.339
-46.0962
-194.017
-80.2959
-186.604
-81.5222
-160.323
-178.859
-214.526
-191.189
-220.87
-195.864
-219.604
-197.812
-191.03
-212.279
-231.076
-251.415
-241.55
-254.248
-239.586
-258.226
-233.964
-262.963
-208.466
-267.726
-259.363
-281.497
-258.206
-281.986
-252.99
-286.193
-243.891
-293.072
-220.477
-280.978
-272.092
-293.268
-270.285
-293.505
-264.795
-297.341
-255.313
-304.296
-233.926
-285.145
-277.024
-296.257
-274.71
-295.992
-269.166
-299.781
-259.659
-307.002
-238.818
-280.991
-272.109
-293.282
-270.301
-293.518
-264.81
-297.353
-255.327
-304.309
-233.939
-267.763
-259.395
-281.531
-258.235
-282.017
-253.016
-286.223
-243.914
-293.103
-220.499
-212.359
-231.14
-251.481
-241.598
-254.306
-239.627
-258.279
-234.002
-263.018
-208.505
-81.6851
-160.393
-179.001
-214.602
-191.321
-220.94
-195.975
-219.667
-197.916
-191.09
)
;
    }
    rightWall
    {
        type            calculated;
        value           nonuniform List<scalar> 
100
(
-570.803
-428.926
-371.617
-377.356
-409.145
-413.823
-408.695
-465.404
-350.207
-736.384
-540.863
-405.006
-338.308
-380.477
-390.541
-428.978
-391.069
-484.788
-325.44
-738.195
-503.592
-439.87
-361.444
-413.907
-379.839
-442.195
-368.061
-493.413
-296.39
-726.119
-490.575
-450.663
-349.925
-416.85
-359.623
-451.329
-352.84
-503.185
-285.912
-706.676
-480.165
-452.96
-348.84
-426.224
-355.616
-458.498
-346.034
-508.359
-278.962
-696.409
-475.917
-455.489
-350.156
-427.358
-352.861
-457.724
-342.294
-507.436
-276.234
-693.014
-480.15
-452.981
-348.842
-426.234
-355.6
-458.498
-346.015
-508.357
-278.945
-696.392
-490.551
-450.688
-349.931
-416.879
-359.604
-451.336
-352.804
-503.184
-285.885
-706.648
-503.57
-439.869
-361.402
-413.924
-379.802
-442.214
-368.018
-493.428
-296.348
-726.093
-540.84
-405.005
-338.28
-380.479
-390.516
-428.977
-391.043
-484.783
-325.429
-738.168
)
;
    }
    leftSides_periodic0
    {
        type            cyclic;
    }
    leftSides_periodic1
    {
        type            cyclic;
    }
    rightSides_periodic0
    {
        type            cyclic;
    }
    rightSides_periodic1
    {
        type            cyclic;
    }
    leftInOut_periodic0
    {
        type            cyclic;
    }
    leftInOut_periodic1
    {
        type            cyclic;
    }
    rightInOut_periodic0
    {
        type            cyclic;
    }
    rightInOut_periodic1
    {
        type            cyclic;
    }
}


// ************************************************************************* //
