/*--------------------------------*- C++ -*----------------------------------*\
| =========                 |                                                 |
| \\      /  F ield         | OpenFOAM: The Open Source CFD Toolbox           |
|  \\    /   O peration     | Version:  v1906                                 |
|   \\  /    A nd           | Web:      www.OpenFOAM.com                      |
|    \\/     M anipulation  |                                                 |
\*---------------------------------------------------------------------------*/
FoamFile
{
    version     2.0;
    format      ascii;
    class       volVectorField;
    location    "37.2";
    object      U;
}
// * * * * * * * * * * * * * * * * * * * * * * * * * * * * * * * * * * * * * //

dimensions      [0 1 -1 0 0 0 0];


internalField   nonuniform List<vector> 
2000
(
(2.9084e-06 0.023064 -0.001268)
(0.00986207 0.00146615 0.0322912)
(-0.00067069 -0.000429251 0.0535246)
(0.000563576 -0.000498325 0.0620407)
(0.000174248 -0.000467311 0.0630443)
(-9.18371e-07 -0.000469691 0.063464)
(-0.00017535 -0.00046732 0.0630444)
(-0.00056437 -0.000498388 0.0620439)
(0.000671871 -0.000429353 0.0535348)
(-0.00985984 0.00146527 0.0323152)
(2.3996e-06 0.0354953 -0.00366658)
(0.0219917 -0.00201314 0.105679)
(0.00594084 -0.000525974 0.146668)
(0.00414912 -0.000909541 0.159734)
(0.001996 -0.000868693 0.161846)
(4.14499e-07 -0.000877258 0.162446)
(-0.0019944 -0.00086876 0.161846)
(-0.00414857 -0.000909739 0.159739)
(-0.00593964 -0.000526222 0.146684)
(-0.0219887 -0.0020126 0.105725)
(2.30038e-06 -0.0224068 0.00974737)
(0.0202238 0.00210569 0.172853)
(0.00769212 -7.81818e-05 0.215343)
(0.00507931 -0.000843916 0.226482)
(0.00248828 -0.000878545 0.22921)
(1.13972e-06 -0.000893306 0.229803)
(-0.00248533 -0.000878567 0.22921)
(-0.00507797 -0.000844149 0.226487)
(-0.00769117 -7.87357e-05 0.21536)
(-0.0202219 0.00210414 0.172901)
(1.81073e-06 0.0438741 0.0450064)
(0.0149899 0.000544934 0.226176)
(0.0072113 0.000146397 0.262819)
(0.00469034 -0.000648381 0.271263)
(0.00231557 -0.000777575 0.274126)
(1.30077e-06 -0.000798869 0.274692)
(-0.00231234 -0.000777549 0.274126)
(-0.00468878 -0.000648614 0.271266)
(-0.0072104 0.000145636 0.262833)
(-0.014989 0.000543733 0.22622)
(1.02747e-06 0.00834552 0.0995404)
(0.0142841 0.0015835 0.263259)
(0.0061894 0.000645506 0.295866)
(0.00403865 -0.000401677 0.302903)
(0.00201671 -0.000634776 0.305751)
(1.20692e-06 -0.000661919 0.306319)
(-0.00201368 -0.000634699 0.305751)
(-0.00403712 -0.000401894 0.302907)
(-0.00618849 0.000644525 0.295878)
(-0.0142835 0.00158183 0.263296)
(2.96343e-07 0.0145841 0.164394)
(0.0121503 0.00244158 0.29025)
(0.00526982 0.000981238 0.318913)
(0.00350486 -0.00017162 0.325951)
(0.0017757 -0.000505669 0.328833)
(1.0164e-06 -0.000537561 0.329441)
(-0.00177305 -0.000505558 0.328833)
(-0.0035034 -0.000171822 0.325954)
(-0.00526886 0.000980153 0.318925)
(-0.01215 0.00243945 0.290281)
(-1.78607e-07 0.0178257 0.223832)
(0.010102 0.00295186 0.309772)
(0.00461933 0.00120019 0.335749)
(0.00313592 1.61913e-05 0.343303)
(0.00161743 -0.000409037 0.346255)
(7.79808e-07 -0.000444764 0.34692)
(-0.00161526 -0.000408928 0.346255)
(-0.00313451 1.59723e-05 0.343307)
(-0.00461825 0.0011991 0.33576)
(-0.0101019 0.00294959 0.309797)
(-3.69475e-07 0.0171974 0.268795)
(0.00849971 0.0031236 0.324208)
(0.0042041 0.00131133 0.348258)
(0.00288298 0.000163524 0.356202)
(0.0015185 -0.000346888 0.359211)
(5.39611e-07 -0.000387953 0.359938)
(-0.00151684 -0.000346836 0.359212)
(-0.00288157 0.000163242 0.356206)
(-0.00420284 0.00131025 0.348269)
(-0.00849961 0.00312145 0.324229)
(-3.96358e-07 0.0147455 0.299349)
(0.00720908 0.00312288 0.335215)
(0.00394194 0.00125387 0.356402)
(0.00269765 0.000215311 0.364144)
(0.00145048 -0.000360653 0.367122)
(3.72661e-07 -0.000411209 0.367908)
(-0.0014492 -0.000360728 0.367122)
(-0.00269623 0.000214904 0.364148)
(-0.00394052 0.0012528 0.356411)
(-0.00720888 0.00312107 0.335232)
(-3.99724e-07 0.0120245 0.319021)
(0.00605257 0.00293881 0.342855)
(0.00376282 0.000969699 0.359428)
(0.00255717 7.76396e-05 0.366165)
(0.00139489 -0.00051264 0.368987)
(3.5738e-07 -0.000576396 0.369821)
(-0.00139374 -0.000512899 0.368987)
(-0.00255574 7.70954e-05 0.366167)
(-0.00376133 0.000968619 0.359435)
(-0.00605231 0.00293719 0.342868)
(1.62474e-06 0.00222016 0.0315512)
(-0.00918382 -0.000225213 0.0641733)
(-0.00664944 -0.000209664 0.0802175)
(-0.00320825 -0.000121433 0.0862491)
(-0.00181722 -0.000146586 0.0891994)
(-8.62664e-07 -0.000140618 0.0901878)
(0.00181624 -0.000146624 0.0892016)
(0.00320751 -0.000121465 0.0862541)
(0.00665066 -0.000209718 0.08023)
(0.00918461 -0.000225114 0.0641889)
(3.30127e-06 -0.00108112 0.0741094)
(-0.0048578 -0.000805128 0.144139)
(-0.00555964 -0.000879013 0.17339)
(-0.00195183 -0.000657238 0.184329)
(-0.00120329 -0.000655391 0.188579)
(1.60218e-07 -0.000647286 0.190023)
(0.00120428 -0.000655473 0.188582)
(0.0019518 -0.00065728 0.184336)
(0.00556026 -0.000879079 0.17341)
(0.0048572 -0.000805068 0.14417)
(3.1129e-06 0.00234112 0.107827)
(-0.0012753 -0.00154335 0.195887)
(-0.00262734 -0.00122051 0.229704)
(-0.000256062 -0.000984735 0.242472)
(-0.000304587 -0.000935433 0.247352)
(1.13229e-06 -0.000926791 0.248981)
(0.00030725 -0.000935484 0.247355)
(0.000257002 -0.000984617 0.242479)
(0.00262758 -0.00122046 0.229726)
(0.00127437 -0.00154347 0.195924)
(1.97847e-06 -0.000569517 0.141035)
(0.000624636 -0.00218576 0.235836)
(-0.00105793 -0.00144742 0.268608)
(0.000530305 -0.0011985 0.28119)
(0.00012879 -0.00109766 0.286457)
(1.62662e-06 -0.00109069 0.288164)
(-0.000125302 -0.00109762 0.286459)
(-0.000528777 -0.00119824 0.281197)
(0.00105809 -0.00144716 0.268629)
(-0.000625519 -0.00218595 0.235872)
(8.85683e-07 -0.00246545 0.180477)
(0.0015538 -0.00246222 0.269726)
(-0.000474589 -0.00149863 0.298549)
(0.000752351 -0.00134426 0.310283)
(0.000269461 -0.00119697 0.315752)
(1.78377e-06 -0.00118855 0.317487)
(-0.000265723 -0.0011968 0.315754)
(-0.00075052 -0.00134384 0.310289)
(0.000474848 -0.00149816 0.298568)
(-0.00155449 -0.00246238 0.269759)
(4.40451e-08 -0.0025128 0.224982)
(0.00143503 -0.00262797 0.298133)
(-0.000370145 -0.00149741 0.321955)
(0.000734285 -0.00145051 0.333057)
(0.000284384 -0.00126935 0.338651)
(1.74053e-06 -0.00125395 0.340408)
(-0.000280723 -0.00126902 0.338653)
(-0.000732305 -0.00144986 0.333063)
(0.000370608 -0.00149679 0.321973)
(-0.00143552 -0.00262801 0.298161)
(-5.04964e-07 -0.00210252 0.269427)
(0.00103318 -0.00279869 0.320851)
(-0.000381417 -0.00149905 0.340383)
(0.000657036 -0.00154036 0.351115)
(0.000268984 -0.00133481 0.356792)
(1.58022e-06 -0.00130772 0.35858)
(-0.000265585 -0.00133434 0.356794)
(-0.000654972 -0.00153952 0.351122)
(0.00038219 -0.00149825 0.340399)
(-0.0010335 -0.00279837 0.320874)
(-8.01578e-07 -0.00187374 0.306993)
(0.000878517 -0.00293433 0.338538)
(-0.000352832 -0.00152051 0.354897)
(0.000589374 -0.00160864 0.365341)
(0.000260063 -0.00139026 0.371065)
(1.34572e-06 -0.00134839 0.372895)
(-0.000257041 -0.00138969 0.371067)
(-0.000587245 -0.00160768 0.365349)
(0.000354056 -0.00151942 0.354913)
(-0.000878589 -0.00293343 0.338558)
(-9.75309e-07 -0.00149884 0.333994)
(0.00094226 -0.00296842 0.352371)
(-0.000257093 -0.00153508 0.366285)
(0.000546544 -0.00163358 0.376373)
(0.000264464 -0.00142104 0.382117)
(1.05035e-06 -0.00136561 0.383991)
(-0.000261907 -0.00142047 0.38212)
(-0.000544346 -0.00163263 0.376381)
(0.000258933 -0.00153368 0.3663)
(-0.000941994 -0.00296643 0.352389)
(-1.28971e-06 -0.00107224 0.351827)
(0.00107252 -0.00286731 0.36276)
(-9.8706e-05 -0.00152272 0.374736)
(0.000531465 -0.00161386 0.384436)
(0.000282808 -0.00142438 0.390196)
(7.1761e-07 -0.00136329 0.392104)
(-0.000280764 -0.00142391 0.3902)
(-0.000529201 -0.00161308 0.384445)
(0.00010139 -0.00152152 0.374751)
(-0.00107197 -0.00286332 0.362775)
(2.04064e-06 7.9052e-05 0.0251897)
(-0.00594085 -9.30358e-05 0.0702713)
(-0.00283155 -4.49535e-06 0.0804012)
(-0.00193677 1.19426e-05 0.0829808)
(-0.00116215 3.78271e-06 0.0845666)
(-8.07867e-07 1.26876e-05 0.0848768)
(0.00116129 3.78029e-06 0.0845674)
(0.00193599 1.19147e-05 0.0829831)
(0.00283254 -4.51885e-06 0.0804074)
(0.00594242 -9.30898e-05 0.0702885)
(4.00809e-06 -2.20457e-05 0.0677835)
(-0.00930129 -0.000447987 0.159819)
(-0.00505526 -0.000337359 0.177729)
(-0.00286961 -0.00017903 0.18194)
(-0.00173992 -0.000182823 0.183913)
(-7.07726e-07 -0.000171062 0.184325)
(0.00173981 -0.000182848 0.183913)
(0.00286878 -0.000179117 0.181943)
(0.00505647 -0.000337385 0.177738)
(0.00930207 -0.000448219 0.159849)
(3.7896e-06 -5.93382e-06 0.101294)
(-0.00783249 -0.000984768 0.210129)
(-0.00457562 -0.000726846 0.23552)
(-0.00237079 -0.000426895 0.241338)
(-0.00148329 -0.000390639 0.243501)
(-2.59518e-07 -0.00037989 0.24402)
(0.00148416 -0.000390665 0.243501)
(0.00237038 -0.00042697 0.24134)
(0.00457671 -0.000726791 0.235531)
(0.00783291 -0.000985222 0.210166)
(2.98844e-06 -0.00122814 0.131142)
(-0.00589453 -0.00133416 0.243376)
(-0.0037027 -0.00103941 0.27317)
(-0.00180884 -0.000637018 0.279902)
(-0.00117488 -0.000552367 0.282259)
(5.56974e-08 -0.000545426 0.282857)
(0.00117633 -0.000552378 0.282259)
(0.00180881 -0.000637052 0.279905)
(0.00370371 -0.00103929 0.273182)
(0.00589499 -0.00133482 0.243414)
(2.17331e-06 -0.00170825 0.16345)
(-0.00440582 -0.0016063 0.270788)
(-0.00306194 -0.00126395 0.301315)
(-0.00144946 -0.000819958 0.308443)
(-0.000973185 -0.00068348 0.310961)
(1.79499e-07 -0.000680192 0.311611)
(0.000974816 -0.000683467 0.310961)
(0.00144967 -0.000819932 0.308446)
(0.00306298 -0.00126379 0.301326)
(0.00440657 -0.00160714 0.270823)
(1.44137e-06 -0.00233165 0.20015)
(-0.00347964 -0.00179113 0.294332)
(-0.00269231 -0.00141132 0.32301)
(-0.00125699 -0.000982131 0.330437)
(-0.000863234 -0.000793933 0.333102)
(1.49722e-07 -0.000791397 0.333794)
(0.000864756 -0.000793899 0.333102)
(0.00125734 -0.000982041 0.33044)
(0.00269343 -0.00141118 0.323021)
(0.00348071 -0.00179215 0.294363)
(8.65719e-07 -0.00259558 0.238749)
(-0.00289759 -0.00192212 0.313345)
(-0.00245597 -0.00151282 0.339512)
(-0.00113322 -0.00113436 0.347263)
(-0.000793001 -0.000896334 0.350074)
(2.2946e-08 -0.000889006 0.350809)
(0.000794242 -0.000896292 0.350074)
(0.00113365 -0.00113423 0.347266)
(0.00245721 -0.00151272 0.339523)
(0.00289886 -0.00192325 0.31337)
(4.80219e-07 -0.00250382 0.274394)
(-0.00235492 -0.0020306 0.327778)
(-0.0022193 -0.00158692 0.35164)
(-0.00100177 -0.00127378 0.359657)
(-0.000720444 -0.000991095 0.36256)
(-1.40099e-07 -0.000971642 0.363342)
(0.000721339 -0.000991075 0.362561)
(0.00100225 -0.00127368 0.359661)
(0.00222068 -0.0015869 0.35165)
(0.00235632 -0.00203171 0.327798)
(2.48158e-07 -0.00218085 0.302633)
(-0.00175124 -0.00211527 0.338591)
(-0.00192146 -0.001614 0.3594)
(-0.000835672 -0.00136975 0.367188)
(-0.000627859 -0.00105652 0.370081)
(-2.63235e-07 -0.00101718 0.370908)
(0.000628474 -0.00105657 0.370081)
(0.000836222 -0.00136978 0.367191)
(0.00192296 -0.00161405 0.359408)
(0.00175274 -0.00211636 0.338607)
(1.11916e-07 -0.00180154 0.322331)
(-0.00111393 -0.00214915 0.345915)
(-0.00156128 -0.00157611 0.362182)
(-0.000646492 -0.0013813 0.368951)
(-0.000518444 -0.00106586 0.37171)
(-2.60417e-07 -0.0010035 0.372572)
(0.000518988 -0.00106602 0.37171)
(0.000647118 -0.00138153 0.368952)
(0.00156282 -0.00157621 0.362188)
(0.00111547 -0.00214999 0.345926)
(1.69807e-06 1.89826e-05 0.0597946)
(-0.00210486 -2.16095e-05 0.0773717)
(-0.000607711 5.28997e-06 0.0837078)
(-0.000799004 -3.71241e-06 0.0880218)
(-0.000474081 -1.00319e-05 0.0911399)
(-2.9376e-07 -4.38615e-06 0.0920945)
(0.000473699 -1.00259e-05 0.0911413)
(0.000798442 -3.72214e-06 0.0880256)
(0.000608061 5.26129e-06 0.083716)
(0.00210636 -2.1685e-05 0.0773859)
(2.50632e-06 -0.000152995 0.13661)
(-0.00434238 -0.00021988 0.17047)
(-0.00191809 -0.000151354 0.182992)
(-0.00146029 -0.000102568 0.190121)
(-0.000921209 -0.000116483 0.194649)
(1.07125e-08 -0.000107946 0.196097)
(0.000921553 -0.000116447 0.194651)
(0.00145993 -0.000102584 0.190126)
(0.00191876 -0.000151405 0.183005)
(0.00434373 -0.000220099 0.170494)
(2.1094e-06 -0.000595938 0.178443)
(-0.00401187 -0.000513237 0.220489)
(-0.00196208 -0.000401359 0.239199)
(-0.00123307 -0.000278462 0.248177)
(-0.000824612 -0.000279485 0.253164)
(5.15149e-07 -0.000275789 0.254849)
(0.000825899 -0.000279398 0.253166)
(0.00123328 -0.000278438 0.248183)
(0.00196276 -0.000401356 0.239214)
(0.0040126 -0.000513522 0.220518)
(1.57046e-06 -0.00121511 0.206653)
(-0.00311892 -0.000784479 0.252312)
(-0.00154229 -0.00062865 0.274739)
(-0.000832552 -0.000441034 0.284883)
(-0.000602166 -0.000418832 0.29016)
(9.0136e-07 -0.000422773 0.291969)
(0.000604127 -0.000418677 0.290162)
(0.000833244 -0.000440931 0.284889)
(0.00154293 -0.000628556 0.274756)
(0.00311928 -0.000784783 0.252342)
(1.09526e-06 -0.00181894 0.232379)
(-0.00231761 -0.00103801 0.278237)
(-0.00113023 -0.000819803 0.301675)
(-0.000521381 -0.00058107 0.312319)
(-0.000418843 -0.000528589 0.317795)
(1.11721e-06 -0.000540811 0.319657)
(0.000421163 -0.000528353 0.317797)
(0.000522402 -0.000580851 0.312324)
(0.00113089 -0.000819593 0.301692)
(0.0023179 -0.00103831 0.278266)
(7.1804e-07 -0.00240021 0.259375)
(-0.00175635 -0.00123089 0.301728)
(-0.000871062 -0.000964483 0.323732)
(-0.000349425 -0.000695307 0.334463)
(-0.000310875 -0.000607436 0.340082)
(1.16897e-06 -0.000627191 0.34197)
(0.000313267 -0.000607114 0.340084)
(0.000350629 -0.00069495 0.334469)
(0.000871838 -0.000964154 0.323748)
(0.00175682 -0.00123118 0.301754)
(4.78341e-07 -0.00274086 0.287817)
(-0.00142474 -0.00135749 0.32266)
(-0.0007591 -0.00107143 0.34175)
(-0.000285426 -0.000795782 0.352319)
(-0.000265024 -0.000669708 0.358043)
(1.08294e-06 -0.000694819 0.359952)
(0.000267256 -0.00066931 0.358045)
(0.000286698 -0.000795285 0.352325)
(0.000760074 -0.00107099 0.341765)
(0.00142553 -0.0013578 0.322682)
(4.07906e-07 -0.00275891 0.314919)
(-0.00120298 -0.00145456 0.339796)
(-0.000720007 -0.00116203 0.355931)
(-0.000270522 -0.000895419 0.366231)
(-0.000250137 -0.00073274 0.372055)
(8.98783e-07 -0.000759371 0.373996)
(0.000252053 -0.000732293 0.372058)
(0.000271786 -0.000894818 0.366238)
(0.000721239 -0.00116151 0.355945)
(0.00120415 -0.00145487 0.339815)
(4.83569e-07 -0.00256585 0.337245)
(-0.000976587 -0.00155278 0.353028)
(-0.000685667 -0.00124065 0.366838)
(-0.000260404 -0.000999871 0.376869)
(-0.000241582 -0.000806619 0.382779)
(6.53583e-07 -0.000829845 0.384758)
(0.00024309 -0.000806164 0.382782)
(0.000261609 -0.000999231 0.376876)
(0.000687186 -0.0012401 0.366852)
(0.000978163 -0.00155307 0.353044)
(6.00245e-07 -0.00233725 0.353084)
(-0.00071347 -0.00165703 0.362639)
(-0.000625752 -0.00130086 0.374826)
(-0.000236728 -0.00109923 0.384597)
(-0.000228808 -0.000887735 0.390574)
(3.87887e-07 -0.00090343 0.392585)
(0.000229885 -0.000887329 0.390578)
(0.000237845 -0.00109865 0.384606)
(0.000627541 -0.00130032 0.37484)
(0.00071541 -0.00165734 0.362652)
(1.42388e-06 -3.05287e-05 0.0456553)
(-0.00195413 -1.89446e-05 0.0762972)
(-0.000267147 1.52688e-06 0.0827227)
(-0.000545127 5.09981e-07 0.0834837)
(-0.000205437 4.07327e-06 0.0842437)
(-2.08818e-07 9.24579e-06 0.0841872)
(0.000205422 4.0759e-06 0.084243)
(0.000544834 5.18305e-07 0.0834843)
(0.000267374 1.53985e-06 0.0827256)
(0.00195496 -1.89614e-05 0.0763116)
(2.98377e-06 -0.000188303 0.11306)
(-0.00487125 -0.000102516 0.172686)
(-0.00146156 -9.031e-05 0.183438)
(-0.00146811 -9.63108e-06 0.184587)
(-0.000740262 -6.84452e-06 0.185738)
(-4.01188e-07 9.49882e-06 0.185735)
(0.00074041 -6.82677e-06 0.185737)
(0.00146754 -9.61383e-06 0.184587)
(0.00146239 -9.028e-05 0.183442)
(0.00487262 -0.000102673 0.172709)
(3.1581e-06 -0.00035556 0.153511)
(-0.00564016 -0.000222884 0.225976)
(-0.00221898 -0.000275623 0.242619)
(-0.00185811 -7.20232e-05 0.245157)
(-0.0010056 -6.72301e-05 0.246681)
(-4.02118e-07 -4.66776e-05 0.246894)
(0.001006 -6.71968e-05 0.24668)
(0.00185756 -7.20105e-05 0.245158)
(0.00222015 -0.000275574 0.242625)
(0.00564178 -0.000223217 0.226004)
(2.85073e-06 -0.00054495 0.180255)
(-0.00522195 -0.000355318 0.257106)
(-0.00240225 -0.000495443 0.27888)
(-0.00186061 -0.00017119 0.282951)
(-0.00103844 -0.00015949 0.284781)
(-3.27997e-07 -0.000139825 0.285186)
(0.00103906 -0.000159445 0.284781)
(0.00186021 -0.000171185 0.282953)
(0.00240357 -0.000495387 0.278887)
(0.00522371 -0.000355824 0.257136)
(2.40767e-06 -0.000796368 0.20366)
(-0.0043955 -0.000498017 0.279659)
(-0.0022729 -0.000713055 0.304463)
(-0.00169462 -0.000290564 0.309835)
(-0.000965656 -0.000265765 0.311902)
(-2.60953e-07 -0.000250168 0.312438)
(0.000966388 -0.000265713 0.311901)
(0.0016944 -0.000290571 0.309837)
(0.0022743 -0.000713006 0.304472)
(0.00439734 -0.000498673 0.279688)
(1.91853e-06 -0.00106283 0.227796)
(-0.00351501 -0.000610449 0.298538)
(-0.00202407 -0.000897891 0.324332)
(-0.00148442 -0.000414224 0.330565)
(-0.00086376 -0.000369375 0.332822)
(-2.42692e-07 -0.000359838 0.333433)
(0.000864474 -0.000369327 0.332821)
(0.00148437 -0.000414253 0.330567)
(0.00202556 -0.000897865 0.324341)
(0.00351693 -0.000611241 0.298565)
(1.439e-06 -0.00125872 0.254063)
(-0.00274585 -0.000672465 0.315034)
(-0.00176486 -0.00102841 0.340082)
(-0.00128619 -0.000532536 0.346871)
(-0.000768958 -0.000460838 0.349291)
(-2.83926e-07 -0.000458141 0.349952)
(0.00076953 -0.000460816 0.349291)
(0.00128628 -0.00053261 0.346873)
(0.00176644 -0.00102843 0.340092)
(0.00274784 -0.000673371 0.315058)
(1.03426e-06 -0.00128197 0.281056)
(-0.00211748 -0.000693189 0.328816)
(-0.0015308 -0.00110575 0.351822)
(-0.00110584 -0.000645535 0.358955)
(-0.00068778 -0.000540901 0.361503)
(-3.59668e-07 -0.000544005 0.362213)
(0.000688139 -0.000540939 0.361503)
(0.00110602 -0.000645691 0.358957)
(0.00153246 -0.00110583 0.351831)
(0.00211952 -0.000694176 0.328835)
(7.45672e-07 -0.00111554 0.305091)
(-0.0015743 -0.000692938 0.339327)
(-0.00130866 -0.00113334 0.359097)
(-0.000927472 -0.000746394 0.36607)
(-0.000611991 -0.000607425 0.368655)
(-4.06576e-07 -0.000613199 0.369412)
(0.000612178 -0.000607563 0.368655)
(0.000927731 -0.000746674 0.366072)
(0.00131034 -0.00113347 0.359104)
(0.00157634 -0.000693953 0.339342)
(5.43873e-07 -0.000852085 0.323207)
(-0.00106323 -0.000686794 0.345999)
(-0.00108015 -0.00110581 0.361234)
(-0.000745449 -0.000810563 0.367293)
(-0.000535273 -0.000644939 0.369778)
(-3.46902e-07 -0.000647259 0.370568)
(0.000535466 -0.000645192 0.369777)
(0.000745778 -0.000810983 0.367294)
(0.00108177 -0.00110598 0.361239)
(0.0010652 -0.000687781 0.346009)
(1.09662e-06 4.30242e-05 0.0816109)
(-0.00048317 1.36856e-05 0.0800547)
(-0.000255067 2.48277e-07 0.0841856)
(-0.000419195 -1.70605e-05 0.0876278)
(-0.000154549 -1.86796e-05 0.0902683)
(4.10962e-08 -2.14172e-05 0.0911225)
(0.000154696 -1.86857e-05 0.0902691)
(0.000419141 -1.70578e-05 0.0876302)
(0.000254985 2.36715e-07 0.0841916)
(0.000483931 1.36834e-05 0.0800651)
(1.84163e-06 -8.74124e-05 0.173743)
(-0.00124309 -5.90472e-05 0.176237)
(-0.000329863 -9.21173e-05 0.183999)
(-0.000587268 -0.000107193 0.189263)
(-0.00022323 -0.000115582 0.193121)
(3.38266e-07 -0.000118455 0.194332)
(0.000223939 -0.000115579 0.193122)
(0.00058744 -0.000107151 0.189267)
(0.000329874 -9.21354e-05 0.184008)
(0.00124418 -5.90652e-05 0.176255)
(1.66777e-06 -0.000375178 0.218834)
(-0.00147111 -0.000198028 0.229866)
(-0.000283028 -0.000232155 0.241609)
(-0.000493995 -0.000204066 0.248004)
(-0.00019233 -0.000216962 0.252358)
(6.66788e-07 -0.000218697 0.253742)
(0.000193651 -0.000216926 0.252359)
(0.000494557 -0.000203954 0.248008)
(0.000283195 -0.000232148 0.24162)
(0.00147195 -0.000198056 0.229889)
(1.38732e-06 -0.000704726 0.245997)
(-0.00144842 -0.000347736 0.262648)
(-0.000241609 -0.000373169 0.277812)
(-0.000373633 -0.000284931 0.285333)
(-0.000142387 -0.000298243 0.290046)
(9.05782e-07 -0.000298789 0.291575)
(0.000144157 -0.000298158 0.290047)
(0.000374528 -0.000284726 0.285338)
(0.00024191 -0.000373106 0.277825)
(0.00144902 -0.000347772 0.262673)
(1.14005e-06 -0.00104105 0.267653)
(-0.00133227 -0.000497078 0.287093)
(-0.000206888 -0.000512896 0.304293)
(-0.000274251 -0.000353249 0.312779)
(-9.4861e-05 -0.000361444 0.317755)
(1.04815e-06 -0.000360377 0.319395)
(9.69041e-05 -0.000361295 0.317756)
(0.000275387 -0.000352929 0.312783)
(0.000207318 -0.000512752 0.304307)
(0.00133277 -0.000497129 0.287117)
(9.35512e-07 -0.00135472 0.287789)
(-0.00115905 -0.000624869 0.307782)
(-0.000173653 -0.000637761 0.325425)
(-0.000203298 -0.000406743 0.334534)
(-5.79288e-05 -0.00040479 0.339704)
(1.09581e-06 -0.000401724 0.34142)
(6.00756e-05 -0.000404555 0.339706)
(0.000204587 -0.000406298 0.334539)
(0.000174237 -0.000637521 0.325439)
(0.0011596 -0.000624936 0.307805)
(7.88526e-07 -0.00158556 0.307501)
(-0.000958285 -0.000714678 0.325993)
(-0.000147068 -0.000743278 0.342679)
(-0.000159857 -0.000447975 0.352031)
(-3.59356e-05 -0.000431455 0.357349)
(1.05272e-06 -0.000426268 0.359113)
(3.80259e-05 -0.000431119 0.357351)
(0.000161217 -0.000447411 0.352037)
(0.000147848 -0.00074294 0.342692)
(0.000959043 -0.00071476 0.326014)
(7.19537e-07 -0.00169301 0.326374)
(-0.000765469 -0.000769119 0.341579)
(-0.000132481 -0.000822248 0.356364)
(-0.000136399 -0.000482497 0.365744)
(-2.78764e-05 -0.000448767 0.371199)
(9.31996e-07 -0.000442213 0.373007)
(2.97743e-05 -0.000448332 0.371201)
(0.000137761 -0.00048185 0.365751)
(0.000133494 -0.000821835 0.356377)
(0.000766528 -0.000769221 0.341596)
(7.24862e-07 -0.00168522 0.342998)
(-0.00059125 -0.000802501 0.354144)
(-0.000123518 -0.000875198 0.366903)
(-0.000120013 -0.000514946 0.376198)
(-2.7928e-05 -0.000463526 0.381784)
(7.53205e-07 -0.000457102 0.383637)
(2.95321e-05 -0.000463027 0.381786)
(0.000121325 -0.000514277 0.376205)
(0.000124783 -0.000874746 0.366916)
(0.000592642 -0.000802623 0.354158)
(7.44006e-07 -0.00160585 0.355633)
(-0.00042428 -0.000822345 0.363219)
(-0.000106284 -0.000901083 0.374495)
(-9.8711e-05 -0.000550204 0.383667)
(-3.0241e-05 -0.000484953 0.389374)
(5.4084e-07 -0.000480564 0.391266)
(3.14929e-05 -0.000484455 0.389378)
(9.9939e-05 -0.000549606 0.383674)
(0.000107796 -0.000900647 0.374507)
(0.000425958 -0.000822501 0.363232)
(4.62657e-07 -5.62793e-05 0.0506388)
(-0.00120483 -1.55222e-05 0.0803259)
(-3.9406e-05 8.4402e-06 0.0862547)
(-0.000242694 2.24186e-05 0.0864765)
(-5.38005e-05 2.91051e-05 0.0868743)
(2.78001e-08 3.34859e-05 0.0867732)
(5.42603e-05 2.91169e-05 0.0868733)
(0.000242828 2.24369e-05 0.0864756)
(3.96709e-05 8.46714e-06 0.086255)
(0.00120496 -1.55192e-05 0.0803342)
(2.00737e-06 7.06982e-05 0.129411)
(-0.00350627 2.59032e-06 0.18073)
(-0.00122703 -9.80208e-08 0.189319)
(-0.00124523 6.79957e-05 0.189348)
(-0.000570991 7.55003e-05 0.189873)
(-3.00468e-07 8.84663e-05 0.189739)
(0.000571389 7.55266e-05 0.189872)
(0.00124502 6.80485e-05 0.189347)
(0.00122776 -2.59799e-08 0.189319)
(0.00350735 2.60118e-06 0.180743)
(2.9317e-06 0.000192608 0.177524)
(-0.00449888 -4.71305e-06 0.235373)
(-0.00206218 -0.000104123 0.248287)
(-0.00181608 3.93083e-05 0.249413)
(-0.000896213 4.31322e-05 0.250299)
(-5.11149e-07 6.02188e-05 0.250313)
(0.000896473 4.31565e-05 0.250298)
(0.00181561 3.93723e-05 0.249412)
(0.00206322 -0.000104058 0.248289)
(0.00450081 -4.88227e-06 0.235392)
(2.97539e-06 0.000284362 0.204249)
(-0.00442097 -6.76094e-05 0.265837)
(-0.00233035 -0.00026929 0.283242)
(-0.00194499 -4.68076e-05 0.285844)
(-0.000990925 -4.81478e-05 0.287109)
(-5.67362e-07 -2.71741e-05 0.287297)
(0.000991158 -4.81259e-05 0.287108)
(0.00194448 -4.67512e-05 0.285844)
(0.00233159 -0.000269268 0.283247)
(0.00442335 -6.79749e-05 0.265859)
(2.66753e-06 0.000138261 0.224369)
(-0.00384955 -0.000166192 0.286587)
(-0.00228216 -0.000461678 0.307512)
(-0.00185366 -0.000170529 0.311456)
(-0.000964602 -0.000174743 0.313031)
(-5.60469e-07 -0.000150476 0.313361)
(0.000964843 -0.000174727 0.31303)
(0.00185325 -0.000170497 0.311457)
(0.00228355 -0.000461717 0.307519)
(0.00385209 -0.0001667 0.28661)
(2.26059e-06 -4.0345e-05 0.243704)
(-0.00316621 -0.000273443 0.303294)
(-0.00209382 -0.000644865 0.326339)
(-0.00167643 -0.00030457 0.331344)
(-0.000888521 -0.000306747 0.333166)
(-5.53023e-07 -0.000282755 0.333598)
(0.000888734 -0.000306752 0.333165)
(0.00167616 -0.000304583 0.331345)
(0.00209533 -0.000644976 0.326346)
(0.00316875 -0.000274082 0.303317)
(1.83073e-06 -0.000246162 0.264685)
(-0.00253439 -0.000356949 0.317948)
(-0.00186481 -0.000794182 0.341355)
(-0.00148324 -0.000434937 0.347135)
(-0.000801567 -0.000429604 0.349158)
(-5.73215e-07 -0.000407231 0.349666)
(0.000801683 -0.000429646 0.349158)
(0.00148311 -0.000435025 0.347137)
(0.0018664 -0.000794375 0.341363)
(0.00253689 -0.000357698 0.317969)
(1.41913e-06 -0.000388639 0.287473)
(-0.00198815 -0.000402692 0.330721)
(-0.00163931 -0.000906017 0.352633)
(-0.00130081 -0.00055914 0.358873)
(-0.000720285 -0.000540304 0.36104)
(-6.085e-07 -0.000519017 0.361609)
(0.000720264 -0.000540404 0.361039)
(0.00130079 -0.00055934 0.358874)
(0.00164094 -0.000906292 0.35264)
(0.00199059 -0.000403514 0.330738)
(1.07892e-06 -0.000396432 0.309079)
(-0.00151109 -0.000424536 0.340848)
(-0.00142341 -0.000972223 0.359547)
(-0.00112907 -0.000661285 0.365691)
(-0.000646441 -0.00062408 0.367898)
(-6.00102e-07 -0.000601248 0.36852)
(0.000646342 -0.00062426 0.367897)
(0.00112914 -0.000661629 0.365692)
(0.00142502 -0.000972558 0.359553)
(0.00151344 -0.000425378 0.340861)
(8.22351e-07 -0.000309594 0.325775)
(-0.00107993 -0.000445886 0.347145)
(-0.00121394 -0.000985443 0.361256)
(-0.000965118 -0.000708843 0.366554)
(-0.000578313 -0.00065017 0.368665)
(-4.79134e-07 -0.000621098 0.369323)
(0.000578318 -0.000650436 0.368664)
(0.000965262 -0.000709323 0.366554)
(0.00121543 -0.000985775 0.36126)
(0.00108216 -0.000446692 0.347154)
(7.66764e-07 3.63677e-05 0.0866981)
(0.000465421 4.37397e-05 0.0763971)
(0.000456171 4.7259e-06 0.0808008)
(0.00037964 -1.13583e-05 0.0841653)
(0.000310308 -1.5281e-05 0.0867612)
(3.40279e-07 -2.13755e-05 0.0876325)
(-0.000309894 -1.52838e-05 0.0867617)
(-0.000379599 -1.13793e-05 0.0841671)
(-0.000456462 4.69467e-06 0.0808066)
(-0.000464932 4.36712e-05 0.0764071)
(6.38228e-07 -0.000248267 0.18369)
(0.000896611 7.51347e-05 0.173238)
(0.00136802 1.93748e-06 0.180427)
(0.000829484 -2.22836e-05 0.185341)
(0.000609836 -3.27164e-05 0.189057)
(9.61115e-07 -4.14457e-05 0.19023)
(-0.000608333 -3.27031e-05 0.189057)
(-0.000828625 -2.22871e-05 0.185343)
(-0.0013682 1.83773e-06 0.180435)
(-0.000896501 7.49733e-05 0.173255)
(3.19368e-07 -0.000423294 0.23628)
(0.000763068 0.000103463 0.231993)
(0.00155773 3.32422e-05 0.241048)
(0.000876899 3.89349e-05 0.246464)
(0.000631386 1.45857e-05 0.250579)
(1.27298e-06 6.94624e-06 0.251851)
(-0.000629261 1.46365e-05 0.250579)
(-0.000875522 3.89928e-05 0.246466)
(-0.00155773 3.31535e-05 0.241057)
(-0.000763358 0.000103281 0.232013)
(1.46739e-07 -0.000700727 0.268908)
(0.000394097 0.00015672 0.268703)
(0.00133981 6.7056e-05 0.279435)
(0.000745832 0.000118471 0.285546)
(0.00055155 8.05962e-05 0.289971)
(1.39718e-06 7.76066e-05 0.291351)
(-0.00054915 8.06997e-05 0.289971)
(-0.000744225 0.000118619 0.285549)
(-0.00133965 6.70494e-05 0.279446)
(-0.000394531 0.000156543 0.268724)
(1.04926e-07 -0.000542541 0.292024)
(3.72634e-05 0.000194238 0.29422)
(0.00107507 9.12089e-05 0.306558)
(0.000612785 0.000206384 0.31354)
(0.000472823 0.00015974 0.31821)
(1.43375e-06 0.000164132 0.319696)
(-0.000470318 0.000159904 0.318211)
(-0.000611078 0.000206648 0.313544)
(-0.00107476 9.13128e-05 0.306569)
(-3.76519e-05 0.000194101 0.29424)
(1.39306e-07 -0.000457865 0.309946)
(-0.000122907 0.000230423 0.313632)
(0.000896885 9.81855e-05 0.327258)
(0.00053315 0.000292113 0.335094)
(0.000423103 0.000240272 0.339969)
(1.42009e-06 0.000252125 0.341546)
(-0.000420591 0.000240503 0.33997)
(-0.0005314 0.000292509 0.335098)
(-0.000896394 9.84128e-05 0.32727)
(0.000122685 0.00023033 0.313652)
(2.2551e-07 -0.000337852 0.324635)
(-0.000102116 0.000273096 0.329693)
(0.000810756 0.000106286 0.343706)
(0.000502456 0.000377351 0.352176)
(0.000397883 0.000324946 0.357237)
(1.36076e-06 0.000342393 0.35889)
(-0.000395446 0.000325245 0.357239)
(-0.000500697 0.000377876 0.352181)
(-0.000810065 0.000106635 0.343718)
(0.000102156 0.00027303 0.329711)
(3.42317e-07 -0.000227264 0.337137)
(6.24003e-06 0.000335233 0.343503)
(0.000777103 0.000134041 0.356887)
(0.000497698 0.000464181 0.365664)
(0.00038348 0.000415239 0.37089)
(1.24693e-06 0.000434636 0.372608)
(-0.00038121 0.000415597 0.370892)
(-0.000495964 0.000464811 0.365669)
(-0.000776192 0.000134478 0.356899)
(-5.86849e-06 0.000335129 0.343519)
(4.59762e-07 -0.000166458 0.348184)
(0.000122457 0.000422801 0.355065)
(0.000763853 0.000184433 0.367185)
(0.000503122 0.000538768 0.376021)
(0.000370692 0.000496192 0.381396)
(1.06797e-06 0.000512314 0.38317)
(-0.000368696 0.000496589 0.381398)
(-0.000501447 0.000539442 0.376027)
(-0.000762712 0.000184897 0.367197)
(-0.000121738 0.000422603 0.355079)
(5.29966e-07 -0.000100505 0.357563)
(0.000219422 0.000528826 0.363699)
(0.000758219 0.000237828 0.374526)
(0.000513539 0.000569037 0.383337)
(0.000356604 0.00053221 0.388856)
(8.25916e-07 0.000539796 0.390677)
(-0.000354982 0.00053261 0.388859)
(-0.000511948 0.000569653 0.383344)
(-0.000756842 0.000238233 0.374537)
(-0.000218399 0.000528519 0.363711)
(-1.16769e-07 -0.000105643 0.0558841)
(0.000424426 6.86691e-05 0.0825336)
(0.00159273 0.000126472 0.0892526)
(0.000992646 0.000123353 0.0901948)
(0.000468707 0.000116345 0.091117)
(1.89963e-07 0.000117161 0.0913047)
(-0.000467974 0.000116354 0.0911163)
(-0.000992356 0.000123365 0.0901946)
(-0.00159252 0.000126519 0.0892535)
(-0.000424628 6.86798e-05 0.0825406)
(1.70829e-06 0.00109992 0.144603)
(-0.00246469 0.000200628 0.183641)
(-0.000730324 0.000196041 0.192432)
(-0.000488752 0.000195268 0.193017)
(-0.000237821 0.000175092 0.19392)
(-2.68501e-07 0.000177172 0.194051)
(0.000238111 0.000175123 0.193919)
(0.000488186 0.000195285 0.193016)
(0.000730839 0.000196081 0.192432)
(0.00246599 0.00020049 0.18365)
(3.00992e-06 0.000114905 0.188048)
(-0.00356292 0.000316223 0.236044)
(-0.00171451 0.000129404 0.248688)
(-0.00115384 0.000136674 0.250272)