/*--------------------------------*- C++ -*----------------------------------*\
| =========                 |                                                 |
| \\      /  F ield         | OpenFOAM: The Open Source CFD Toolbox           |
|  \\    /   O peration     | Version:  v1912                                 |
|   \\  /    A nd           | Website:  www.openfoam.com                      |
|    \\/     M anipulation  |                                                 |
\*---------------------------------------------------------------------------*/
FoamFile
{
    version     2.0;
    format      ascii;
    class       volSymmTensorField;
    location    "198.4";
    object      UPrime2Mean;
}
// * * * * * * * * * * * * * * * * * * * * * * * * * * * * * * * * * * * * * //

dimensions      [0 2 -2 0 0 0 0];


internalField   nonuniform List<symmTensor> 
10077
(
(1.74369e-09 -1.72791e-10 4.75623e-09 6.63326e-08 -2.48704e-07 1.88338e-06)
(1.20109e-05 1.68841e-07 3.83062e-07 2.42497e-09 6.99832e-09 1.43251e-07)
(2.87442e-07 2.94528e-09 3.63164e-08 3.11046e-11 5.20436e-11 1.92457e-07)
(3.70532e-08 8.77504e-11 1.27496e-08 3.26618e-13 2.66053e-11 5.93813e-08)
(2.32547e-08 1.45796e-10 7.83691e-09 9.77956e-13 2.68245e-11 7.5594e-08)
(4.22979e-09 2.46441e-11 1.14842e-09 1.68141e-13 6.4618e-13 7.06556e-08)
(1.04672e-09 6.62132e-12 1.21854e-10 5.52082e-14 -5.35143e-12 7.11516e-08)
(4.95407e-10 1.4501e-12 -2.70118e-09 2.76199e-14 5.53731e-13 7.46423e-08)
(6.91977e-10 -6.61372e-13 -5.30226e-09 3.26917e-14 -1.12611e-12 8.28161e-08)
(8.86181e-10 -2.63813e-12 -6.40703e-09 2.96588e-14 2.40048e-12 8.56867e-08)
(1.85404e-09 -6.70591e-12 -7.10057e-09 5.87232e-14 -3.95321e-12 9.06493e-08)
(5.00403e-09 -2.66948e-11 -8.28543e-09 1.79943e-13 8.73262e-12 8.91538e-08)
(2.40941e-08 -1.4588e-10 -1.4511e-08 1.00924e-12 1.616e-11 1.01027e-07)
(3.66765e-08 -8.30407e-11 -8.97205e-09 2.70265e-13 1.78771e-12 9.3362e-08)
(2.84465e-07 -2.9328e-09 -2.84852e-08 3.10531e-11 -2.43385e-11 2.94253e-07)
(1.20236e-05 -1.69122e-07 -3.50497e-07 2.43142e-09 6.8965e-09 1.74883e-07)
(1.07155e-08 3.27374e-09 4.58285e-08 6.11399e-07 -1.65521e-06 6.59898e-06)
(2.87539e-05 7.17797e-07 6.92186e-07 1.94552e-08 4.48774e-08 1.13489e-06)
(1.24785e-06 -5.19762e-10 1.60186e-07 5.31253e-11 -6.94665e-09 1.6118e-06)
(8.71704e-08 4.01764e-10 3.8598e-08 2.86945e-12 7.86247e-11 4.54428e-07)
(5.03644e-08 4.3725e-10 3.08496e-08 4.77399e-12 8.29824e-11 6.05577e-07)
(1.02278e-08 7.34028e-11 5.37247e-11 9.44947e-13 -4.47977e-11 5.77079e-07)
(3.36394e-09 3.69413e-11 -3.52363e-09 8.39192e-13 -6.77811e-11 5.80286e-07)
(3.04628e-09 1.76947e-12 -2.26525e-08 8.95185e-13 3.3696e-11 6.07988e-07)
(4.5939e-09 -5.92306e-13 -3.94341e-08 5.83343e-13 -1.03396e-10 6.70803e-07)
(5.12773e-09 -9.95145e-12 -4.60721e-08 6.13546e-13 -1.47052e-10 6.93659e-07)
(8.59859e-09 -1.93211e-11 -4.91982e-08 5.87149e-13 -2.41009e-10 7.32859e-07)
(1.46824e-08 -5.70218e-11 -5.41264e-08 6.18434e-13 -9.83119e-11 7.18781e-07)
(5.42738e-08 -3.73702e-10 -8.23204e-08 4.99195e-12 -4.07925e-10 8.10929e-07)
(8.43993e-08 -3.95112e-10 -8.49943e-09 2.93664e-12 -3.72824e-10 7.39349e-07)
(1.23629e-06 4.08025e-10 -1.02271e-07 5.70868e-11 -9.32781e-09 2.49272e-06)
(2.88187e-05 -7.18764e-07 -4.49524e-07 1.94976e-08 4.42442e-08 1.41895e-06)
(2.43743e-08 -5.01856e-09 1.22339e-07 5.62577e-07 -1.56539e-06 9.18077e-06)
(2.33208e-05 1.07191e-06 -9.20808e-07 6.25548e-08 8.48694e-08 2.82317e-06)
(1.33975e-06 2.28832e-09 2.92909e-07 3.94147e-10 -3.12981e-08 4.25719e-06)
(7.86115e-08 1.17245e-09 5.7483e-08 3.42544e-11 2.15303e-10 1.13422e-06)
(4.20039e-08 6.63038e-10 5.53519e-08 1.93306e-11 1.17239e-13 1.53982e-06)
(1.05431e-08 1.5587e-10 -6.94741e-09 4.58427e-12 -3.56231e-10 1.48381e-06)
(5.39836e-09 9.71278e-11 -1.35646e-08 4.18221e-12 -4.13738e-10 1.48949e-06)
(7.18469e-09 1.64263e-12 -5.80021e-08 4.48213e-12 -5.7175e-11 1.55884e-06)
(1.05632e-08 1.57209e-12 -9.45332e-08 3.35481e-12 -4.36345e-10 1.71232e-06)
(1.09563e-08 -1.73036e-11 -1.09087e-07 3.26596e-12 -6.88378e-10 1.77062e-06)
(1.6653e-08 -3.09097e-11 -1.1472e-07 3.02431e-12 -9.91353e-10 1.86856e-06)
(1.96978e-08 -9.11602e-11 -1.247e-07 3.03969e-12 -4.4687e-10 1.83012e-06)
(4.989e-08 -4.44376e-10 -1.81213e-07 2.13196e-11 -1.96235e-09 2.06973e-06)
(7.26449e-08 -1.16865e-09 1.86728e-08 3.42216e-11 -1.57809e-09 1.88308e-06)
(1.32171e-06 -2.82383e-09 -1.6254e-07 4.18197e-10 -4.18757e-08 6.6381e-06)
(2.34271e-05 -1.07335e-06 1.50215e-06 6.26922e-08 8.20852e-08 3.60546e-06)
(4.09907e-08 3.64898e-09 2.21229e-07 1.53018e-06 -3.12726e-06 1.35387e-05)
(2.03457e-05 1.27404e-06 -2.93994e-06 1.3199e-07 1.24896e-07 5.04989e-06)
(1.1888e-06 -3.42644e-09 4.59006e-07 1.33649e-09 -8.21991e-08 7.92466e-06)
(8.29807e-08 1.32858e-09 8.26125e-08 8.93547e-11 9.26656e-11 2.00284e-06)
(3.89078e-08 6.87745e-10 8.21104e-08 4.0716e-11 -8.25347e-11 2.75207e-06)
(1.16126e-08 2.26068e-10 -1.76714e-08 1.28084e-11 -8.75285e-10 2.67397e-06)
(7.79368e-09 1.73941e-10 -2.94378e-08 1.2466e-11 -9.64487e-10 2.67866e-06)
(1.25217e-08 -1.11138e-11 -1.03427e-07 1.37106e-11 -1.97093e-10 2.79988e-06)
(1.74515e-08 1.37632e-11 -1.59405e-07 9.64991e-12 -1.06612e-09 3.06274e-06)
(1.70409e-08 -1.00741e-11 -1.82926e-07 9.82164e-12 -1.74842e-09 3.16831e-06)
(2.46958e-08 -2.92774e-11 -1.90378e-07 8.46994e-12 -2.35002e-09 3.34077e-06)
(2.51424e-08 -8.52312e-11 -2.07123e-07 6.93741e-12 -1.06635e-09 3.26974e-06)
(5.1441e-08 -2.35553e-10 -2.94885e-07 4.5653e-11 -4.77752e-09 3.72637e-06)
(7.32873e-08 -1.376e-09 5.64192e-08 8.9894e-11 -3.67715e-09 3.3867e-06)
(1.16423e-06 2.12745e-09 -2.50258e-07 1.41039e-09 -1.09179e-07 1.2458e-05)
(2.04625e-05 -1.27551e-06 3.93413e-06 1.32261e-07 1.19634e-07 6.54626e-06)
(5.89978e-08 -4.14661e-09 3.33759e-07 1.9091e-06 -3.40434e-06 2.06006e-05)
(2.16449e-05 1.55851e-06 -4.76862e-06 2.24904e-07 1.74426e-07 7.6037e-06)
(1.14884e-06 -1.32173e-08 6.14039e-07 3.34643e-09 -1.64561e-07 1.23746e-05)
(1.04127e-07 1.44409e-09 1.0866e-07 1.8894e-10 -2.78512e-10 2.9633e-06)
(3.9625e-08 7.13028e-10 1.05725e-07 7.24014e-11 -6.63766e-10 4.11367e-06)
(1.29631e-08 2.84142e-10 -2.97865e-08 2.79612e-11 -1.91666e-09 4.02327e-06)
(1.00002e-08 2.54631e-10 -4.90813e-08 2.78406e-11 -1.98849e-09 4.02057e-06)
(1.84826e-08 -3.35309e-11 -1.52949e-07 3.0785e-11 -6.24586e-10 4.19634e-06)
(2.44339e-08 3.49863e-11 -2.24737e-07 2.22639e-11 -1.95055e-09 4.57166e-06)
(2.23876e-08 1.29303e-11 -2.57456e-07 2.29284e-11 -3.24401e-09 4.73335e-06)
(3.09276e-08 -2.43079e-11 -2.65268e-07 1.90927e-11 -4.21586e-09 4.98895e-06)
(2.97195e-08 -7.61539e-11 -2.89226e-07 1.45359e-11 -1.85969e-09 4.88242e-06)
(5.70208e-08 -1.71527e-11 -4.0127e-07 8.27595e-11 -9.2319e-09 5.63197e-06)
(9.01761e-08 -1.5696e-09 1.07796e-07 1.89412e-10 -6.65097e-09 5.10577e-06)
(1.11906e-06 1.10334e-08 -3.28226e-07 3.50688e-09 -2.1803e-07 1.96216e-05)
(2.1729e-05 -1.55993e-06 6.20402e-06 2.25356e-07 1.65149e-07 9.9791e-06)
(7.70542e-08 -3.52404e-09 4.53543e-07 3.04241e-06 -4.57935e-06 2.96844e-05)
(2.38425e-05 1.90661e-06 -6.40558e-06 3.44126e-07 2.38731e-07 1.02333e-05)
(1.12863e-06 -2.24892e-08 7.04388e-07 6.7713e-09 -2.79148e-07 1.73263e-05)
(1.32118e-07 1.3029e-09 1.29525e-07 3.31213e-10 -1.14194e-09 3.92555e-06)
(3.81515e-08 7.07198e-10 1.22337e-07 1.16496e-10 -1.66114e-09 5.50125e-06)
(1.36604e-08 2.73503e-10 -4.01689e-08 5.10055e-11 -3.46049e-09 5.40781e-06)
(1.16633e-08 2.9478e-10 -6.92956e-08 5.04795e-11 -3.48164e-09 5.38883e-06)
(2.45743e-08 -7.89821e-11 -2.00583e-07 5.53295e-11 -1.47371e-09 5.61428e-06)
(3.09532e-08 8.44002e-11 -2.83173e-07 3.94684e-11 -3.3006e-09 6.09162e-06)
(2.64894e-08 9.10059e-11 -3.24839e-07 4.17838e-11 -5.35214e-09 6.31521e-06)
(3.44114e-08 3.94873e-11 -3.31021e-07 3.44038e-11 -6.71564e-09 6.65702e-06)
(3.22666e-08 -5.63651e-12 -3.61264e-07 2.54433e-11 -3.05724e-09 6.51828e-06)
(6.01063e-08 2.20678e-10 -4.8256e-07 1.3554e-10 -1.54544e-08 7.64095e-06)
(1.13318e-07 -1.58864e-09 1.75302e-07 3.31453e-10 -1.03442e-08 6.89748e-06)
(1.09634e-06 1.9525e-08 -3.48986e-07 7.0661e-09 -3.69492e-07 2.77171e-05)
(2.38453e-05 -1.90787e-06 8.27077e-06 3.44793e-07 2.24822e-07 1.35905e-05)
(9.41187e-08 -7.3049e-09 5.75562e-07 4.15194e-06 -5.38786e-06 3.9941e-05)
(2.58608e-05 2.28317e-06 -7.802e-06 4.88406e-07 3.16874e-07 1.27436e-05)
(1.10142e-06 -2.95383e-08 6.90424e-07 1.18684e-08 -4.24265e-07 2.24562e-05)
(1.63777e-07 8.41995e-10 1.42296e-07 5.31604e-10 -1.98302e-09 4.80996e-06)
(3.3975e-08 6.75221e-10 1.30689e-07 1.74493e-10 -2.621e-09 6.80162e-06)
(1.39525e-08 1.5633e-10 -4.57372e-08 8.08898e-11 -5.34153e-09 6.71374e-06)
(1.28128e-08 2.66972e-10 -8.68118e-08 7.90163e-11 -5.30303e-09 6.66879e-06)
(3.0439e-08 -1.49361e-10 -2.41414e-07 8.51461e-11 -2.74321e-09 6.93367e-06)
(3.66882e-08 1.60864e-10 -3.29589e-07 6.01233e-11 -4.94201e-09 7.49331e-06)
(2.92834e-08 2.34658e-10 -3.79511e-07 6.53458e-11 -7.86801e-09 7.78114e-06)
(3.51889e-08 1.74713e-10 -3.81773e-07 5.4102e-11 -9.54615e-09 8.20786e-06)
(3.33135e-08 1.34439e-10 -4.16257e-07 3.99044e-11 -4.41761e-09 8.04602e-06)
(5.97156e-08 4.10879e-10 -5.27079e-07 2.04034e-10 -2.24452e-08 9.61537e-06)
(1.39323e-07 -1.35528e-09 2.5777e-07 5.28384e-10 -1.38158e-08 8.6309e-06)
(1.06915e-06 2.61576e-08 -2.75291e-07 1.23198e-08 -5.60822e-07 3.62398e-05)
(2.57391e-05 -2.28394e-06 1.00491e-05 4.89311e-07 2.98109e-07 1.71217e-05)
(1.09459e-07 -1.17985e-08 6.95152e-07 5.44054e-06 -5.98252e-06 5.01424e-05)
(2.71686e-05 2.65177e-06 -8.9543e-06 6.56488e-07 4.0518e-07 1.50371e-05)
(1.06133e-06 -3.28464e-08 5.51038e-07 1.88088e-08 -5.95927e-07 2.74476e-05)
(1.97235e-07 -6.09497e-11 1.45331e-07 7.92614e-10 -2.89817e-09 5.55987e-06)
(2.84625e-08 6.04362e-10 1.31175e-07 2.46759e-10 -3.65511e-09 7.9286e-06)
(1.45283e-08 -7.60646e-11 -4.44133e-08 1.17549e-10 -7.4564e-09 7.85445e-06)
(1.36999e-08 1.70132e-10 -9.90912e-08 1.13962e-10 -7.32142e-09 7.7754e-06)
(3.58468e-08 -2.34452e-10 -2.72317e-07 1.20784e-10 -4.29687e-09 8.0676e-06)
(4.15285e-08 2.56843e-10 -3.61465e-07 8.53391e-11 -6.65145e-09 8.68784e-06)
(3.10509e-08 4.29786e-10 -4.18519e-07 9.53122e-11 -1.04388e-08 9.03912e-06)
(3.40169e-08 3.57158e-10 -4.14577e-07 7.93992e-11 -1.2311e-08 9.5472e-06)
(3.41746e-08 3.38679e-10 -4.50499e-07 5.85681e-11 -5.61145e-09 9.37635e-06)
(5.68539e-08 5.30699e-10 -5.30062e-07 2.83944e-10 -2.95339e-08 1.14529e-05)
(1.66133e-07 -7.01085e-10 3.52778e-07 7.84333e-10 -1.64915e-08 1.02164e-05)
(1.03043e-06 2.96343e-08 -8.51853e-08 1.93917e-08 -7.85901e-07 4.4674e-05)
(2.68937e-05 -2.65176e-06 1.15074e-05 6.57648e-07 3.81957e-07 2.04275e-05)
(1.2265e-07 -1.78271e-08 8.06934e-07 6.92857e-06 -6.26841e-06 5.90825e-05)
(2.75098e-05 2.97562e-06 -9.89086e-06 8.44656e-07 4.96924e-07 1.71129e-05)
(1.01633e-06 -3.14842e-08 2.86335e-07 2.76787e-08 -7.88732e-07 3.2078e-05)
(2.31115e-07 -1.4533e-09 1.37608e-07 1.11079e-09 -3.88613e-09 6.15195e-06)
(2.37082e-08 4.91924e-10 1.25126e-07 3.32883e-10 -4.9835e-09 8.83904e-06)
(1.61653e-08 -4.21821e-10 -3.55068e-08 1.60729e-10 -9.89997e-09 8.78705e-06)
(1.46786e-08 7.10823e-12 -1.0472e-07 1.55549e-10 -9.63687e-09 8.66877e-06)
(4.0695e-08 -3.18909e-10 -2.92063e-07 1.6193e-10 -6.28662e-09 8.97823e-06)
(4.55401e-08 3.82304e-10 -3.78778e-07 1.15608e-10 -8.56979e-09 9.64283e-06)
(3.22635e-08 6.84451e-10 -4.41575e-07 1.32622e-10 -1.31114e-08 1.00555e-05)
(3.20359e-08 6.00613e-10 -4.29518e-07 1.11442e-10 -1.50459e-08 1.06426e-05)
(3.63406e-08 6.40632e-10 -4.63636e-07 8.24422e-11 -6.7582e-09 1.04814e-05)
(5.3435e-08 6.17893e-10 -4.93398e-07 3.73504e-10 -3.6673e-08 1.31175e-05)
(1.92342e-07 4.38957e-10 4.58227e-07 1.09864e-09 -1.82845e-08 1.16306e-05)
(9.86481e-07 2.91735e-08 2.24631e-07 2.83343e-08 -1.03773e-06 5.2654e-05)
(2.70741e-05 -2.97496e-06 1.26585e-05 8.46112e-07 4.69905e-07 2.34892e-05)
(1.33546e-07 -2.47218e-08 9.0558e-07 8.56829e-06 -6.26115e-06 6.61825e-05)
(2.69807e-05 3.25066e-06 -1.06154e-05 1.05058e-06 5.87433e-07 1.90068e-05)
(9.77705e-07 -2.47919e-08 -8.70685e-08 3.83821e-08 -9.96124e-07 3.6248e-05)
(2.64702e-07 -3.26467e-09 1.18792e-07 1.48041e-09 -4.8697e-09 6.59261e-06)
(2.17641e-08 3.63089e-10 1.14002e-07 4.32436e-10 -6.80391e-09 9.53126e-06)
(1.94711e-08 -8.67092e-10 -1.94356e-08 2.10414e-10 -1.2815e-08 9.50921e-06)
(1.60813e-08 -2.12014e-10 -1.03306e-07 2.04271e-10 -1.24108e-08 9.3488e-06)
(4.49876e-08 -3.87641e-10 -3.00693e-07 2.08592e-10 -8.91084e-09 9.66855e-06)
(4.88917e-08 5.44789e-10 -3.82995e-07 1.51764e-10 -1.09093e-08 1.03688e-05)
(3.33845e-08 1.00681e-09 -4.50075e-07 1.7852e-10 -1.60516e-08 1.08422e-05)
(3.0341e-08 9.19203e-10 -4.28425e-07 1.51852e-10 -1.79214e-08 1.15097e-05)
(4.09409e-08 1.07156e-09 -4.57209e-07 1.12995e-10 -8.08067e-09 1.13806e-05)
(5.15011e-08 6.98533e-10 -4.22468e-07 4.72285e-10 -4.39426e-08 1.46293e-05)
(2.17408e-07 2.00653e-09 5.72589e-07 1.46922e-09 -1.92196e-08 1.29007e-05)
(9.47084e-07 2.41757e-08 6.41839e-07 3.90185e-08 -1.30825e-06 6.00235e-05)
(2.63958e-05 -3.24979e-06 1.35041e-05 1.05233e-06 5.57314e-07 2.63458e-05)
(1.4223e-07 -3.2193e-08 9.87423e-07 1.0324e-05 -6.02971e-06 7.15616e-05)
(2.58892e-05 3.49859e-06 -1.10909e-05 1.2688e-06 6.74746e-07 2.07338e-05)
(9.51421e-07 -1.2271e-08 -5.48566e-07 5.08116e-08 -1.21669e-06 4.0107e-05)
(2.97787e-07 -5.27235e-09 8.94185e-08 1.90948e-09 -5.75525e-09 6.90276e-06)
(2.40157e-08 2.69923e-10 9.89043e-08 5.45481e-10 -9.24577e-09 1.00257e-05)
(2.47637e-08 -1.38992e-09 2.83908e-09 2.66703e-10 -1.63278e-08 1.00391e-05)
(1.81359e-08 -4.7299e-10 -9.51174e-08 2.60963e-10 -1.57762e-08 9.83403e-06)
(4.87945e-08 -4.27687e-10 -2.98866e-07 2.61348e-10 -1.23209e-08 1.0159e-05)
(5.17779e-08 7.47443e-10 -3.76028e-07 1.95424e-10 -1.38375e-08 1.08911e-05)
(3.47403e-08 1.39895e-09 -4.45876e-07 2.34935e-10 -1.93874e-08 1.14268e-05)
(2.96939e-08 1.31886e-09 -4.13367e-07 2.02899e-10 -2.10773e-08 1.218e-05)
(4.85167e-08 1.65193e-09 -4.33045e-07 1.52467e-10 -9.74912e-09 1.21073e-05)
(5.25434e-08 7.6725e-10 -3.22867e-07 5.80886e-10 -5.1328e-08 1.60267e-05)
(2.41403e-07 3.79284e-09 6.94273e-07 1.90824e-09 -1.93554e-08 1.40656e-05)
(9.17256e-07 1.41342e-08 1.14964e-06 5.13054e-08 -1.59559e-06 6.69886e-05)
(2.51781e-05 -3.49784e-06 1.40146e-05 1.27084e-06 6.4227e-07 2.90178e-05)
(1.48946e-07 -3.98178e-08 1.05115e-06 1.21576e-05 -5.66329e-06 7.56216e-05)
(2.4475e-05 3.7365e-06 -1.12902e-05 1.49132e-06 7.57526e-07 2.22967e-05)
(9.43806e-07 5.89319e-09 -1.08068e-06 6.48216e-08 -1.4477e-06 4.37039e-05)
(3.30129e-07 -7.21291e-09 4.93334e-08 2.41888e-09 -6.46915e-09 7.12832e-06)
(3.09489e-08 2.59288e-10 8.02866e-08 6.73754e-10 -1.25753e-08 1.03755e-05)
(3.21105e-08 -1.97569e-09 3.10777e-08 3.31175e-10 -2.07053e-08 1.04289e-05)
(2.09726e-08 -7.67299e-10 -8.0197e-08 3.27738e-10 -1.99773e-08 1.01716e-05)
(5.22359e-08 -4.34256e-10 -2.8692e-07 3.22088e-10 -1.6748e-08 1.04966e-05)
(5.43934e-08 9.90119e-10 -3.59424e-07 2.48792e-10 -1.75716e-08 1.12571e-05)
(3.65192e-08 1.86222e-09 -4.30794e-07 3.0428e-10 -2.33314e-08 1.18614e-05)
(3.04987e-08 1.80475e-09 -3.86146e-07 2.67309e-10 -2.47474e-08 1.27164e-05)
(5.91261e-08 2.39628e-09 -3.92511e-07 2.03643e-10 -1.2023e-08 1.27325e-05)
(5.71888e-08 8.14015e-10 -1.98321e-07 7.04415e-10 -5.9393e-08 1.74442e-05)
(2.64295e-07 5.52775e-09 8.25696e-07 2.44045e-09 -1.89625e-08 1.52387e-05)
(9.02851e-07 -8.03797e-10 1.73367e-06 6.50488e-08 -1.89848e-06 7.3714e-05)
(2.36661e-05 -3.73629e-06 1.41786e-05 1.49374e-06 7.23184e-07 3.15426e-05)
(1.54043e-07 -4.72656e-08 1.09706e-06 1.40891e-05 -5.24812e-06 7.88187e-05)
(2.28589e-05 3.97758e-06 -1.1147e-05 1.72135e-06 8.36621e-07 2.35159e-05)
(9.55638e-07 2.89837e-08 -1.65495e-06 8.00545e-08 -1.67635e-06 4.66809e-05)
(3.61262e-07 -8.9403e-09 -5.91567e-10 3.01187e-09 -6.93919e-09 7.27197e-06)
(4.24623e-08 3.47961e-10 5.79453e-08 8.19607e-10 -1.6828e-08 1.0581e-05)
(4.14517e-08 -2.61591e-09 6.4377e-08 4.0553e-10 -2.59735e-08 1.06739e-05)
(2.46588e-08 -1.09094e-09 -5.91287e-08 4.07012e-10 -2.50506e-08 1.03554e-05)
(5.54395e-08 -4.06782e-10 -2.65632e-07 3.93329e-10 -2.22242e-08 1.06729e-05)
(5.68951e-08 1.27031e-09 -3.34145e-07 3.15042e-10 -2.21564e-08 1.14552e-05)
(3.88099e-08 2.39409e-09 -4.05184e-07 3.89659e-10 -2.79007e-08 1.21388e-05)
(3.29089e-08 2.37666e-09 -3.46568e-07 3.48521e-10 -2.89795e-08 1.31133e-05)
(7.262e-08 3.31235e-09 -3.3479e-07 2.7024e-10 -1.49555e-08 1.32496e-05)
(6.54579e-08 8.37071e-10 -4.92134e-08 8.477e-10 -6.81034e-08 1.88712e-05)
(2.85774e-07 7.06874e-09 9.65315e-07 3.0722e-09 -1.8134e-08 1.64174e-05)
(9.04551e-07 -1.99688e-08 2.36587e-06 7.98726e-08 -2.2028e-06 7.96915e-05)
(2.1982e-05 -3.9781e-06 1.39388e-05 1.72421e-06 8.00539e-07 3.37176e-05)
(1.5787e-07 -5.43565e-08 1.12607e-06 1.60729e-05 -4.88381e-06 8.16766e-05)
(2.10553e-05 4.20481e-06 -1.06291e-05 1.96065e-06 9.11339e-07 2.41596e-05)
(9.81348e-07 5.61847e-08 -2.23392e-06 9.61689e-08 -1.89074e-06 4.87439e-05)
(3.90302e-07 -1.0414e-08 -5.76456e-08 3.66615e-09 -7.18947e-09 7.30582e-06)
(5.80677e-08 5.16683e-10 3.22599e-08 9.85315e-10 -2.18493e-08 1.06056e-05)
(5.25874e-08 -3.3e-09 1.00325e-07 4.91532e-10 -3.19887e-08 1.0731e-05)
(2.9202e-08 -1.44017e-09 -3.36371e-08 5.01356e-10 -3.08935e-08 1.03469e-05)
(5.8506e-08 -3.48265e-10 -2.37045e-07 4.77989e-10 -2.86538e-08 1.0648e-05)
(5.93959e-08 1.58345e-09 -3.01844e-07 3.97922e-10 -2.76015e-08 1.14432e-05)
(4.16621e-08 2.98832e-09 -3.69547e-07 4.94672e-10 -3.30998e-08 1.2212e-05)
(3.69809e-08 3.02906e-09 -2.94776e-07 4.50498e-10 -3.38169e-08 1.33123e-05)
(8.87309e-08 4.39839e-09 -2.60352e-07 3.56735e-10 -1.86175e-08 1.35874e-05)
(7.70915e-08 8.6085e-10 1.21037e-07 1.01636e-09 -7.70317e-08 2.01381e-05)
(3.05251e-07 8.37412e-09 1.1048e-06 3.78328e-09 -1.71712e-08 1.7468e-05)
(9.1712e-07 -4.26305e-08 3.00596e-06 9.54264e-08 -2.49322e-06 8.43387e-05)
(2.01428e-05 -4.20626e-06 1.32621e-05 1.96393e-06 8.73666e-07 3.52074e-05)
(1.60753e-07 -6.0901e-08 1.13889e-06 1.79916e-05 -4.67116e-06 8.42912e-05)
(1.91024e-05 4.39864e-06 -9.79426e-06 2.20722e-06 9.7922e-07 2.41793e-05)
(1.01663e-06 8.63661e-08 -2.78222e-06 1.12845e-07 -2.08301e-06 4.98191e-05)
(4.1618e-07 -1.162e-08 -1.1975e-07 4.35916e-09 -7.25306e-09 7.24401e-06)
(7.70067e-08 7.33041e-10 4.06872e-09 1.17351e-09 -2.75627e-08 1.04664e-05)
(6.51494e-08 -4.01732e-09 1.36902e-07 5.92416e-10 -3.8687e-08 1.0615e-05)
(3.4545e-08 -1.81285e-09 -5.40988e-09 6.14443e-10 -3.74598e-08 1.01625e-05)
(6.15157e-08 -2.67898e-10 -2.03416e-07 5.80031e-10 -3.59674e-08 1.04388e-05)
(6.19797e-08 1.91962e-09 -2.64781e-07 5.01498e-10 -3.39396e-08 1.12354e-05)
(4.50722e-08 3.6303e-09 -3.2593e-07 6.23026e-10 -3.902e-08 1.20889e-05)
(4.2655e-08 3.74486e-09 -2.32986e-07 5.77253e-10 -3.94098e-08 1.33152e-05)
(1.06948e-07 5.62823e-09 -1.72342e-07 4.67656e-10 -2.31851e-08 1.37422e-05)
(9.16377e-08 9.05002e-10 3.05933e-07 1.21882e-09 -8.63384e-08 2.1198e-05)
(3.2202e-07 9.41e-09 1.2389e-06 4.55288e-09 -1.6651e-08 1.83521e-05)
(9.36934e-07 -6.78259e-08 3.61677e-06 1.11427e-07 -2.76036e-06 8.7459e-05)
(1.81884e-05 -4.40142e-06 1.22141e-05 2.21097e-06 9.39936e-07 3.59002e-05)
(1.63002e-07 -6.67834e-08 1.1355e-06 1.98806e-05 -4.52542e-06 8.62077e-05)
(1.71008e-05 4.55952e-06 -8.71736e-06 2.46279e-06 1.03862e-06 2.3583e-05)
(1.05763e-06 1.18138e-07 -3.26921e-06 1.29754e-07 -2.24673e-06 4.99074e-05)
(4.38156e-07 -1.2515e-08 -1.84869e-07 5.0956e-09 -7.10619e-09 7.10519e-06)
(9.83833e-08 9.75459e-10 -2.56439e-08 1.38843e-09 -3.37828e-08 1.01882e-05)
(7.86885e-08 -4.756e-09 1.72279e-07 7.12295e-10 -4.59077e-08 1.03507e-05)
(4.05742e-08 -2.20645e-09 2.38913e-08 7.50732e-10 -4.46044e-08 9.82828e-06)
(6.45259e-08 -1.77092e-10 -1.67005e-07 7.04367e-10 -4.39997e-08 1.00726e-05)
(6.46942e-08 2.26584e-09 -2.25195e-07 6.30825e-10 -4.10821e-08 1.08601e-05)
(4.89736e-08 4.29796e-09 -2.76628e-07 7.79099e-10 -4.56364e-08 1.17958e-05)
(4.97323e-08 4.4955e-09 -1.63898e-07 7.33603e-10 -4.58004e-08 1.31454e-05)
(1.26609e-07 6.95785e-09 -7.42826e-08 6.08572e-10 -2.87081e-08 1.37324e-05)
(1.08512e-07 9.64095e-10 4.98569e-07 1.46504e-09 -9.60917e-08 2.20413e-05)
(3.35645e-07 1.01182e-08 1.36462e-06 5.38728e-09 -1.69563e-08 1.90677e-05)
(9.61056e-07 -9.43579e-08 4.16605e-06 1.27579e-07 -2.99663e-06 8.90024e-05)
(1.62168e-05 -4.56387e-06 1.0885e-05 2.46705e-06 9.97389e-07 3.57792e-05)
(1.64877e-07 -7.20176e-08 1.1166e-06 2.18603e-05 -4.30209e-06 8.71063e-05)
(1.51195e-05 4.68225e-06 -7.48377e-06 2.72646e-06 1.08756e-06 2.24265e-05)
(1.09981e-06 1.50105e-07 -3.67119e-06 1.46594e-07 -2.37737e-06 4.9069e-05)
(4.55737e-07 -1.30577e-08 -2.50896e-07 5.88259e-09 -6.72338e-09 6.90745e-06)
(1.21181e-07 1.22473e-09 -5.57627e-08 1.63503e-09 -4.02841e-08 9.79714e-06)
(9.27085e-08 -5.50541e-09 2.04919e-07 8.56412e-10 -5.34778e-08 9.9651e-06)
(4.71315e-08 -2.61937e-09 5.27532e-08 9.15755e-10 -5.21554e-08 9.37312e-06)
(6.75681e-08 -9.02425e-11 -1.2991e-07 8.57196e-10 -5.25456e-08 9.58026e-06)
(6.7553e-08 2.60688e-09 -1.85136e-07 7.92086e-10 -4.88926e-08 1.03496e-05)
(5.32475e-08 4.96554e-09 -2.23931e-07 9.68482e-10 -5.28771e-08 1.13643e-05)
(5.79025e-08 5.24523e-09 -9.03358e-08 9.25431e-10 -5.29895e-08 1.28311e-05)
(1.46955e-07 8.33265e-09 3.0092e-08 7.86238e-10 -3.51856e-08 1.35814e-05)
(1.26988e-07 1.02e-09 6.92072e-07 1.76596e-09 -1.06338e-07 2.26679e-05)
(3.45899e-07 1.04459e-08 1.4795e-06 6.29614e-09 -1.83874e-08 1.96209e-05)
(9.85963e-07 -1.21033e-07 4.62819e-06 1.43623e-07 -3.19654e-06 8.90135e-05)
(1.42929e-05 -4.68833e-06 9.37514e-06 2.7313e-06 1.04386e-06 3.48897e-05)
(1.6659e-07 -7.65965e-08 1.08414e-06 2.39485e-05 -3.99622e-06 8.698e-05)
(1.31972e-05 4.75663e-06 -6.18296e-06 2.99584e-06 1.1243e-06 2.08166e-05)
(1.13857e-06 1.80974e-07 -3.97324e-06 1.63094e-07 -2.47268e-06 4.74241e-05)
(4.68564e-07 -1.32566e-08 -3.15714e-07 6.71895e-09 -6.12498e-09 6.66822e-06)
(1.44296e-07 1.45676e-09 -8.51019e-08 1.91734e-09 -4.69154e-08 9.32053e-06)
(1.06684e-07 -6.258e-09 2.33696e-07 1.03168e-09 -6.12422e-08 9.48713e-06)
(5.40234e-08 -3.05158e-09 7.99381e-08 1.11647e-09 -5.99538e-08 8.8285e-06)
(7.06472e-08 -2.29501e-11 -9.39267e-08 1.04623e-09 -6.14055e-08 8.99542e-06)
(7.05389e-08 2.92688e-09 -1.46394e-07 9.92776e-10 -5.72112e-08 9.73948e-06)
(5.77362e-08 5.60716e-09 -1.70106e-07 1.19827e-09 -6.0646e-08 1.08286e-05)
(6.67726e-08 5.95571e-09 -1.5203e-08 1.15986e-09 -6.09575e-08 1.24036e-05)
(1.67174e-07 9.69324e-09 1.36832e-07 1.00879e-09 -4.26038e-08 1.33149e-05)
(1.46208e-07 1.04873e-09 8.79822e-07 2.13174e-09 -1.17259e-07 2.30858e-05)
(3.52639e-07 1.03888e-08 1.58133e-06 7.28161e-09 -2.12401e-08 2.00219e-05)
(1.00809e-06 -1.46771e-07 4.98642e-06 1.59347e-07 -3.35719e-06 8.76315e-05)
(1.24501e-05 -4.76451e-06 7.78614e-06 3.00134e-06 1.07749e-06 3.33398e-05)
(1.68294e-07 -8.04361e-08 1.04072e-06 2.61155e-05 -3.61646e-06 8.59658e-05)
(1.13507e-05 4.76859e-06 -4.89936e-06 3.26754e-06 1.14786e-06 1.89012e-05)
(1.16984e-06 2.09594e-07 -4.16995e-06 1.79004e-07 -2.53266e-06 4.51414e-05)
(4.76452e-07 -1.31532e-08 -3.77086e-07 7.58944e-09 -5.48237e-09 6.40443e-06)
(1.66621e-07 1.64758e-09 -1.12515e-07 2.24055e-09 -5.35279e-08 8.78836e-06)
(1.20095e-07 -7.0101e-09 2.58062e-07 1.24628e-09 -6.91398e-08 8.94846e-06)
(6.10327e-08 -3.50481e-09 1.04611e-07 1.36108e-09 -6.78932e-08 8.22918e-06)
(7.37446e-08 7.76308e-12 -6.04034e-08 1.2812e-09 -7.03845e-08 8.35508e-06)
(7.36105e-08 3.2112e-09 -1.10422e-07 1.24209e-09 -6.58607e-08 9.06762e-06)
(6.22573e-08 6.20093e-09 -1.1741e-07 1.47738e-09 -6.88262e-08 1.02243e-05)
(7.58984e-08 6.59048e-09 5.85135e-08 1.44508e-09 -6.96946e-08 1.18954e-05)
(1.86445e-07 1.09801e-08 2.41713e-07 1.28552e-09 -5.09967e-08 1.29597e-05)
(1.65258e-07 1.02031e-09 1.05568e-06 2.57421e-09 -1.29095e-07 2.33118e-05)
(3.55854e-07 9.97709e-09 1.66792e-06 8.3335e-09 -2.59571e-08 2.02805e-05)
(1.02429e-06 -1.70628e-07 5.23373e-06 1.74563e-07 -3.47812e-06 8.50824e-05)
(1.06989e-05 -4.77825e-06 6.21206e-06 3.2738e-06 1.09727e-06 3.12912e-05)
(1.70095e-07 -8.34435e-08 9.89298e-07 2.83582e-05 -3.19121e-06 8.42864e-05)
(9.58581e-06 4.70283e-06 -3.7021e-06 3.53779e-06 1.15793e-06 1.68356e-05)
(1.19047e-06 2.35005e-07 -4.26456e-06 1.94093e-07 -2.55916e-06 4.24092e-05)
(4.79573e-07 -1.28144e-08 -4.32075e-07 8.46573e-09 -4.91855e-09 6.12994e-06)
(1.87157e-07 1.77037e-09 -1.37002e-07 2.6089e-09 -6.00178e-08 8.23312e-06)
(1.32474e-07 -7.75967e-09 2.78211e-07 1.50902e-09 -7.70488e-08 8.38206e-06)
(6.79345e-08 -3.98012e-09 1.26439e-07 1.65851e-09 -7.58309e-08 7.61141e-06)
(7.68231e-08 -1.07902e-11 -3.00853e-08 1.57152e-09 -7.92916e-08 7.69603e-06)
(7.67087e-08 3.44814e-09 -7.82531e-08 1.54885e-09 -7.47021e-08 8.36874e-06)
(6.66223e-08 6.72444e-09 -6.80688e-08 1.8143e-09 -7.7345e-08 9.5813e-06)
(8.48256e-08 7.11612e-09 1.27702e-07 1.79036e-09 -7.91468e-08 1.13323e-05)
(2.0402e-07 1.21407e-08 3.40002e-07 1.62669e-09 -6.02969e-08 1.25334e-05)
(1.83263e-07 9.10662e-10 1.21382e-06 3.10365e-09 -1.41948e-07 2.33567e-05)
(3.5581e-07 9.25938e-09 1.73629e-06 9.42972e-09 -3.27213e-08 2.03893e-05)
(1.03215e-06 -1.91829e-07 5.37147e-06 1.89113e-07 -3.56057e-06 8.16251e-05)
(9.03955e-06 -4.71416e-06 4.72967e-06 3.54486e-06 1.10295e-06 2.8925e-05)
(1.72048e-07 -8.55546e-08 9.32704e-07 3.06402e-05 -2.76133e-06 8.21448e-05)
(7.90989e-06 4.54606e-06 -2.63615e-06 3.80294e-06 1.15491e-06 1.47362e-05)
(1.19842e-06 2.56477e-07 -4.26643e-06 2.08157e-07 -2.55506e-06 3.93983e-05)
(4.78554e-07 -1.22024e-08 -4.76231e-07 9.35598e-09 -4.61815e-09 5.84612e-06)
(2.05154e-07 1.81157e-09 -1.57317e-07 3.02588e-09 -6.61939e-08 7.68105e-06)
(1.43462e-07 -8.49892e-09 2.94943e-07 1.82698e-09 -8.4916e-08 7.80584e-06)
(7.45233e-08 -4.47665e-09 1.45496e-07 2.01661e-09 -8.36383e-08 6.9989e-06)
(7.98366e-08 -8.69575e-11 -3.3213e-09 1.92684e-09 -8.78875e-08 7.04138e-06)
(7.97686e-08 3.63333e-09 -5.05013e-08 1.92198e-09 -8.3538e-08 7.66303e-06)
(7.06658e-08 7.16116e-09 -2.38809e-08 2.21791e-09 -8.60693e-08 8.91281e-06)
(9.31486e-08 7.49729e-09 1.88923e-07 2.20508e-09 -8.93245e-08 1.07114e-05)
(2.19325e-07 1.31034e-08 4.25702e-07 2.04192e-09 -7.06598e-08 1.20077e-05)
(1.99531e-07 6.74987e-10 1.34783e-06 3.73341e-09 -1.55692e-07 2.31776e-05)
(3.53126e-07 8.17009e-09 1.7822e-06 1.05854e-08 -4.18964e-08 2.02937e-05)
(1.03007e-06 -2.09775e-07 5.40694e-06 2.02863e-07 -3.60666e-06 7.75037e-05)
(7.47325e-06 -4.55884e-06 3.39137e-06 3.81086e-06 1.09494e-06 2.63861e-05)
(1.7417e-07 -8.67046e-08 8.73116e-07 3.28719e-05 -2.36208e-06 7.96261e-05)
(6.3403e-06 4.29015e-06 -1.72647e-06 4.05968e-06 1.13973e-06 1.26605e-05)
(1.19274e-06 2.73519e-07 -4.1882e-06 2.21045e-07 -2.52347e-06 3.62433e-05)
(4.7416e-07 -1.12336e-08 -5.0722e-07 1.0295e-08 -4.58442e-09 5.53176e-06)
(2.20185e-07 1.80626e-09 -1.69962e-07 3.49861e-09 -7.17636e-08 7.11333e-06)
(1.52856e-07 -9.2385e-09 3.07134e-07 2.20902e-09 -9.24524e-08 7.22954e-06)
(8.06503e-08 -5.00012e-09 1.61153e-07 2.44455e-09 -9.10166e-08 6.40456e-06)
(8.27389e-08 -2.25583e-10 1.94751e-08 2.35588e-09 -9.59139e-08 6.40574e-06)
(8.27293e-08 3.76548e-09 -2.7415e-08 2.37103e-09 -9.2071e-08 6.97124e-06)
(7.42629e-08 7.4999e-09 1.48054e-08 2.69756e-09 -9.47409e-08 8.2436e-06)
(1.00569e-07 7.71639e-09 2.41802e-07 2.70143e-09 -9.99399e-08 1.00659e-05)
(2.32009e-07 1.38342e-08 4.98762e-07 2.54391e-09 -8.17699e-08 1.14181e-05)
(2.13596e-07 2.38115e-10 1.45237e-06 4.48072e-09 -1.70303e-07 2.2709e-05)
(3.48439e-07 6.61926e-09 1.8069e-06 1.18447e-08 -5.3472e-08 1.99779e-05)
(1.01731e-06 -2.24054e-07 5.35142e-06 2.15712e-07 -3.61906e-06 7.29316e-05)
(6.01164e-06 -4.30403e-06 2.22989e-06 4.06849e-06 1.07435e-06 2.37599e-05)
(1.76453e-07 -8.68783e-08 8.12138e-07 3.49725e-05 -2.01164e-06 7.67367e-05)
(4.91089e-06 3.93722e-06 -9.86133e-07 4.30486e-06 1.11395e-06 1.06442e-05)
(1.17349e-06 2.85884e-07 -4.04363e-06 2.32657e-07 -2.46741e-06 3.30397e-05)
(4.66978e-07 -9.90876e-09 -5.2833e-07 1.1294e-08 -4.49225e-09 5.19775e-06)
(2.32122e-07 1.77108e-09 -1.75109e-07 4.03174e-09 -7.65165e-08 6.53251e-06)
(1.60558e-07 -9.99633e-09 3.13853e-07 2.66294e-09 -9.92545e-08 6.6726e-06)
(8.62087e-08 -5.56045e-09 1.7282e-07 2.95058e-09 -9.75965e-08 5.84298e-06)
(8.54867e-08 -4.26624e-10 3.80516e-08 2.86494e-09 -1.03088e-07 5.8043e-06)
(8.5538e-08 3.85079e-09 -8.88281e-09 2.90395e-09 -9.9946e-08 6.31674e-06)
(7.7324e-08 7.743e-09 4.84796e-08 3.26145e-09 -1.03001e-07 7.60622e-06)
(1.06878e-07 7.79178e-09 2.88121e-07 3.29109e-09 -1.10439e-07 9.45218e-06)
(2.41876e-07 1.43618e-08 5.63118e-07 3.1447e-09 -9.28754e-08 1.08468e-05)
(2.25223e-07 -4.02031e-10 1.53071e-06 5.35159e-09 -1.85359e-07 2.20539e-05)
(3.42167e-07 4.63394e-09 1.81789e-06 1.32283e-08 -6.65695e-08 1.95454e-05)
(9.93914e-07 -2.34457e-07 5.21808e-06 2.27596e-07 -3.60044e-06 6.80679e-05)
(4.68288e-06 -3.95138e-06 1.26429e-06 4.31448e-06 1.04298e-06 2.11049e-05)
(1.78873e-07 -8.61139e-08 7.51093e-07 3.69143e-05 -1.71254e-06 7.3503e-05)
(3.68017e-06 3.5134e-06 -4.13064e-07 4.54013e-06 1.08057e-06 8.72529e-06)
(1.14154e-06 2.93607e-07 -3.8454e-06 2.42959e-07 -2.38926e-06 2.98391e-05)
(4.5748e-07 -8.30235e-09 -5.42394e-07 1.23193e-08 -4.06819e-09 4.86629e-06)
(2.40967e-07 1.68548e-09 -1.75294e-07 4.6257e-09 -8.0359e-08 5.96437e-06)
(1.66529e-07 -1.07752e-08 3.16076e-07 3.19127e-09 -1.05069e-07 6.1484e-06)
(9.11172e-08 -6.16182e-09 1.80724e-07 3.53777e-09 -1.03147e-07 5.32264e-06)
(8.80439e-08 -6.85612e-10 5.24619e-08 3.45693e-09 -1.0922e-07 5.24521e-06)
(8.81535e-08 3.90127e-09 5.40886e-09 3.52541e-09 -1.06943e-07 5.71071e-06)
(7.97965e-08 7.8975e-09 7.74787e-08 3.91496e-09 -1.10642e-07 7.01478e-06)
(1.11936e-07 7.74167e-09 3.28376e-07 3.98193e-09 -1.20503e-07 8.88669e-06)
(2.48856e-07 1.47022e-08 6.19489e-07 3.85199e-09 -1.03582e-07 1.03143e-05)
(2.34293e-07 -1.19891e-09 1.58814e-06 6.34757e-09 -2.00337e-07 2.13319e-05)
(3.34633e-07 2.30273e-09 1.81941e-06 1.47114e-08 -8.04264e-08 1.90679e-05)
(9.60569e-07 -2.41017e-07 5.02028e-06 2.38503e-07 -3.55308e-06 6.30166e-05)
(3.54104e-06 -3.5266e-06 4.96144e-07 4.55054e-06 1.00402e-06 1.84705e-05)
(1.81399e-07 -8.4481e-08 6.91113e-07 3.87012e-05 -1.46094e-06 7.00017e-05)
(2.68935e-06 3.0498e-06 7.01483e-09 4.75559e-06 1.04169e-06 6.94551e-06)
(1.09833e-06 2.96984e-07 -3.60485e-06 2.51982e-07 -2.29087e-06 2.6669e-05)