/*--------------------------------*- C++ -*----------------------------------*\
| =========                 |                                                 |
| \\      /  F ield         | OpenFOAM: The Open Source CFD Toolbox           |
|  \\    /   O peration     | Version:  v1912                                 |
|   \\  /    A nd           | Website:  www.openfoam.com                      |
|    \\/     M anipulation  |                                                 |
\*---------------------------------------------------------------------------*/
FoamFile
{
    version     2.0;
    format      ascii;
    class       volScalarField;
    location    "199.2";
    object      nut;
}
// * * * * * * * * * * * * * * * * * * * * * * * * * * * * * * * * * * * * * //

dimensions      [0 2 -1 0 0 0 0];


internalField   nonuniform List<scalar> 
10147
(
1.60728e-05
1.45014e-05
1.28122e-05
1.24481e-05
1.24939e-05
1.24788e-05
1.24529e-05
1.24256e-05
1.24236e-05
1.24277e-05
1.24578e-05
1.24865e-05
1.25044e-05
1.24604e-05
1.28224e-05
1.45019e-05
1.27587e-05
1.25762e-05
1.25186e-05
1.25084e-05
1.25086e-05
1.25121e-05
1.25257e-05
1.2585e-05
1.27671e-05
1.30764e-05
1.33946e-05
1.29629e-05
1.26463e-05
1.266e-05
1.26393e-05
1.25624e-05
1.29026e-05
1.46829e-05
1.28908e-05
1.57765e-05
1.4325e-05
1.28545e-05
1.25398e-05
1.25749e-05
1.25361e-05
1.24923e-05
1.24536e-05
1.24486e-05
1.24559e-05
1.24976e-05
1.25443e-05
1.25859e-05
1.25528e-05
1.28659e-05
1.43265e-05
1.54545e-05
1.41328e-05
1.28703e-05
1.26065e-05
1.2632e-05
1.25755e-05
1.25164e-05
1.24675e-05
1.24599e-05
1.247e-05
1.25219e-05
1.2584e-05
1.26435e-05
1.26201e-05
1.28825e-05
1.41353e-05
1.51193e-05
1.39287e-05
1.2865e-05
1.26511e-05
1.26693e-05
1.25982e-05
1.25258e-05
1.24681e-05
1.2458e-05
1.24707e-05
1.25315e-05
1.26068e-05
1.26808e-05
1.2665e-05
1.28779e-05
1.39322e-05
1.47769e-05
1.37182e-05
1.28407e-05
1.26745e-05
1.2688e-05
1.26049e-05
1.25212e-05
1.2456e-05
1.24439e-05
1.24588e-05
1.2527e-05
1.26137e-05
1.26996e-05
1.26887e-05
1.28544e-05
1.37227e-05
1.44276e-05
1.35054e-05
1.28e-05
1.26782e-05
1.26892e-05
1.25966e-05
1.25036e-05
1.24323e-05
1.24184e-05
1.24352e-05
1.25096e-05
1.26054e-05
1.27009e-05
1.26927e-05
1.28142e-05
1.35109e-05
1.40789e-05
1.32939e-05
1.27449e-05
1.26642e-05
1.26745e-05
1.25745e-05
1.24742e-05
1.23981e-05
1.23827e-05
1.2401e-05
1.24802e-05
1.25834e-05
1.26862e-05
1.26789e-05
1.27596e-05
1.33003e-05
1.37387e-05
1.30865e-05
1.26778e-05
1.26344e-05
1.26455e-05
1.25399e-05
1.24341e-05
1.23544e-05
1.23378e-05
1.23574e-05
1.24402e-05
1.25489e-05
1.26572e-05
1.26492e-05
1.26929e-05
1.30938e-05
1.34124e-05
1.28856e-05
1.26006e-05
1.25928e-05
1.26057e-05
1.24952e-05
1.23849e-05
1.23023e-05
1.22848e-05
1.23053e-05
1.23911e-05
1.25042e-05
1.26174e-05
1.26077e-05
1.2616e-05
1.28937e-05
1.31038e-05
1.26926e-05
1.25161e-05
1.25445e-05
1.25599e-05
1.24445e-05
1.23298e-05
1.22445e-05
1.22262e-05
1.22476e-05
1.23361e-05
1.24536e-05
1.25718e-05
1.25595e-05
1.25318e-05
1.27014e-05
1.28153e-05
1.25084e-05
1.24286e-05
1.2492e-05
1.25108e-05
1.23915e-05
1.22729e-05
1.21851e-05
1.21663e-05
1.21884e-05
1.22794e-05
1.24007e-05
1.25226e-05
1.2507e-05
1.24445e-05
1.25177e-05
1.25476e-05
1.23329e-05
1.23411e-05
1.24359e-05
1.24583e-05
1.23368e-05
1.22157e-05
1.21262e-05
1.21071e-05
1.21296e-05
1.22223e-05
1.23461e-05
1.24702e-05
1.24508e-05
1.23572e-05
1.23427e-05
1.22993e-05
1.21657e-05
1.22545e-05
1.23758e-05
1.2402e-05
1.22798e-05
1.21575e-05
1.20674e-05
1.20482e-05
1.20708e-05
1.21642e-05
1.22891e-05
1.24137e-05
1.23905e-05
1.22706e-05
1.21758e-05
1.2067e-05
1.20059e-05
1.21682e-05
1.23108e-05
1.23407e-05
1.22193e-05
1.20972e-05
1.20073e-05
1.19884e-05
1.20108e-05
1.21039e-05
1.22286e-05
1.23523e-05
1.23253e-05
1.21842e-05
1.20163e-05
1.18506e-05
1.18539e-05
1.20811e-05
1.22401e-05
1.22734e-05
1.21541e-05
1.20332e-05
1.19446e-05
1.19261e-05
1.1948e-05
1.20399e-05
1.21632e-05
1.22848e-05
1.22544e-05
1.20969e-05
1.18645e-05
1.16489e-05
1.17104e-05
1.1992e-05
1.21629e-05
1.21992e-05
1.20829e-05
1.19644e-05
1.18776e-05
1.18598e-05
1.18811e-05
1.1971e-05
1.20919e-05
1.22103e-05
1.21767e-05
1.20075e-05
1.17212e-05
1.14603e-05
1.15751e-05
1.18995e-05
1.20782e-05
1.21171e-05
1.20047e-05
1.18894e-05
1.18052e-05
1.17883e-05
1.18087e-05
1.18959e-05
1.20136e-05
1.21279e-05
1.20916e-05
1.19147e-05
1.15859e-05
1.12835e-05
1.14462e-05
1.18027e-05
1.19853e-05
1.20264e-05
1.19187e-05
1.18073e-05
1.17262e-05
1.17102e-05
1.17296e-05
1.18137e-05
1.19273e-05
1.20369e-05
1.19983e-05
1.18174e-05
1.1457e-05
1.11178e-05
1.13217e-05
1.17003e-05
1.18839e-05
1.19267e-05
1.18241e-05
1.17171e-05
1.16396e-05
1.16247e-05
1.16429e-05
1.17234e-05
1.18325e-05
1.19368e-05
1.18964e-05
1.17145e-05
1.13323e-05
1.09627e-05
1.11995e-05
1.15916e-05
1.17736e-05
1.18176e-05
1.17205e-05
1.16184e-05
1.15447e-05
1.15309e-05
1.1548e-05
1.16245e-05
1.17287e-05
1.18274e-05
1.17855e-05
1.16053e-05
1.12098e-05
1.08164e-05
1.10773e-05
1.14759e-05
1.16542e-05
1.16992e-05
1.16077e-05
1.15107e-05
1.1441e-05
1.14283e-05
1.14442e-05
1.15167e-05
1.16156e-05
1.17086e-05
1.16657e-05
1.1489e-05
1.10874e-05
1.06765e-05
1.09534e-05
1.13527e-05
1.15261e-05
1.15466e-05
1.14859e-05
1.13939e-05
1.13282e-05
1.13167e-05
1.13313e-05
1.13997e-05
1.14936e-05
1.15554e-05
1.15371e-05
1.13651e-05
1.09631e-05
1.05402e-05
1.0826e-05
1.1222e-05
1.13004e-05
1.12694e-05
1.12451e-05
1.12057e-05
1.1175e-05
1.11717e-05
1.11772e-05
1.12104e-05
1.12522e-05
1.12782e-05
1.13102e-05
1.12338e-05
1.08353e-05
1.04051e-05
1.06938e-05
1.10146e-05
1.10258e-05
1.09885e-05
1.09672e-05
1.09365e-05
1.09116e-05
1.09095e-05
1.09137e-05
1.09411e-05
1.09742e-05
1.09973e-05
1.10352e-05
1.10228e-05
1.07027e-05
1.02688e-05
1.0556e-05
1.0751e-05
1.07731e-05
1.07476e-05
1.07196e-05
1.06832e-05
1.06542e-05
1.0651e-05
1.06565e-05
1.06881e-05
1.07267e-05
1.07562e-05
1.07824e-05
1.07585e-05
1.05645e-05
1.01296e-05
1.04122e-05
1.05068e-05
1.05621e-05
1.05533e-05
1.0518e-05
1.04738e-05
1.04391e-05
1.04346e-05
1.04416e-05
1.04788e-05
1.0525e-05
1.05616e-05
1.05712e-05
1.05146e-05
1.04203e-05
9.9866e-06
1.02627e-05
1.03016e-05
1.03897e-05
1.03968e-05
1.03565e-05
1.03062e-05
1.02671e-05
1.02618e-05
1.02698e-05
1.03113e-05
1.03634e-05
1.04049e-05
1.03986e-05
1.03097e-05
1.02704e-05
9.8391e-06
1.01074e-05
1.01297e-05
1.02438e-05
1.02641e-05
1.02209e-05
1.0167e-05
1.01253e-05
1.01196e-05
1.01281e-05
1.01722e-05
1.02277e-05
1.02718e-05
1.02523e-05
1.0138e-05
1.01148e-05
9.68695e-06
9.94427e-06
9.97758e-06
1.01105e-05
1.01411e-05
1.00966e-05
1.0041e-05
9.99809e-06
9.99242e-06
1.00009e-05
1.00461e-05
1.01032e-05
1.01484e-05
1.01186e-05
9.98583e-06
9.95046e-06
9.52995e-06
9.74385e-06
9.83247e-06
9.97841e-06
1.0017e-05
9.972e-06
9.91604e-06
9.87298e-06
9.86749e-06
9.8758e-06
9.92113e-06
9.97836e-06
1.00239e-05
9.98619e-06
9.84057e-06
9.74948e-06
9.36765e-06
9.54123e-06
9.68609e-06
9.84092e-06
9.88556e-06
9.84083e-06
9.78533e-06
9.7427e-06
9.73749e-06
9.74547e-06
9.79031e-06
9.84696e-06
9.89213e-06
9.84834e-06
9.69394e-06
9.54664e-06
9.16642e-06
9.34616e-06
9.53423e-06
9.69505e-06
9.74441e-06
9.70034e-06
9.64574e-06
9.60388e-06
9.599e-06
9.6066e-06
9.65059e-06
9.70622e-06
9.75064e-06
9.70212e-06
9.54178e-06
9.35161e-06
8.9581e-06
9.1591e-06
9.37556e-06
9.5393e-06
9.59203e-06
9.54906e-06
9.4958e-06
9.45514e-06
9.45061e-06
9.45778e-06
9.50048e-06
9.55469e-06
9.59791e-06
9.546e-06
9.3828e-06
9.16459e-06
8.75625e-06
8.97706e-06
9.21008e-06
9.37129e-06
9.42543e-06
9.38437e-06
9.33328e-06
9.29491e-06
9.29076e-06
9.29743e-06
9.33774e-06
9.38971e-06
9.43094e-06
9.37761e-06
9.21698e-06
8.98254e-06
8.56375e-06
8.79615e-06
9.03756e-06
9.18479e-06
9.2366e-06
9.19915e-06
9.15232e-06
9.11877e-06
9.1151e-06
9.12108e-06
9.15644e-06
9.2041e-06
9.24173e-06
9.19064e-06
9.04408e-06
8.80148e-06
8.37991e-06
8.60993e-06
8.85495e-06
8.9633e-06
9.00524e-06
8.97526e-06
8.93709e-06
8.9141e-06
8.91112e-06
8.916e-06
8.94061e-06
8.97963e-06
9.00997e-06
8.96845e-06
8.86095e-06
8.61494e-06
8.2024e-06
8.40666e-06
8.65266e-06
8.72558e-06
8.76607e-06
8.73886e-06
8.70385e-06
8.68335e-06
8.68066e-06
8.68517e-06
8.70722e-06
8.74304e-06
8.77057e-06
8.73042e-06
8.65779e-06
8.41098e-06
8.02558e-06
8.18302e-06
8.41556e-06
8.48097e-06
8.51986e-06
8.49533e-06
8.46333e-06
8.4452e-06
8.44275e-06
8.44693e-06
8.46655e-06
8.49931e-06
8.52413e-06
8.4855e-06
8.42032e-06
8.18702e-06
7.83568e-06
7.9526e-06
8.17155e-06
8.22983e-06
8.26697e-06
8.24505e-06
8.21593e-06
8.20003e-06
8.19779e-06
8.20168e-06
8.21901e-06
8.24885e-06
8.27103e-06
8.23407e-06
8.17596e-06
7.95628e-06
7.61466e-06
7.71559e-06
7.92097e-06
7.97249e-06
8.00777e-06
7.98837e-06
7.96199e-06
7.94818e-06
7.94613e-06
7.94976e-06
7.96493e-06
7.99199e-06
8.01162e-06
7.97646e-06
7.92505e-06
7.71897e-06
7.38677e-06
7.47212e-06
7.66408e-06
7.70921e-06
7.74254e-06
7.72556e-06
7.7018e-06
7.68995e-06
7.68806e-06
7.69146e-06
7.70461e-06
7.72901e-06
7.74619e-06
7.71292e-06
7.66784e-06
7.4752e-06
7.15212e-06
7.22231e-06
7.4011e-06
7.4402e-06
7.4715e-06
7.45686e-06
7.43558e-06
7.42556e-06
7.42381e-06
7.42699e-06
7.43826e-06
7.46015e-06
7.47496e-06
7.44366e-06
7.40455e-06
7.22509e-06
6.91082e-06
6.96634e-06
7.13226e-06
7.16568e-06
7.19489e-06
7.18251e-06
7.16358e-06
7.15525e-06
7.15363e-06
7.15662e-06
7.16613e-06
7.18564e-06
7.19818e-06
7.16891e-06
7.13542e-06
6.96885e-06
6.66298e-06
6.70439e-06
6.85779e-06
6.88588e-06
6.91296e-06
6.90273e-06
6.88604e-06
6.87928e-06
6.87776e-06
6.88058e-06
6.88847e-06
6.90571e-06
6.91608e-06
6.88889e-06
6.86068e-06
6.70664e-06
6.40869e-06
6.43661e-06
6.57789e-06
6.60099e-06
6.62592e-06
6.61776e-06
6.60318e-06
6.59785e-06
6.59642e-06
6.59908e-06
6.60549e-06
6.62059e-06
6.62888e-06
6.6038e-06
6.58052e-06
6.43861e-06
6.14801e-06
6.16315e-06
6.29275e-06
6.3112e-06
6.33398e-06
6.32777e-06
6.31518e-06
6.31116e-06
6.30981e-06
6.31233e-06
6.31737e-06
6.33046e-06
6.33679e-06
6.31381e-06
6.29513e-06
6.1649e-06
5.88105e-06
5.88416e-06
6.00254e-06
6.0167e-06
6.03733e-06
6.03297e-06
6.02224e-06
6.01941e-06
6.01814e-06
6.02052e-06
6.02433e-06
6.03553e-06
6.04e-06
6.01912e-06
6.00469e-06
5.8857e-06
5.60794e-06
5.59986e-06
5.70748e-06
5.71769e-06
5.73621e-06
5.73359e-06
5.7246e-06
5.72284e-06
5.72163e-06
5.7239e-06
5.72658e-06
5.73602e-06
5.73874e-06
5.71994e-06
5.70942e-06
5.60118e-06
5.32887e-06
5.31048e-06
5.40784e-06
5.41445e-06
5.4309e-06
5.42989e-06
5.42253e-06
5.42173e-06
5.42058e-06
5.42273e-06
5.42441e-06
5.4322e-06
5.4333e-06
5.41653e-06
5.40958e-06
5.31161e-06
5.0441e-06
5.01637e-06
5.10395e-06
5.1073e-06
5.12176e-06
5.12224e-06
5.11638e-06
5.11643e-06
5.11532e-06
5.11737e-06
5.11815e-06
5.12442e-06
5.12403e-06
5.10923e-06
5.1055e-06
5.01732e-06
4.754e-06
4.71795e-06
4.79625e-06
4.7967e-06
4.80922e-06
4.81107e-06
4.80659e-06
4.80738e-06
4.80632e-06
4.80827e-06
4.80826e-06
4.81314e-06
4.81137e-06
4.79848e-06
4.79763e-06
4.71873e-06
4.45907e-06
4.41579e-06
4.4853e-06
4.4832e-06
4.4939e-06
4.49697e-06
4.49375e-06
4.49519e-06
4.49416e-06
4.49602e-06
4.49532e-06
4.49892e-06
4.49593e-06
4.48484e-06
4.48652e-06
4.41642e-06
4.15999e-06
4.11062e-06
4.17184e-06
4.16754e-06
4.17653e-06
4.18068e-06
4.17859e-06
4.18058e-06
4.17959e-06
4.18136e-06
4.18007e-06
4.18253e-06
4.17845e-06
4.16906e-06
4.17292e-06
4.11112e-06
3.85761e-06
3.80339e-06
3.85681e-06
3.85067e-06
3.85808e-06
3.86316e-06
3.86208e-06
3.86452e-06
3.86357e-06
3.86525e-06
3.86346e-06
3.8649e-06
3.8599e-06
3.85208e-06
3.85775e-06
3.80376e-06
3.55305e-06
3.49525e-06
3.54137e-06
3.53377e-06
3.53976e-06
3.5456e-06
3.54538e-06
3.54821e-06
3.5473e-06
3.54889e-06
3.54668e-06
3.54723e-06
3.54148e-06
3.53507e-06
3.5422e-06
3.49552e-06
3.24769e-06
3.18767e-06
3.22699e-06
3.21829e-06
3.22304e-06
3.22945e-06
3.22998e-06
3.2331e-06
3.23223e-06
3.23373e-06
3.23119e-06
3.23099e-06
3.22466e-06
3.21949e-06
3.22772e-06
3.18785e-06
2.94324e-06
2.88236e-06
2.9154e-06
2.90596e-06
2.90965e-06
2.91645e-06
2.91758e-06
2.92093e-06
2.9201e-06
2.92151e-06
2.91871e-06
2.91789e-06
2.91116e-06
2.90707e-06
2.91603e-06
2.88247e-06
2.6417e-06
2.58128e-06
2.60855e-06
2.59873e-06
2.60151e-06
2.60855e-06
2.61016e-06
2.61366e-06
2.61287e-06
2.61419e-06
2.6112e-06
2.60989e-06
2.60293e-06
2.59975e-06
2.6091e-06
2.58133e-06
2.34537e-06
2.2866e-06
2.30864e-06
2.29876e-06
2.30081e-06
2.30791e-06
2.30987e-06
2.31346e-06
2.31272e-06
2.31395e-06
2.31083e-06
2.30914e-06
2.30212e-06
2.2997e-06
2.30912e-06
2.2866e-06
2.05675e-06
2.00068e-06
2.01806e-06
2.00842e-06
2.00989e-06
2.01689e-06
2.01909e-06
2.02271e-06
2.02201e-06
2.02315e-06
2.01996e-06
2.01803e-06
2.0111e-06
2.00928e-06
2.01848e-06
2.00065e-06
1.77849e-06
1.72606e-06
1.73936e-06
1.73022e-06
1.73127e-06
1.73801e-06
1.74034e-06
1.74392e-06
1.74327e-06
1.74432e-06
1.74113e-06
1.73905e-06
1.73238e-06
1.73101e-06
1.73972e-06
1.726e-06
1.51336e-06
1.46535e-06
1.47516e-06
1.46675e-06
1.46751e-06
1.47385e-06
1.47621e-06
1.47968e-06
1.47908e-06
1.48004e-06
1.47691e-06
1.47478e-06
1.46852e-06
1.46745e-06
1.47547e-06
1.46527e-06
1.26411e-06
1.22108e-06
1.22802e-06
1.22049e-06
1.2211e-06
1.2269e-06
1.2292e-06
1.23251e-06
1.23196e-06
1.23282e-06
1.22982e-06
1.22774e-06
1.222e-06
1.22112e-06
1.2283e-06
1.22101e-06
1.03331e-06
9.95647e-07
1.00033e-06
9.93766e-07
9.94313e-07
9.99487e-07
1.00165e-06
1.00472e-06
1.00423e-06
1.00499e-06
1.00219e-06
1.00021e-06
9.95101e-07
9.94324e-07
1.00057e-06
9.95571e-07
8.21496e-07
7.88491e-07
7.91902e-07
7.8628e-07
7.86585e-07
7.91201e-07
7.93148e-07
7.95844e-07
7.95384e-07
7.9607e-07
7.93605e-07
7.91824e-07
7.87265e-07
7.86763e-07
7.92109e-07
7.88423e-07
6.30504e-07
6.0274e-07
6.05054e-07
6.00444e-07
6.00617e-07
6.0456e-07
6.06242e-07
6.08537e-07
6.08129e-07
6.08721e-07
6.0662e-07
6.05078e-07
6.01184e-07
6.00849e-07
6.05229e-07
6.02683e-07
4.64277e-07
4.41955e-07
4.43435e-07
4.39824e-07
4.39949e-07
4.4315e-07
4.44542e-07
4.46413e-07
4.46077e-07
4.46559e-07
4.44842e-07
4.43564e-07
4.40404e-07
4.4015e-07
4.43577e-07
4.41908e-07
3.25359e-07
3.08329e-07
3.0925e-07
3.0656e-07
3.06685e-07
3.09134e-07
3.10227e-07
3.11672e-07
3.11414e-07
3.11781e-07
3.10453e-07
3.09448e-07
3.07032e-07
3.0681e-07
3.09359e-07
3.08294e-07
2.14769e-07
2.0258e-07
2.03158e-07
2.01272e-07
2.01408e-07
2.03153e-07
2.03958e-07
2.04999e-07
2.04819e-07
2.05076e-07
2.04119e-07
2.03377e-07
2.01655e-07
2.01452e-07
2.03238e-07
2.02556e-07
1.31865e-07
1.23806e-07
1.2418e-07
1.22954e-07
1.23086e-07
1.24229e-07
1.24777e-07
1.25464e-07
1.25351e-07
1.25514e-07
1.24882e-07
1.24376e-07
1.23249e-07
1.23073e-07
1.24233e-07
1.23791e-07
7.42115e-08
6.93843e-08
6.96255e-08
6.89006e-08
6.90104e-08
6.96872e-08
7.00248e-08
7.04336e-08
7.03702e-08
7.04635e-08
7.00878e-08
6.97755e-08
6.91081e-08
6.89724e-08
6.96585e-08
6.93758e-08
3.76714e-08
3.5108e-08
3.52531e-08
3.48725e-08
3.49476e-08
3.5304e-08
3.54882e-08
3.57035e-08
3.56726e-08
3.57194e-08
3.55218e-08
3.53511e-08
3.49998e-08
3.4911e-08
3.52712e-08
3.51039e-08
1.69539e-08
1.57724e-08
1.58484e-08
1.56751e-08
1.57171e-08
1.58812e-08
1.59683e-08
1.60671e-08
1.6054e-08
1.60745e-08
1.5984e-08
1.59032e-08
1.57415e-08
1.56932e-08
1.58571e-08
1.57708e-08
6.62846e-09
6.16562e-09
6.19862e-09
6.13187e-09
6.15074e-09
6.21573e-09
6.25063e-09
6.28947e-09
6.28471e-09
6.29246e-09
6.25692e-09
6.22454e-09
6.16048e-09
6.13916e-09
6.2022e-09
6.16507e-09
2.18543e-09
2.03532e-09
2.04682e-09
2.02569e-09
2.0324e-09
2.05397e-09
2.06552e-09
2.07829e-09
2.0768e-09
2.0793e-09
2.06762e-09
2.05692e-09
2.03565e-09
2.02814e-09
2.04804e-09
2.03518e-09
5.77556e-10
5.391e-10
5.4217e-10
5.36939e-10
5.38763e-10
5.44483e-10
5.47493e-10
5.50846e-10
5.50462e-10
5.51116e-10
5.48054e-10
5.45267e-10
5.39627e-10
5.37593e-10
5.42502e-10
5.39071e-10
1.12108e-10
1.04996e-10
1.05579e-10
1.04653e-10
1.05008e-10
1.06108e-10
1.06677e-10
1.07315e-10
1.07243e-10
1.07368e-10
1.06785e-10
1.06259e-10
1.05174e-10
1.04779e-10
1.05644e-10
1.04993e-10
1.48267e-11
1.40043e-11
1.40795e-11
1.39748e-11
1.40243e-11
1.41519e-11
1.42231e-11
1.42955e-11
1.42898e-11
1.43018e-11
1.42359e-11
1.41696e-11
1.40437e-11
1.39895e-11
1.40871e-11
1.40039e-11
3.17192e-12
3.07698e-12
3.09453e-12
3.07848e-12
3.09293e-12
3.10085e-12
3.11439e-12
3.1178e-12
3.1209e-12
3.11833e-12
3.11547e-12
3.10227e-12
3.09444e-12
3.07953e-12
3.09496e-12
3.07676e-12
2.82498e-12
2.75683e-12
2.77284e-12
2.75953e-12
2.77344e-12
2.77602e-12
2.78781e-12
2.78821e-12
2.79194e-12
2.7885e-12
2.7884e-12
2.77676e-12
2.7742e-12
2.76e-12
2.77295e-12
2.75659e-12
1.30724e-05
1.31839e-05
1.34354e-05
1.31122e-05
1.28259e-05
1.26721e-05
1.26304e-05
1.263e-05
1.26319e-05
1.26336e-05
1.26374e-05
1.26807e-05
1.28341e-05
1.31174e-05
1.34362e-05
1.31819e-05
1.33866e-05
1.33755e-05
1.34627e-05
1.31383e-05
1.28774e-05
1.27499e-05
1.27233e-05
1.27323e-05
1.2736e-05
1.27358e-05
1.27301e-05
1.27583e-05
1.28852e-05
1.31432e-05
1.3463e-05
1.33726e-05
1.366e-05
1.35353e-05
1.34722e-05
1.31472e-05
1.29103e-05
1.28076e-05
1.27955e-05
1.28133e-05
1.28185e-05
1.28167e-05
1.28021e-05
1.28158e-05
1.29179e-05
1.31518e-05
1.34721e-05
1.35315e-05
1.38916e-05
1.36624e-05
1.34648e-05
1.31399e-05
1.29249e-05
1.28456e-05
1.28469e-05
1.28726e-05
1.2879e-05
1.28759e-05
1.28533e-05
1.28535e-05
1.29322e-05
1.31441e-05
1.34642e-05
1.36578e-05
1.40799e-05
1.37563e-05
1.34411e-05
1.31173e-05
1.29223e-05
1.28645e-05
1.28779e-05
1.29105e-05
1.29179e-05
1.29136e-05
1.2884e-05
1.2872e-05
1.29293e-05
1.31212e-05
1.34401e-05
1.3751e-05
1.42249e-05
1.38177e-05
1.34019e-05
1.30805e-05
1.29036e-05
1.2865e-05
1.28891e-05
1.29277e-05
1.29358e-05
1.29306e-05
1.28949e-05
1.28722e-05
1.29103e-05
1.30841e-05
1.34006e-05
1.38117e-05
1.4328e-05
1.38473e-05
1.33481e-05
1.3031e-05
1.2871e-05
1.28494e-05
1.28827e-05
1.2926e-05
1.29346e-05
1.29289e-05
1.28882e-05
1.28564e-05
1.28775e-05
1.30345e-05
1.33466e-05
1.38409e-05
1.43909e-05
1.38469e-05
1.32821e-05
1.29731e-05
1.28297e-05
1.28232e-05
1.28638e-05
1.29106e-05
1.29194e-05
1.29134e-05
1.28692e-05
1.28301e-05
1.28361e-05
1.29764e-05
1.32805e-05
1.38401e-05
1.44161e-05
1.38193e-05
1.32083e-05
1.29118e-05
1.27846e-05
1.27909e-05
1.28371e-05
1.28862e-05
1.28949e-05
1.2889e-05
1.28425e-05
1.27977e-05
1.27909e-05
1.29151e-05
1.32066e-05
1.38122e-05
1.44062e-05
1.37685e-05
1.313e-05
1.28491e-05
1.27366e-05
1.27538e-05
1.28041e-05
1.28545e-05
1.28631e-05
1.28573e-05
1.28094e-05
1.27605e-05
1.2743e-05
1.28524e-05
1.31284e-05
1.37612e-05
1.43639e-05
1.3698e-05
1.30484e-05
1.27845e-05
1.26853e-05
1.27115e-05
1.27647e-05
1.28158e-05
1.28242e-05
1.28186e-05
1.277e-05
1.27181e-05
1.26916e-05
1.27878e-05
1.30468e-05
1.36906e-05
1.42926e-05
1.36105e-05
1.29628e-05
1.27165e-05
1.26294e-05
1.2663e-05
1.27182e-05
1.27695e-05
1.27775e-05
1.27723e-05
1.27234e-05
1.26696e-05
1.26356e-05
1.27198e-05
1.29614e-05
1.36032e-05
1.41952e-05
1.35078e-05
1.28723e-05
1.26437e-05
1.25673e-05
1.26071e-05
1.26636e-05
1.27147e-05
1.27223e-05
1.27175e-05
1.26688e-05
1.26136e-05
1.25735e-05
1.2647e-05
1.2871e-05
1.35007e-05
1.4075e-05
1.33913e-05
1.27757e-05
1.25644e-05
1.24977e-05
1.25426e-05
1.25997e-05
1.26503e-05
1.26575e-05
1.2653e-05
1.26048e-05
1.25489e-05
1.25037e-05
1.25677e-05
1.27744e-05
1.33844e-05
1.39345e-05
1.3262e-05
1.26715e-05
1.24771e-05
1.24189e-05
1.2468e-05
1.25253e-05
1.25752e-05
1.2582e-05
1.25779e-05
1.25302e-05
1.24742e-05
1.24249e-05
1.24803e-05
1.26704e-05
1.32553e-05
1.37761e-05
1.31204e-05
1.25586e-05
1.23803e-05
1.23297e-05
1.23822e-05
1.24393e-05
1.24883e-05
1.24947e-05
1.24909e-05
1.24441e-05
1.23883e-05
1.23356e-05
1.23834e-05
1.25576e-05
1.31139e-05
1.36016e-05
1.2967e-05
1.24359e-05
1.22727e-05
1.22289e-05
1.22841e-05
1.23407e-05
1.23887e-05
1.23947e-05
1.23913e-05
1.23454e-05
1.22901e-05
1.22346e-05
1.22759e-05
1.24349e-05
1.29608e-05
1.34131e-05
1.28023e-05
1.23024e-05
1.21535e-05
1.21156e-05
1.2173e-05
1.22288e-05
1.22758e-05
1.22813e-05
1.22783e-05
1.22333e-05
1.21788e-05
1.21212e-05
1.21566e-05
1.23016e-05
1.27963e-05
1.32124e-05
1.26267e-05
1.21579e-05
1.20221e-05
1.19894e-05
1.20485e-05
1.21033e-05
1.21492e-05
1.21544e-05
1.21516e-05
1.21077e-05
1.20541e-05
1.19948e-05
1.20251e-05
1.21572e-05
1.2621e-05
1.3001e-05
1.2441e-05
1.20023e-05
1.18784e-05
1.18502e-05
1.19107e-05
1.19644e-05
1.20093e-05
1.2014e-05
1.20116e-05
1.19687e-05
1.19161e-05
1.18555e-05
1.18814e-05
1.20017e-05
1.24357e-05
1.27802e-05
1.22462e-05
1.18363e-05
1.17232e-05
1.16988e-05
1.17604e-05
1.1813e-05
1.18568e-05
1.18611e-05
1.1859e-05
1.18171e-05
1.17657e-05
1.1704e-05
1.17261e-05
1.18357e-05
1.22411e-05
1.25513e-05
1.2043e-05
1.16605e-05
1.15574e-05
1.15363e-05
1.15988e-05
1.16501e-05
1.16928e-05
1.16969e-05
1.16951e-05
1.16542e-05
1.16039e-05
1.15414e-05
1.15603e-05
1.166e-05
1.20382e-05
1.23148e-05
1.18322e-05
1.14761e-05
1.13823e-05
1.13642e-05
1.14272e-05
1.14772e-05
1.15187e-05
1.15223e-05
1.15209e-05
1.14811e-05
1.14322e-05
1.13691e-05
1.13851e-05
1.14756e-05
1.18277e-05
1.20713e-05
1.16141e-05
1.12835e-05
1.11987e-05
1.11834e-05
1.12466e-05
1.12949e-05
1.13352e-05
1.13384e-05
1.13373e-05
1.12987e-05
1.12514e-05
1.11882e-05
1.12015e-05
1.12831e-05
1.161e-05
1.18214e-05
1.13892e-05
1.10831e-05
1.10073e-05
1.09945e-05
1.10574e-05
1.1104e-05
1.11429e-05
1.11458e-05
1.11449e-05
1.11077e-05
1.10621e-05
1.09992e-05
1.10101e-05
1.10828e-05
1.13854e-05
1.15654e-05
1.11579e-05
1.08755e-05
1.08084e-05
1.07981e-05
1.08603e-05
1.0905e-05
1.09424e-05
1.09449e-05
1.09444e-05
1.09086e-05
1.08649e-05
1.08027e-05
1.08112e-05
1.08753e-05
1.11544e-05
1.13037e-05
1.09204e-05
1.06608e-05
1.06021e-05
1.05941e-05
1.06554e-05
1.06981e-05
1.07339e-05
1.07359e-05
1.07358e-05
1.07015e-05
1.06597e-05
1.05985e-05
1.06049e-05
1.06607e-05
1.09172e-05
1.10365e-05
1.06764e-05
1.04389e-05
1.03883e-05
1.03823e-05
1.04423e-05
1.04831e-05
1.05173e-05
1.0519e-05
1.05192e-05
1.04864e-05
1.04466e-05
1.03867e-05
1.0391e-05
1.0439e-05
1.06735e-05
1.07641e-05
1.04263e-05
1.02102e-05
1.01669e-05
1.01628e-05
1.02213e-05
1.026e-05
1.02926e-05
1.0294e-05
1.02944e-05
1.02633e-05
1.02254e-05
1.0167e-05
1.01696e-05
1.02103e-05
1.04237e-05
1.04868e-05
1.01704e-05
9.9749e-06
9.9384e-06
9.93595e-06
9.99262e-06
1.00294e-05
1.00604e-05
1.00614e-05
1.00622e-05
1.00326e-05
9.99662e-06
9.94006e-06
9.94114e-06
9.9752e-06
1.01682e-05
1.02051e-05
9.90924e-06
9.73362e-06
9.70325e-06
9.70222e-06
9.75696e-06
9.79179e-06
9.82101e-06
9.82178e-06
9.82277e-06
9.79486e-06
9.76082e-06
9.70622e-06
9.70597e-06
9.73405e-06
9.90724e-06
9.91936e-06
9.64307e-06
9.48662e-06
9.46177e-06
9.46196e-06
9.51465e-06
9.54738e-06
9.57487e-06
9.57536e-06
9.57658e-06
9.55035e-06
9.51839e-06
9.46585e-06
9.46447e-06
9.48717e-06
9.64134e-06
9.62982e-06
9.37223e-06
9.23412e-06
9.21414e-06
9.2154e-06
9.26587e-06
9.29644e-06
9.32221e-06
9.32244e-06
9.32387e-06
9.29933e-06
9.26949e-06
9.21918e-06
9.21683e-06
9.23481e-06
9.37075e-06
9.33675e-06
9.09697e-06
8.97631e-06
8.96047e-06
8.96265e-06
9.01079e-06
9.0392e-06
9.06327e-06
9.06327e-06
9.06489e-06
9.04199e-06
9.0143e-06
8.96633e-06
8.96316e-06
8.97712e-06
9.09574e-06
9.04042e-06
8.81755e-06
8.71335e-06
8.70095e-06
8.70387e-06
8.74963e-06
8.7759e-06
8.79834e-06
8.79811e-06
8.79991e-06
8.77861e-06
8.75304e-06
8.70745e-06
8.70362e-06
8.71428e-06
8.81655e-06
8.7411e-06
8.53422e-06
8.44543e-06
8.43584e-06
8.43935e-06
8.4827e-06
8.50686e-06
8.52773e-06
8.52731e-06
8.52926e-06
8.50949e-06
8.486e-06
8.44284e-06
8.4385e-06
8.44648e-06
8.53343e-06
8.43904e-06
8.24726e-06
8.17276e-06
8.16549e-06
8.16943e-06
8.21038e-06
8.23249e-06
8.25184e-06
8.25124e-06
8.25332e-06
8.23504e-06
8.21358e-06
8.17283e-06
8.16814e-06
8.17392e-06
8.24667e-06
8.1345e-06
7.957e-06
7.89555e-06
7.89023e-06
7.89444e-06
7.93306e-06
7.95323e-06
7.97112e-06
7.97036e-06
7.97255e-06
7.95569e-06
7.93616e-06
7.89775e-06
7.89286e-06
7.8968e-06
7.9566e-06
7.82775e-06
7.66379e-06
7.614e-06
7.61035e-06
7.61467e-06
7.65107e-06
7.66942e-06
7.68591e-06
7.68502e-06
7.6873e-06
7.67181e-06
7.65407e-06
7.61789e-06
7.61295e-06
7.61534e-06
7.66356e-06
7.51903e-06
7.36776e-06
7.32819e-06
7.32596e-06
7.33028e-06
7.36459e-06
7.38127e-06
7.39641e-06
7.39543e-06
7.39776e-06
7.38358e-06
7.36751e-06
7.33342e-06
7.32855e-06
7.32961e-06
7.36768e-06
7.20849e-06
7.06895e-06
7.03824e-06
7.03724e-06
7.04143e-06
7.07382e-06
7.08897e-06
7.10282e-06
7.10177e-06
7.10412e-06
7.0912e-06
7.07664e-06
7.0445e-06
7.0398e-06
7.03972e-06
7.06901e-06
6.89616e-06
6.76749e-06
6.74434e-06
6.74442e-06
6.7484e-06
6.77899e-06
6.79275e-06
6.80538e-06
6.80427e-06
6.80664e-06
6.79491e-06
6.78173e-06
6.75138e-06
6.74696e-06
6.74589e-06
6.76766e-06
6.58206e-06
6.46341e-06
6.44667e-06
6.44769e-06
6.45136e-06
6.48031e-06
6.49282e-06
6.50427e-06
6.50314e-06
6.50549e-06
6.49491e-06
6.48297e-06
6.45428e-06
6.4502e-06
6.44826e-06
6.46369e-06
6.26611e-06
6.15676e-06
6.14535e-06
6.14719e-06
6.1505e-06
6.17793e-06
6.18931e-06
6.19965e-06
6.19851e-06
6.20083e-06
6.19133e-06
6.18052e-06
6.15335e-06
6.14968e-06
6.14698e-06
6.15713e-06
5.94825e-06
5.84755e-06
5.84052e-06
5.8431e-06
5.84599e-06
5.87202e-06
5.88238e-06
5.89165e-06
5.89052e-06
5.89279e-06
5.88434e-06
5.87453e-06
5.84878e-06
5.84555e-06
5.84219e-06
5.848e-06
5.62849e-06
5.53588e-06
5.53237e-06
5.5356e-06
5.53805e-06
5.56277e-06
5.57223e-06
5.58048e-06
5.57938e-06
5.58158e-06
5.57412e-06
5.56521e-06
5.54077e-06
5.53803e-06
5.53407e-06
5.53639e-06
5.30689e-06
5.22192e-06
5.22119e-06
5.22499e-06
5.22699e-06
5.25048e-06
5.25912e-06
5.2664e-06
5.26535e-06
5.26747e-06
5.26095e-06
5.25285e-06
5.22965e-06
5.22739e-06
5.2229e-06
5.22249e-06
4.98368e-06
4.90596e-06
4.90736e-06
4.91169e-06
4.91321e-06
4.93556e-06
4.94345e-06
4.94981e-06
4.94882e-06
4.95084e-06
4.94522e-06
4.93786e-06
4.91581e-06
4.91405e-06
4.90909e-06
4.90658e-06
4.65926e-06
4.58849e-06
4.59147e-06
4.59625e-06
4.59732e-06
4.61856e-06
4.62578e-06
4.63127e-06
4.63034e-06
4.63226e-06
4.62748e-06
4.62079e-06
4.59986e-06
4.59857e-06
4.59319e-06
4.58914e-06
4.33424e-06
4.27017e-06
4.27425e-06
4.27945e-06
4.28009e-06
4.30025e-06
4.30685e-06
4.31153e-06
4.31068e-06
4.31249e-06
4.3085e-06
4.30242e-06
4.28257e-06
4.28173e-06
4.27598e-06
4.27086e-06
4.00949e-06
3.95192e-06
3.95673e-06
3.96228e-06
3.96253e-06
3.98163e-06
3.98766e-06
3.99159e-06
3.99081e-06
3.99251e-06
3.98924e-06
3.98374e-06
3.96494e-06
3.96452e-06
3.95845e-06
3.95263e-06
3.68617e-06
3.6349e-06
3.64014e-06
3.64599e-06
3.6459e-06
3.66395e-06
3.66944e-06
3.67267e-06
3.67197e-06
3.67355e-06
3.67096e-06
3.66598e-06
3.64824e-06
3.64817e-06
3.64184e-06
3.63563e-06
3.36567e-06
3.32053e-06
3.32598e-06
3.33206e-06
3.3317e-06
3.34868e-06
3.35366e-06
3.35626e-06
3.35564e-06
3.35711e-06
3.35511e-06
3.35064e-06
3.33396e-06
3.33419e-06
3.32764e-06
3.32127e-06
3.04972e-06
3.01047e-06
3.01598e-06
3.02223e-06
3.02165e-06
3.03756e-06
3.04204e-06
3.04409e-06
3.04354e-06
3.04489e-06
3.04343e-06
3.03944e-06
3.02383e-06
3.02428e-06
3.0176e-06
3.01121e-06
2.74027e-06
2.70665e-06
2.7051e-06
2.70087e-06
2.70085e-06
2.71653e-06
2.72471e-06
2.72508e-06
2.72621e-06
2.72597e-06
2.72622e-06
2.71855e-06
2.70313e-06
2.70291e-06
2.70653e-06
2.70739e-06
2.41551e-06
2.37156e-06
2.36768e-06
2.3641e-06
2.36358e-06
2.37827e-06
2.3858e-06
2.38586e-06
2.38695e-06
2.3867e-06
2.38722e-06
2.38018e-06
2.36575e-06
2.36604e-06
2.36904e-06
2.37207e-06
2.0891e-06
2.05112e-06
2.04769e-06
2.04656e-06
2.0456e-06
2.05895e-06
2.06505e-06
2.06511e-06
2.06586e-06
2.06587e-06
2.06634e-06
2.06071e-06
2.0476e-06
2.04836e-06
2.04899e-06
2.0516e-06
1.78768e-06
1.75795e-06
1.75561e-06
1.75651e-06
1.75539e-06
1.76728e-06
1.77202e-06
1.77213e-06
1.77257e-06
1.7728e-06
1.77317e-06
1.76885e-06
1.75719e-06
1.75816e-06
1.75683e-06
1.75843e-06
1.51631e-06
1.49389e-06
1.49266e-06
1.49489e-06
1.49381e-06
1.50421e-06
1.50785e-06
1.508e-06
1.50821e-06
1.50859e-06
1.50886e-06
1.5056e-06
1.49541e-06
1.49637e-06
1.49378e-06
1.49436e-06
1.27461e-06
1.25809e-06
1.25781e-06
1.26079e-06
1.25986e-06
1.26883e-06
1.2716e-06
1.27177e-06
1.27181e-06
1.27227e-06
1.27247e-06
1.27004e-06
1.26126e-06
1.2621e-06
1.25882e-06
1.25853e-06
1.06089e-06
1.04898e-06
1.04947e-06
1.05277e-06
1.05203e-06
1.05966e-06
1.06175e-06
1.06193e-06
1.06187e-06
1.06236e-06
1.0625e-06
1.06071e-06
1.05324e-06
1.05392e-06
1.05037e-06
1.04939e-06
8.73126e-07
8.64758e-07
8.65828e-07
8.69152e-07
8.68617e-07
8.75019e-07
8.76585e-07
8.76748e-07
8.76637e-07
8.77113e-07
8.77223e-07
8.75913e-07
8.69657e-07
8.70139e-07
8.66613e-07
8.65133e-07
7.09237e-07
7.03552e-07
7.05007e-07
7.08156e-07
7.07818e-07
7.1311e-07
7.14277e-07
7.14418e-07
7.14282e-07
7.14723e-07
7.14813e-07
7.13864e-07
7.08697e-07
7.08997e-07
7.05684e-07
7.03886e-07
5.67116e-07
5.63432e-07
5.65105e-07
5.67954e-07
5.67794e-07
5.72094e-07
5.72962e-07
5.73074e-07
5.72937e-07
5.73326e-07
5.73406e-07
5.72722e-07
5.68527e-07
5.6866e-07
5.65679e-07
5.63723e-07
4.4404e-07
4.41821e-07
4.4365e-07
4.46122e-07
4.46129e-07
4.49551e-07
4.502e-07
4.50267e-07
4.50147e-07
4.50472e-07
4.50563e-07
4.50065e-07
4.46732e-07
4.46707e-07
4.44131e-07
4.42071e-07
3.27184e-07
3.26373e-07
3.29364e-07
3.31435e-07
3.31864e-07
3.34472e-07
3.35032e-07
3.34898e-07
3.34855e-07
3.35072e-07
3.35343e-07
3.34916e-07
3.32388e-07
3.31952e-07
3.29802e-07
3.26613e-07
2.28158e-07
2.27761e-07
2.30296e-07
2.31824e-07
2.32263e-07
2.34157e-07
2.34594e-07
2.34457e-07
2.34444e-07
2.34588e-07
2.3483e-07
2.34494e-07
2.32662e-07
2.32218e-07
2.30632e-07
2.27946e-07
1.49405e-07
1.49196e-07
1.51153e-07
1.52198e-07
1.52579e-07
1.53876e-07
1.54202e-07
1.54081e-07
1.54086e-07
1.54174e-07
1.54369e-07
1.54116e-07
1.52863e-07
1.52478e-07
1.51393e-07
1.49329e-07
9.06465e-08
9.05202e-08
9.1876e-08
9.25303e-08
9.28175e-08
9.36404e-08
9.38652e-08
9.37736e-08
9.37864e-08
9.38343e-08
9.39745e-08
9.3797e-08
9.30031e-08
9.27138e-08
9.20332e-08
9.06073e-08
5.02852e-08
5.02023e-08
5.10322e-08
5.14032e-08
5.15906e-08
5.20653e-08
5.22055e-08
5.21464e-08
5.21589e-08
5.21821e-08
5.227e-08
5.21578e-08
5.17001e-08
5.15113e-08
5.11248e-08
5.02536e-08
2.51914e-08
2.51403e-08
2.55829e-08
2.57715e-08
2.58769e-08
2.61219e-08
2.6199e-08
2.61669e-08
2.61755e-08
2.61855e-08
2.62327e-08
2.61703e-08
2.59342e-08
2.5828e-08
2.56312e-08
2.5167e-08
1.12527e-08
1.12258e-08
1.14293e-08
1.15146e-08
1.15654e-08
1.16769e-08
1.17136e-08
1.16991e-08
1.17036e-08
1.17076e-08
1.17291e-08
1.16991e-08
1.15916e-08
1.15404e-08
1.14513e-08