/*--------------------------------*- C++ -*----------------------------------*\
| =========                 |                                                 |
| \\      /  F ield         | OpenFOAM: The Open Source CFD Toolbox           |
|  \\    /   O peration     | Version:  v1912                                 |
|   \\  /    A nd           | Website:  www.openfoam.com                      |
|    \\/     M anipulation  |                                                 |
\*---------------------------------------------------------------------------*/
FoamFile
{
    version     2.0;
    format      ascii;
    class       surfaceScalarField;
    location    "199.2";
    object      phi;
}
// * * * * * * * * * * * * * * * * * * * * * * * * * * * * * * * * * * * * * //

dimensions      [1 0 -1 0 0 0 0];
oriented        oriented;


internalField   nonuniform List<scalar> 
28397
(
1.08241e-06
0.000105587
1.8208e-06
5.88664e-05
6.08191e-07
3.4675e-05
3.35289e-07
3.8939e-05
8.53495e-08
0.000139519
3.76369e-05
4.92519e-08
0.00013958
4.37048e-05
1.81285e-09
0.000139611
4.43042e-05
2.00561e-08
0.0001396
4.75186e-05
1.99096e-08
0.000139606
4.65321e-05
3.37328e-08
0.000139622
4.74339e-05
-1.92991e-08
0.000139651
4.41397e-05
-6.4925e-08
0.000139633
4.34954e-05
-3.18262e-07
0.000139577
3.74623e-05
-5.97751e-07
0.000139275
3.87298e-05
-1.8133e-06
0.000138739
3.44547e-05
0.000137556
5.85505e-05
8.14217e-08
-6.67579e-05
9.23148e-08
-6.90495e-05
7.67573e-08
-7.03163e-05
3.00014e-08
-7.18039e-05
-8.83335e-09
-7.16586e-05
-5.67244e-08
-7.18036e-05
-7.298e-08
0.00013894
-7.03106e-05
-6.13346e-08
0.000138935
-6.90339e-05
5.9756e-08
0.00013888
-6.67112e-05
9.4364e-08
0.000138619
-6.34341e-05
2.84985e-07
0.000138044
-6.79233e-05
0.000136846
-6.79731e-05
-7.63605e-08
-4.8163e-05
-1.53804e-07
-4.99278e-05
-2.49823e-07
-5.13801e-05
-6.05304e-07
-5.16817e-05
-9.45756e-07
-5.2235e-05
0.000136705
-2.85985e-05
-4.21464e-05
1.04326e-06
0.000102988
0.000136908
1.79125e-06
5.78412e-05
0.000137519
6.30798e-07
3.56397e-05
0.000138644
3.47821e-07
3.9086e-05
0.000139154
9.67783e-08
3.76968e-05
0.000139456
5.6479e-08
4.35704e-05
0.000139526
5.01242e-09
4.41552e-05
0.000139565
2.12231e-08
4.73093e-05
0.00013956
1.88754e-08
4.63267e-05
0.000139567
3.09924e-08
4.72275e-05
0.000139581
-2.65091e-08
4.39942e-05
0.000139604
-7.49923e-08
4.33657e-05
0.000139577
-3.30783e-07
3.75229e-05
0.000139512
-6.20392e-07
3.88795e-05
0.000139207
-1.78423e-06
3.5419e-05
0.000138688
5.75285e-05
0.000137548
9.85074e-07
0.000100484
0.000134489
1.71249e-06
5.68084e-05
0.000135051
6.36518e-07
3.6479e-05
0.000136114
3.53558e-07
3.91937e-05
0.000136597
1.05533e-07
3.77144e-05
0.000136895
6.22186e-08
4.33986e-05
0.000136972
8.02372e-09
4.39684e-05
0.000137018
2.2174e-08
4.70613e-05
0.000137019
1.73436e-08
4.6083e-05
0.000137028
2.76373e-08
4.69821e-05
0.000137039
-3.2654e-08
4.38111e-05
0.000137056
-8.34943e-08
4.31982e-05
0.000137021
-3.36891e-07
3.75421e-05
0.00013695
-6.26372e-07
3.89901e-05
0.000136648
-1.70613e-06
3.62586e-05
0.000136156
5.64994e-05
0.000135078
9.28452e-07
9.80727e-05
0.000132078
1.62698e-06
5.57782e-05
0.000132591
6.34774e-07
3.71955e-05
0.000133593
3.57845e-07
3.92576e-05
0.000134049
1.13481e-07
3.76909e-05
0.000134343
6.73055e-08
4.3191e-05
0.000134425
1.08519e-08
4.3745e-05
0.000134478
2.31193e-08
4.6776e-05
0.000134483
1.57922e-08
4.58028e-05
0.000134493
2.44e-08
4.66993e-05
0.000134502
-3.81228e-08
4.35915e-05
0.000134513
-9.14895e-08
4.29948e-05
0.000134472
-3.41578e-07
3.75208e-05
0.000134395
-6.24906e-07
3.9057e-05
0.000134098
-1.62127e-06
3.6976e-05
0.000133633
5.54734e-05
0.000132617
8.75305e-07
9.57488e-05
0.000129677
1.5419e-06
5.47553e-05
0.000130141
6.28961e-07
3.77961e-05
0.000131084
3.60705e-07
3.92771e-05
0.000131513
1.20609e-07
3.76275e-05
0.000131801
7.18306e-08
4.29493e-05
0.000131887
1.34583e-08
4.34867e-05
0.000131946
2.39882e-08
4.64555e-05
0.000131956
1.42667e-08
4.5488e-05
0.000131968
2.13268e-08
4.63812e-05
0.000131975
-4.30582e-08
4.33372e-05
0.000131981
-9.88136e-08
4.27573e-05
0.000131933
-3.44834e-07
3.74601e-05
0.000131852
-6.19365e-07
3.90797e-05
0.000131561
-1.53679e-06
3.75781e-05
0.000131123
5.44552e-05
0.000130166
8.25636e-07
9.3506e-05
0.000127288
1.4588e-06
5.37423e-05
0.000127705
6.20336e-07
3.82877e-05
0.000128589
3.62305e-07
3.92524e-05
0.000128992
1.26949e-07
3.75258e-05
0.000129274
7.58447e-08
4.26753e-05
0.000129363
1.58416e-08
4.31955e-05
0.000129427
2.47715e-08
4.61017e-05
0.000129441
1.27766e-08
4.51407e-05
0.000129454
1.84348e-08
4.60297e-05
0.000129459
-4.75177e-08
4.30499e-05
0.00012946
-1.05438e-07
4.24876e-05
0.000129407
-3.4682e-07
3.73615e-05
0.000129323
-6.11003e-07
3.90583e-05
0.000129038
-1.45424e-06
3.80717e-05
0.000128626
5.34472e-05
0.000127728
7.79321e-07
9.13387e-05
0.000124912
1.37852e-06
5.27409e-05
0.000125283
6.0971e-07
3.8677e-05
0.00012611
3.62788e-07
3.91844e-05
0.000126487
1.32552e-07
3.73872e-05
0.000126762
7.93897e-08
4.23707e-05
0.000126855
1.80047e-08
4.28729e-05
0.000126923
2.54661e-08
4.57165e-05
0.000126941
1.13289e-08
4.47628e-05
0.000126954
1.57431e-08
4.56467e-05
0.000126958
-5.15439e-08
4.27315e-05
0.000126955
-1.11383e-07
4.21874e-05
0.000126897
-3.4768e-07
3.72262e-05
0.00012681
-6.00629e-07
3.89937e-05
0.000126531
-1.37444e-06
3.84635e-05
0.000126146
5.24513e-05
0.000125305
7.3628e-07
8.92411e-05
0.000122552
1.30175e-06
5.17519e-05
0.000122877
5.97746e-07
3.89708e-05
0.00012365
3.6229e-07
3.90742e-05
0.000124001
1.37469e-07
3.7213e-05
0.000124269
8.2504e-08
4.2037e-05
0.000124364
1.99506e-08
4.25207e-05
0.000124436
2.60703e-08
4.53017e-05
0.000124457
9.92927e-09
4.43561e-05
0.000124472
1.32772e-08
4.52339e-05
0.000124474
-5.51749e-08
4.23836e-05
0.000124467
-1.16682e-07
4.18582e-05
0.000124405
-3.47546e-07
3.70556e-05
0.000124315
-5.88902e-07
3.88871e-05
0.000124044
-1.2981e-06
3.87602e-05
0.000123685
5.1468e-05
0.000122899
6.9639e-07
8.72078e-05
0.000120209
1.22889e-06
5.07756e-05
0.000120489
5.84927e-07
3.91756e-05
0.000121209
3.60938e-07
3.89235e-05
0.000121536
1.41751e-07
3.70045e-05
0.000121797
8.52228e-08
4.16757e-05
0.000121892
2.16856e-08
4.21404e-05
0.000121968
2.65854e-08
4.48591e-05
0.000121993
8.58125e-09
4.39222e-05
0.000122008
1.11271e-08
4.47929e-05
0.000122008
-5.84441e-08
4.20079e-05
0.000121998
-1.21375e-07
4.15014e-05
0.000121932
-3.46548e-07
3.68509e-05
0.000121841
-5.76304e-07
3.874e-05
0.000121578
-1.2256e-06
3.89682e-05
0.000121243
5.04975e-05
0.00012051
6.59484e-07
8.52337e-05
0.000117883
1.16013e-06
4.98116e-05
0.000118121
5.71587e-07
3.92975e-05
0.00011879
3.58853e-07
3.87338e-05
0.000119093
1.45443e-07
3.6763e-05
0.000119346
8.75767e-08
4.12881e-05
0.000119443
2.32182e-08
4.17336e-05
0.000119522
2.70148e-08
4.43901e-05
0.000119549
7.28632e-09
4.34627e-05
0.000119565
9.04788e-09
4.43252e-05
0.000119564
-6.1375e-08
4.16057e-05
0.00011955
-1.25499e-07
4.11183e-05
0.000119481
-3.44805e-07
3.66133e-05
0.000119389
-5.63171e-07
3.85541e-05
0.000119134
-1.15715e-06
3.90937e-05
0.000118822
4.95397e-05
0.00011814
6.25369e-07
8.33139e-05
0.000115575
1.09546e-06
4.88598e-05
0.000115772
5.57955e-07
3.93426e-05
0.000116393
3.56139e-07
3.85068e-05
0.000116674
1.48586e-07
3.649e-05
0.000116919
8.95898e-08
4.08755e-05
0.000117017
2.4558e-08
4.13015e-05
0.000117098
2.73631e-08
4.38962e-05
0.000117128
6.04516e-09
4.29792e-05
0.000117144
6.87239e-09
4.38328e-05
0.000117142
-6.39864e-08
4.11782e-05
0.000117126
-1.29088e-07
4.07104e-05
0.000117054
-3.42423e-07
3.63443e-05
0.000116961
-5.4973e-07
3.83309e-05
0.000116713
-1.09274e-06
3.91425e-05
0.000116424
4.8594e-05
0.000115791
5.93843e-07
8.1444e-05
0.000113287
1.0348e-06
4.79195e-05
0.000113446
5.44191e-07
3.93164e-05
0.00011402
3.5289e-07
3.82443e-05
0.00011428
1.51216e-07
3.61866e-05
0.000114518
9.12837e-08
4.04392e-05
0.000114615
2.57142e-08
4.08457e-05
0.000114699
2.76347e-08
4.3379e-05
0.000114731
4.85837e-09
4.2473e-05
0.000114748
4.86706e-09
4.33169e-05
0.000114745
-6.62955e-08
4.07269e-05
0.000114726
-1.32176e-07
4.02787e-05
0.000114652
-3.39497e-07
3.6045e-05
0.000114559
-5.36144e-07
3.80723e-05
0.000114318
-1.03229e-06
3.91202e-05
0.00011405
4.76601e-05
0.000113463
5.64705e-07
7.96201e-05
0.000111019
9.78011e-07
4.69905e-05
0.000111141
5.30417e-07
3.92242e-05
0.000111672
3.49192e-07
3.7948e-05
0.000111913
1.53371e-07
3.58543e-05
0.000112143
9.26808e-08
3.99804e-05
0.00011224
2.66966e-08
4.03675e-05
0.000112326
2.78342e-08
4.28399e-05
0.00011236
3.72493e-09
4.19455e-05
0.000112377
3.02787e-09
4.27791e-05
0.000112373
-6.83202e-08
4.02531e-05
0.000112352
-1.34794e-07
3.98245e-05
0.000112276
-3.36111e-07
3.57169e-05
0.000112183
-5.22536e-07
3.77798e-05
0.00011195
-9.7567e-07
3.90321e-05
0.000111701
4.67375e-05
0.000111158
5.37761e-07
7.78384e-05
0.000108773
9.24929e-07
4.60721e-05
0.00010886
5.1673e-07
3.9071e-05
0.000109351
3.45118e-07
3.76196e-05
0.000109573
1.55085e-07
3.54945e-05
0.000109796
9.3804e-08
3.95005e-05
0.000109893
2.75158e-08
3.98684e-05
0.00010998
2.79656e-08
4.22803e-05
0.000110015
2.64059e-09
4.13984e-05
0.000110033
1.34951e-09
4.22208e-05
0.000110029
-7.00796e-08
3.97581e-05
0.000110005
-1.36975e-07
3.93492e-05
0.000109927
-3.32341e-07
3.53612e-05
0.000109835
-5.09003e-07
3.74553e-05
0.000109609
-9.22719e-07
3.88831e-05
0.000109379
4.58255e-05
0.000108876
5.1283e-07
7.60961e-05
0.000106548
8.75366e-07
4.51641e-05
0.000106603
5.03208e-07
3.88616e-05
0.000107056
3.40739e-07
3.72609e-05
0.000107261
1.56391e-07
3.51086e-05
0.000107477
9.46765e-08
3.90007e-05
0.000107574
2.81829e-08
3.93497e-05
0.000107662
2.80334e-08
4.17017e-05
0.000107699
1.59393e-09
4.08329e-05
0.000107716
-2.0717e-10
4.16435e-05
0.000107711
-7.15936e-08
3.92436e-05
0.000107686
-1.38749e-07
3.8854e-05
0.000107607
-3.28256e-07
3.49794e-05
0.000107515
-4.95625e-07
3.71005e-05
0.000107296
-8.73253e-07
3.86779e-05
0.000107083
4.49239e-05
0.000106618
4.89749e-07
7.43903e-05
0.000104346
8.2913e-07
4.42661e-05
0.000104371
4.89915e-07
3.86004e-05
0.000104789
3.36115e-07
3.68737e-05
0.000104979
1.57323e-07
3.46982e-05
0.000105188
9.5322e-08
3.84824e-05
0.000105284
2.87097e-08
3.8813e-05
0.000105373
2.80421e-08
4.11057e-05
0.000105411
5.73186e-10
4.02507e-05
0.000105429
-1.85324e-09
4.10488e-05
0.000105423
-7.28826e-08
3.87105e-05
0.000105397
-1.40148e-07
3.83402e-05
0.000105316
-3.23918e-07
3.45731e-05
0.000105225
-4.82466e-07
3.67173e-05
0.000105013
-8.27088e-07
3.84211e-05
0.000104816
4.40322e-05
0.000104385
4.68374e-07
7.27188e-05
0.000102168
7.8604e-07
4.33778e-05
0.000102164
4.76901e-07
3.82919e-05
0.000102551
3.31302e-07
3.64598e-05
0.000102726
1.57912e-07
3.42649e-05
0.000102929
9.57636e-08
3.7947e-05
0.000103023
2.91083e-08
3.82597e-05
0.000103113
2.79965e-08
4.04937e-05
0.000103152
-2.62813e-10
3.96531e-05
0.00010317
-3.23705e-09
4.04385e-05
0.000103164
-7.39666e-08
3.81608e-05
0.000103136
-1.41202e-07
3.78093e-05
0.000103055
-3.19383e-07
3.41438e-05
0.000102965
-4.69577e-07
3.63073e-05
0.00010276
-7.84043e-07
3.81169e-05
0.000102577
4.31502e-05
0.000102178
4.48577e-07
7.10795e-05
0.000100013
7.4592e-07
4.2499e-05
9.99836e-05
4.64206e-07
3.79401e-05
0.000100342
3.2635e-07
3.60213e-05
0.000100504
1.58191e-07
3.38104e-05
0.0001007
9.60243e-08
3.7396e-05
0.000100793
2.9391e-08
3.76916e-05
0.000100883
2.79012e-08
3.98675e-05
0.000100923
-1.03951e-09
3.90418e-05
0.000100941
-4.41939e-09
3.98139e-05
0.000100935
-7.48662e-08
3.75959e-05
0.000100906
-1.41941e-07
3.72628e-05
0.000100824
-3.14702e-07
3.36934e-05
0.000100735
-4.57e-07
3.58726e-05
0.000100536
-7.43948e-07
3.77694e-05
0.000100367
4.22776e-05
9.9997e-05
4.30241e-07
6.94708e-05
9.7882e-05
7.08603e-07
4.16296e-05
9.78298e-05
4.5186e-07
3.7549e-05
9.81621e-05
3.21305e-07
3.556e-05
9.83112e-05
1.5819e-07
3.33366e-05
9.85014e-05
9.61265e-08
3.6831e-05
9.85932e-05
2.95698e-08
3.71103e-05
9.86838e-05
2.77608e-08
3.92287e-05
9.87241e-05
-1.75857e-09
3.84184e-05
9.87421e-05
-5.44634e-09
3.91767e-05
9.87356e-05
-7.56016e-08
3.70178e-05
9.87059e-05
-1.42395e-07
3.67021e-05
9.86236e-05
-3.09921e-07
3.32236e-05
9.85358e-05
-4.44765e-07
3.54152e-05
9.8343e-05
-7.06639e-07
3.73826e-05
9.81864e-05
4.14142e-05
9.78426e-05
4.1326e-07
6.7891e-05
9.5776e-05
6.73923e-07
4.07693e-05
9.5703e-05
4.3988e-07
3.71226e-05
9.60117e-05
3.16204e-07
3.5078e-05
9.61492e-05
1.57941e-07
3.28452e-05
9.63335e-05
9.60911e-08
3.62529e-05
9.6424e-05
2.96568e-08
3.65165e-05
9.65146e-05
2.758e-08
3.85779e-05
9.65554e-05
-2.42225e-09
3.77834e-05
9.65732e-05
-6.34746e-09
3.85276e-05
9.65665e-05
-7.61919e-08
3.6427e-05
9.65361e-05
-1.42594e-07
3.61283e-05
9.64536e-05
-3.05077e-07
3.2736e-05
9.63672e-05
-4.32889e-07
3.49369e-05
9.61804e-05
-6.71952e-07
3.69604e-05
9.60353e-05
4.05599e-05
9.57153e-05
3.97533e-07
6.63368e-05
9.36951e-05
6.41706e-07
3.99162e-05
9.36034e-05
4.28292e-07
3.6663e-05
9.38908e-05
3.11084e-07
3.45762e-05
9.40176e-05
1.57461e-07
3.23362e-05
9.41962e-05
9.59373e-08
3.56609e-05
9.42852e-05
2.96631e-08
3.59087e-05
9.43757e-05
2.73631e-08
3.79135e-05
9.44169e-05
-2.99717e-09
3.7135e-05
9.44346e-05
-7.13972e-09
3.78649e-05
9.44277e-05
-7.6655e-08
3.58222e-05
9.43967e-05
-1.42556e-07
3.55405e-05
9.43142e-05
-3.00208e-07
3.22308e-05
9.42292e-05
-4.21399e-07
3.44388e-05
9.40481e-05
-6.39715e-07
3.6505e-05
9.39139e-05
3.97126e-05
9.36152e-05
3.82959e-07
6.4803e-05
9.16396e-05
6.11819e-07
3.90666e-05
9.15313e-05
4.17173e-07
3.61703e-05
9.17995e-05
3.05948e-07
3.40536e-05
9.19164e-05
1.56767e-07
3.18081e-05
9.20893e-05
9.56844e-08
3.50529e-05
9.2177e-05
2.95949e-08
3.52849e-05
9.22672e-05
2.7111e-08
3.72331e-05
9.23086e-05
-3.48059e-09
3.64708e-05
9.23262e-05
-7.83441e-09
3.71862e-05
9.23192e-05
-7.70109e-08
3.52012e-05
9.22877e-05
-1.42296e-07
3.49367e-05
9.22053e-05
-2.95314e-07
3.17065e-05
9.21215e-05
-4.10374e-07
3.392e-05
9.19462e-05
-6.098e-07
3.60165e-05
9.1822e-05
3.88687e-05
9.15427e-05
3.69443e-07
6.3284e-05
8.961e-05
5.84219e-07
3.82161e-05
8.94869e-05
4.0663e-07
3.5644e-05
8.97378e-05
3.00783e-07
3.35091e-05
8.98446e-05
1.55902e-07
3.12596e-05
9.00111e-05
9.53612e-08
3.44272e-05
9.00981e-05
2.94577e-08
3.46432e-05
9.01884e-05
2.68215e-08
3.65348e-05
9.02303e-05
-3.94905e-09
3.57887e-05
9.02478e-05
-8.44199e-09
3.64896e-05
9.02406e-05
-7.72904e-08
3.45622e-05
9.02084e-05
-1.41858e-07
3.4315e-05
9.01258e-05
-2.90385e-07
3.11616e-05
9.00427e-05
-3.99921e-07
3.33792e-05
8.98738e-05
-5.82169e-07
3.54944e-05
8.97598e-05
3.8024e-05
8.94979e-05
3.56895e-07
6.1775e-05
8.76066e-05
5.58828e-07
3.73613e-05
8.74704e-05
3.96652e-07
3.50841e-05
8.77051e-05
2.9564e-07
3.2942e-05
8.78009e-05
1.54904e-07
3.06897e-05
8.79607e-05
9.49872e-08
3.37828e-05
8.80472e-05
2.92651e-08
3.39827e-05
8.81381e-05
2.64996e-08
3.58177e-05
8.81807e-05
-4.38766e-09
3.50879e-05
8.81981e-05
-8.97859e-09
3.57743e-05
8.81907e-05
-7.75116e-08
3.39045e-05
8.81575e-05
-1.41282e-07
3.36746e-05
8.80743e-05
-2.85472e-07
3.05954e-05
8.79916e-05
-3.90027e-07
3.28158e-05
8.78294e-05
-5.56739e-07
3.49387e-05
8.77265e-05
3.71746e-05
8.7481e-05
3.45229e-07
6.02721e-05
8.56298e-05
5.35386e-07
3.64991e-05
8.54821e-05
3.87058e-07
3.44913e-05
8.57002e-05
2.90572e-07
3.23519e-05
8.5785e-05
1.53796e-07
3.00983e-05
8.59383e-05
9.45565e-08
3.31195e-05
8.60244e-05
2.90303e-08
3.33034e-05
8.61156e-05
2.61584e-08
3.50817e-05
8.61589e-05
-4.79733e-09
3.43682e-05
8.61762e-05
-9.45318e-09
3.504e-05
8.61686e-05
-7.76643e-08
3.32278e-05
8.61346e-05
-1.40589e-07
3.30153e-05
8.60509e-05
-2.80633e-07
3.00076e-05
8.59687e-05
-3.80512e-07
3.22293e-05
8.5813e-05
-5.3325e-07
3.43501e-05
8.5721e-05
3.6318e-05
8.54923e-05
3.34367e-07
5.87725e-05
8.36799e-05
5.13518e-07
3.5628e-05
8.3522e-05
3.77593e-07
3.38671e-05
8.37227e-05
2.85571e-07
3.17386e-05
8.37978e-05
1.5259e-07
2.94855e-05
8.39452e-05
9.40594e-08
3.24374e-05
8.40306e-05
2.87568e-08
3.26056e-05
8.41218e-05
2.58083e-08
3.43272e-05
8.41655e-05
-5.17692e-09
3.36299e-05
8.41826e-05
-9.86248e-09
3.42872e-05
8.41749e-05
-7.77337e-08
3.25326e-05
8.41403e-05
-1.39789e-07
3.2337e-05
8.40565e-05
-2.75863e-07
2.93982e-05
8.39749e-05
-3.71126e-07
3.16196e-05
8.38252e-05
-5.11328e-07
3.37301e-05
8.3743e-05
3.54522e-05
8.35319e-05
3.24238e-07
5.72742e-05
8.17572e-05
4.92924e-07
3.47471e-05
8.15904e-05
3.68094e-07
3.32133e-05
8.17735e-05
2.80624e-07
3.11021e-05
8.18402e-05
1.51282e-07
2.88513e-05
8.19822e-05
9.34916e-08
3.17369e-05
8.20667e-05
2.84432e-08
3.18897e-05
8.21577e-05
2.54513e-08
3.35548e-05
8.22015e-05
-5.52265e-09
3.28739e-05
8.22185e-05
-1.02017e-08
3.35165e-05
8.22107e-05
-7.77137e-08
3.18193e-05
8.21758e-05
-1.38879e-07
3.16403e-05
8.20921e-05
-2.71147e-07
2.87674e-05
8.20114e-05
-3.61709e-07
3.09867e-05
8.1867e-05
-4.90681e-07
3.30805e-05
8.17933e-05
3.45767e-05
8.15999e-05
3.14788e-07
5.57761e-05
7.98619e-05
4.73493e-07
3.38563e-05
7.96873e-05
3.58564e-07
3.25318e-05
7.98534e-05
2.75725e-07
3.04425e-05
7.9913e-05
1.49869e-07
2.8196e-05
8.00503e-05
9.28549e-08
3.10183e-05
8.01338e-05
2.80876e-08
3.11565e-05
8.02242e-05
2.50856e-08
3.27654e-05
8.0268e-05
-5.83096e-09
3.21007e-05
8.02847e-05
-1.04689e-08
3.27287e-05
8.02769e-05
-7.76054e-08
3.10885e-05
8.02419e-05
-1.37854e-07
3.09253e-05
8.01586e-05
-2.66478e-07
2.81154e-05
8.00788e-05
-3.52269e-07
3.03307e-05
7.99393e-05
-4.71203e-07
3.24031e-05
7.98727e-05
3.36911e-05
7.96965e-05
3.05978e-07
5.42775e-05
7.7994e-05
4.55238e-07
3.29557e-05
7.78127e-05
3.49101e-07
3.18243e-05
7.79631e-05
2.70873e-07
2.97602e-05
7.80168e-05
1.4835e-07
2.75199e-05
7.81498e-05
9.2154e-08
3.02817e-05
7.82322e-05
2.76897e-08
3.04062e-05
7.83219e-05
2.47095e-08
3.19594e-05
7.83654e-05
-6.10023e-09
3.13109e-05
7.83818e-05
-1.06653e-08
3.19243e-05
7.83742e-05
-7.74141e-08
3.03407e-05
7.83391e-05
-1.36712e-07
3.01924e-05
7.82565e-05
-2.61857e-07
2.74426e-05
7.81778e-05
-3.42904e-07
2.96518e-05
7.80425e-05
-4.5291e-07
3.16996e-05
7.79819e-05
3.27956e-05
7.78217e-05
2.97741e-07
5.27779e-05
7.61537e-05
4.38143e-07
3.20456e-05
7.59663e-05
3.39801e-07
3.10924e-05
7.61028e-05
2.66072e-07
2.90555e-05
7.61517e-05
1.46724e-07
2.68233e-05
7.62809e-05
9.13958e-08
2.95274e-05
7.6362e-05
2.72516e-08
2.96391e-05
7.64509e-05
2.43224e-08
3.11371e-05
7.6494e-05
-6.33087e-09
3.05049e-05
7.65101e-05
-1.07946e-08
3.11037e-05
7.65026e-05
-7.71472e-08
2.9576e-05
7.64677e-05
-1.35455e-07
2.94416e-05
7.63858e-05
-2.57284e-07
2.67492e-05
7.63083e-05
-3.33707e-07
2.89504e-05
7.61768e-05
-4.35786e-07
3.09717e-05
7.61212e-05
3.18906e-05
7.5975e-05
2.90011e-07
5.12771e-05
7.43409e-05
4.22125e-07
3.11263e-05
7.41476e-05
3.30725e-07
3.03372e-05
7.42726e-05
2.61325e-07
2.83285e-05
7.43176e-05
1.44999e-07
2.61064e-05
7.44434e-05
9.05874e-08
2.87552e-05
7.45232e-05
2.67766e-08
2.88552e-05
7.46111e-05
2.39255e-08
3.02988e-05
7.46537e-05
-6.52487e-09
2.96826e-05
7.46694e-05
-1.08618e-08
3.02669e-05
7.46621e-05
-7.68122e-08
2.87945e-05
7.46275e-05
-1.34087e-07
2.8673e-05
7.45465e-05
-2.52765e-07
2.60353e-05
7.44703e-05
-3.24739e-07
2.82268e-05
7.43422e-05
-4.19745e-07
3.02205e-05
7.42906e-05
3.09762e-05
7.4156e-05
2.82737e-07
4.97747e-05
7.25551e-05
4.07087e-07
3.01974e-05
7.23565e-05
3.21904e-07
2.95593e-05
7.24724e-05
2.56637e-07
2.75794e-05
7.25143e-05
1.4318e-07
2.53689e-05
7.2637e-05
8.97352e-08
2.79649e-05
7.27155e-05
2.62685e-08
2.80542e-05
7.28022e-05
2.35206e-08
2.94438e-05
7.28443e-05
-6.68504e-09
2.88438e-05
7.28596e-05
-1.08721e-08
2.94134e-05
7.28524e-05
-7.64163e-08
2.79959e-05
7.28183e-05
-1.32615e-07
2.7886e-05
7.27383e-05
-2.48302e-07
2.53009e-05
7.26633e-05
-3.16031e-07
2.7481e-05
7.25384e-05
-4.04691e-07
2.94463e-05
7.249e-05
3.00522e-05
7.23647e-05
2.75878e-07
4.82697e-05
7.07958e-05
3.9295e-07
2.92584e-05
7.05932e-05
3.13347e-07
2.87584e-05
7.07019e-05
2.52012e-07
2.68076e-05
7.07413e-05
1.41275e-07
2.46103e-05
7.08614e-05
8.88446e-08
2.71554e-05
7.09384e-05
2.57312e-08
2.72352e-05
7.10239e-05
2.31097e-08
2.85715e-05
7.10653e-05
-6.81456e-09
2.79874e-05
7.10803e-05
-1.08308e-08
2.85425e-05
7.10732e-05
-7.59653e-08
2.71792e-05
7.10396e-05
-1.31047e-07
2.70799e-05
7.09607e-05
-2.43899e-07
2.45453e-05
7.08871e-05
-3.07592e-07
2.67123e-05
7.07649e-05
-3.90547e-07
2.86492e-05
7.07191e-05
2.9118e-05
7.06012e-05
2.69405e-07
4.67609e-05
6.90628e-05
3.79658e-07
2.83078e-05
6.88577e-05
3.05064e-07
2.79339e-05
6.89609e-05
2.47455e-07
2.60119e-05
6.89983e-05
1.39286e-07
2.38294e-05
6.91159e-05
8.79196e-08
2.63255e-05
6.91915e-05
2.51687e-08
2.63968e-05
6.92757e-05
2.26952e-08
2.76802e-05
6.93163e-05
-6.91681e-09
2.7112e-05
6.93309e-05
-1.07431e-08
2.76527e-05
6.9324e-05
-7.5464e-08
2.6343e-05
6.9291e-05
-1.29385e-07
2.62533e-05
6.92133e-05
-2.3956e-07
2.37673e-05
6.91411e-05
-2.99429e-07
2.59198e-05
6.90214e-05
-3.77257e-07
2.78283e-05
6.89776e-05
2.8172e-05
6.88654e-05
2.63294e-07
4.5246e-05
6.73561e-05
3.67166e-07
2.73433e-05
6.71499e-05
2.97069e-07
2.7084e-05
6.72488e-05
2.42966e-07
2.51908e-05
6.72847e-05
1.37215e-07
2.30246e-05
6.74e-05
8.69635e-08
2.54731e-05
6.74741e-05
2.4585e-08
2.55369e-05
6.75569e-05
2.22787e-08
2.67679e-05
6.75967e-05
-6.99519e-09
2.62154e-05
6.7611e-05
-1.06148e-08
2.67418e-05
6.76043e-05
-7.49166e-08
2.54853e-05
6.75719e-05
-1.27631e-07
2.54041e-05
6.74954e-05
-2.35287e-07
2.29654e-05
6.74247e-05
-2.91558e-07
2.51017e-05
6.73073e-05
-3.64776e-07
2.6982e-05
6.72652e-05
2.7212e-05
6.71574e-05
2.57523e-07
4.37221e-05
6.5676e-05
3.55453e-07
2.6362e-05
6.54697e-05
2.89385e-07
2.62067e-05
6.55655e-05
2.38545e-07
2.4342e-05
6.55995e-05
1.3507e-07
2.21937e-05
6.57125e-05
8.5981e-08
2.45957e-05
6.57852e-05
2.39837e-08
2.46531e-05
6.58666e-05
2.18619e-08
2.58321e-05
6.59058e-05
-7.05305e-09
2.52953e-05
6.59197e-05
-1.04513e-08
2.58074e-05
6.59132e-05
-7.4329e-08
2.46037e-05
6.58813e-05
-1.25793e-07
2.45299e-05
6.5806e-05
-2.31079e-07
2.21372e-05
6.57366e-05
-2.84001e-07
2.4256e-05
6.56215e-05
-3.53084e-07
2.61082e-05
6.55815e-05
2.62352e-05
6.5477e-05
2.5206e-07
4.21857e-05
6.40225e-05
3.4449e-07
2.53606e-05
6.38165e-05
2.82017e-07
2.52994e-05
6.39101e-05
2.34198e-07
2.34632e-05
6.39418e-05
1.32862e-07
2.13339e-05
6.40526e-05
8.4975e-08
2.36907e-05
6.41238e-05
2.33678e-08
2.37425e-05
6.4204e-05
2.14472e-08
2.48699e-05
6.42426e-05
-7.09388e-09
2.43487e-05
6.42561e-05
-1.02563e-08
2.48465e-05
6.42498e-05
-7.37044e-08
2.36953e-05
6.42183e-05
-1.23884e-07
2.3628e-05
6.41442e-05
-2.2694e-07
2.12802e-05
6.40762e-05
-2.76761e-07
2.33802e-05
6.39633e-05
-3.42148e-07
2.52043e-05
6.39258e-05
2.52382e-05
6.38236e-05
2.46866e-07
4.06331e-05
6.23955e-05
3.34201e-07
2.43355e-05
6.21896e-05
2.74935e-07
2.43593e-05
6.22818e-05
2.29921e-07
2.25514e-05
6.2311e-05
1.30604e-07
2.04426e-05
6.24198e-05
8.39471e-08
2.27549e-05
6.24895e-05
2.27391e-08
2.28021e-05
6.25684e-05
2.10374e-08
2.38783e-05
6.26063e-05
-7.12077e-09
2.33724e-05
6.26195e-05
-1.00319e-08
2.38562e-05
6.26133e-05
-7.30444e-08
2.27571e-05
6.25823e-05
-1.21916e-07
2.26952e-05
6.25094e-05
-2.22869e-07
2.03915e-05
6.24428e-05
-2.69808e-07
2.24714e-05
6.2332e-05
-3.31893e-07
2.42675e-05
6.22971e-05
2.42173e-05
6.21965e-05
2.41909e-07
3.90602e-05
6.07948e-05
3.24484e-07
2.32831e-05
6.05886e-05
2.6809e-07
2.33833e-05
6.06798e-05
2.25708e-07
2.16038e-05
6.07066e-05
1.28302e-07
1.95166e-05
6.08135e-05
8.28981e-08
2.17852e-05
6.08818e-05
2.20999e-08
2.18288e-05
6.09593e-05
2.06345e-08
2.2854e-05
6.09965e-05
-7.13595e-09
2.23634e-05
6.10094e-05
-9.78052e-09
2.28332e-05
6.10033e-05
-7.23501e-08
2.17859e-05
6.09729e-05
-1.19895e-07
2.17285e-05
6.09012e-05
-2.1886e-07
1.94682e-05
6.08359e-05
-2.63094e-07
2.15267e-05
6.07272e-05
-3.22215e-07
2.32948e-05
6.06948e-05
2.3169e-05
6.05954e-05
2.37162e-07
3.74629e-05
5.92196e-05
3.15249e-07
2.21996e-05
5.90131e-05
2.61444e-07
2.23684e-05
5.91037e-05
2.21557e-07
2.06173e-05
5.91282e-05
1.25956e-07
1.85529e-05
5.92332e-05
8.18274e-08
2.07784e-05
5.93e-05
2.14526e-08
2.08193e-05
5.93762e-05
2.02399e-08
2.17939e-05
5.94127e-05
-7.14155e-09
2.13184e-05
5.94252e-05
-9.50521e-09
2.17743e-05
5.94194e-05
-7.16213e-08
2.07786e-05
5.93894e-05
-1.17823e-07
2.07247e-05
5.9319e-05
-2.1491e-07
1.85071e-05
5.92552e-05
-2.56581e-07
2.05431e-05
5.91483e-05
-3.13027e-07
2.22832e-05
5.91182e-05
2.20896e-05
5.90196e-05
2.32599e-07
3.58375e-05
5.76692e-05
3.06435e-07
2.10817e-05
5.74625e-05
2.54977e-07
2.13117e-05
5.75529e-05
2.17464e-07
1.95891e-05
5.75753e-05
1.2357e-07
1.75487e-05
5.76786e-05
8.07342e-08
1.97316e-05
5.77439e-05
2.07997e-08
1.97706e-05
5.78186e-05
1.9855e-08
2.06949e-05
5.78544e-05
-7.13986e-09
2.02344e-05
5.78666e-05
-9.20925e-09
2.06766e-05
5.78609e-05
-7.08575e-08
1.9732e-05
5.78315e-05
-1.15702e-07
1.96808e-05
5.77623e-05
-2.11016e-07
1.75054e-05
5.77e-05
-2.5025e-07
1.95178e-05
5.75949e-05
-3.04266e-07
2.12297e-05
5.75671e-05
2.09758e-05
5.74689e-05
2.28195e-07
3.41802e-05
5.61431e-05
2.97994e-07
1.99263e-05
5.59364e-05
2.48681e-07
2.02106e-05
5.60269e-05
2.13429e-07
1.85165e-05
5.60473e-05
1.21143e-07
1.65012e-05
5.61489e-05
7.96169e-08
1.8642e-05
5.62127e-05
2.01437e-08
1.86799e-05
5.6286e-05
1.9481e-08
1.95542e-05
5.63211e-05
-7.13305e-09
1.91086e-05
5.6333e-05
-8.89603e-09
1.95371e-05
5.63274e-05
-7.00578e-08
1.86434e-05
5.62987e-05
-1.13533e-07
1.85941e-05
5.62307e-05
-2.07177e-07
1.64605e-05
5.61698e-05
-2.44092e-07
1.84481e-05
5.60664e-05
-2.95884e-07
2.01317e-05
5.60407e-05
1.98242e-05
5.59426e-05
2.23928e-07
3.2488e-05
5.4641e-05
2.8988e-07
1.87304e-05
5.44344e-05
2.42545e-07
1.90626e-05
5.45252e-05
2.09448e-07
1.73973e-05
5.45437e-05
1.18676e-07
1.54081e-05
5.46437e-05
7.84738e-08
1.75071e-05
5.47059e-05
1.94877e-08
1.75447e-05
5.47779e-05
1.91191e-08
1.83695e-05
5.48121e-05
-7.1233e-09
1.79386e-05
5.48237e-05
-8.5698e-09
1.83536e-05
5.48183e-05
-6.92209e-08
1.75103e-05
5.47902e-05
-1.11316e-07
1.7462e-05
5.47235e-05
-2.03389e-07
1.53699e-05
5.46641e-05
-2.38097e-07
1.73317e-05
5.45623e-05
-2.87835e-07
1.89868e-05
5.45387e-05
1.86323e-05
5.44404e-05
2.19775e-07
3.07579e-05
5.31621e-05
2.82045e-07
1.74918e-05
5.29558e-05
2.36561e-07
1.78657e-05
5.30471e-05
2.0552e-07
1.62296e-05
5.30638e-05
1.16167e-07
1.42676e-05
5.31623e-05
7.73029e-08
1.63249e-05
5.3223e-05
1.88346e-08
1.6363e-05
5.32936e-05
1.87704e-08
1.71385e-05
5.3327e-05
-7.11276e-09
1.67224e-05
5.33383e-05
-8.23436e-09
1.71239e-05
5.33329e-05
-6.83452e-08
1.63307e-05
5.33055e-05
-1.0905e-07
1.62827e-05
5.32401e-05
-1.99652e-07
1.42319e-05
5.31822e-05
-2.32254e-07
1.61668e-05
5.3082e-05
-2.80071e-07
1.7793e-05
5.30603e-05
1.73974e-05
5.29617e-05
2.15718e-07
2.89878e-05
5.17061e-05
2.74448e-07
1.62084e-05
5.15e-05
2.30717e-07
1.66184e-05
5.15921e-05
2.01643e-07
1.50118e-05
5.16069e-05
1.13615e-07
1.30782e-05
5.1704e-05
7.61016e-08
1.5094e-05
5.17631e-05
1.81874e-08
1.51332e-05
5.18323e-05
1.84358e-08
1.58599e-05
5.18648e-05
-7.10347e-09
1.54583e-05
5.18759e-05
-7.89354e-09
1.58464e-05
5.18707e-05
-6.74289e-08
1.51029e-05
5.1844e-05
-1.06733e-07
1.50545e-05
5.17798e-05
-1.95963e-07
1.30449e-05
5.17233e-05
-2.26553e-07
1.49518e-05
5.16246e-05
-2.7255e-07
1.65488e-05
5.16049e-05
1.61178e-05
5.15058e-05
2.11734e-07
2.71759e-05
5.0272e-05
2.67046e-07
1.4879e-05
5.00663e-05
2.25005e-07
1.53197e-05
5.01592e-05
1.97815e-07
1.37431e-05
5.01722e-05
1.11017e-07
1.18391e-05
5.02679e-05
7.48672e-08
1.38132e-05
5.03255e-05
1.75492e-08
1.38541e-05
5.03933e-05
1.81161e-08
1.45325e-05
5.0425e-05
-7.09745e-09
1.41454e-05
5.04357e-05
-7.55149e-09
1.45201e-05
5.04306e-05
-6.64698e-08
1.38259e-05
5.04047e-05
-1.04364e-07
1.37765e-05
5.03417e-05
-1.9232e-07
1.18082e-05
5.02868e-05
-2.20985e-07
1.3686e-05
5.01895e-05
-2.65229e-07
1.52531e-05
5.01717e-05
1.47921e-05
5.00718e-05
2.07806e-07
2.53211e-05
4.88592e-05
2.59803e-07
1.3503e-05
4.86537e-05
2.19418e-07
1.39691e-05
4.87476e-05
1.94035e-07
1.24233e-05
4.87588e-05
1.08369e-07
1.055e-05
4.88532e-05
7.35964e-08
1.24823e-05
4.89092e-05
1.69234e-08
1.25255e-05
4.89757e-05
1.78121e-08
1.3156e-05
4.90064e-05
-7.09696e-09
1.27834e-05
4.9017e-05
-7.21276e-09
1.31448e-05
4.90119e-05
-6.54654e-08
1.24993e-05
4.89867e-05
-1.01938e-07
1.24483e-05
4.8925e-05
-1.88722e-07
1.05216e-05
4.88716e-05
-2.15541e-07
1.2369e-05
4.87756e-05
-2.58069e-07
1.39056e-05
4.87598e-05
1.34197e-05
4.86591e-05
2.03915e-07
2.34232e-05
4.74665e-05
2.52681e-07
1.20805e-05
4.72612e-05
2.13946e-07
1.25672e-05
4.73562e-05
1.90301e-07
1.10531e-05
4.73657e-05
1.05666e-07
9.21171e-06
4.74587e-05
7.22857e-08
1.11018e-05
4.75132e-05
1.63137e-08
1.11477e-05
4.75783e-05
1.75247e-08
1.1731e-05
4.76081e-05
-7.10427e-09
1.13727e-05
4.76184e-05
-6.88227e-09
1.17209e-05
4.76135e-05
-6.44129e-08
1.11236e-05
4.7589e-05
-9.94507e-08
1.10705e-05
4.75285e-05
-1.85166e-07
9.18573e-06
4.74766e-05
-2.10214e-07
1.10016e-05
4.7382e-05
-2.51034e-07
1.25067e-05
4.7368e-05
1.20008e-05
4.72664e-05
2.0004e-07
2.14827e-05
4.60928e-05
2.45646e-07
1.06125e-05
4.58875e-05
2.08583e-07
1.11152e-05
4.59837e-05
1.86611e-07
9.63378e-06
4.59914e-05
1.02903e-07
7.82575e-06
4.60832e-05
7.09312e-08
9.67306e-06
4.61361e-05
1.57242e-08
9.72201e-06
4.61999e-05
1.72543e-08
1.02587e-05
4.62288e-05
-7.12165e-09
9.91486e-06
4.62389e-05
-6.56546e-09
1.02497e-05
4.6234e-05
-6.33092e-08
9.69995e-06
4.62104e-05
-9.68976e-08
9.64449e-06
4.6151e-05
-1.81652e-07
7.80216e-06
4.61005e-05
-2.04996e-07
9.58513e-06
4.60073e-05
-2.44087e-07
1.10577e-05
4.59952e-05
1.05364e-05
4.58927e-05
1.96164e-07
1.95015e-05
4.47367e-05
2.38663e-07
9.10125e-06
4.45314e-05
2.03321e-07
9.61545e-06
4.46287e-05
1.82964e-07
8.16806e-06
4.46346e-05
1.00073e-07
6.39483e-06
4.47251e-05
6.95286e-08
8.19862e-06
4.47765e-05
1.51594e-08
8.2509e-06
4.48391e-05
1.70016e-08
8.7416e-06
4.48669e-05
-7.15142e-09
8.41224e-06
4.48768e-05
-6.26827e-09
8.73377e-06
4.4872e-05
-6.21512e-08
8.23085e-06
4.48493e-05
-9.42726e-08
8.1727e-06
4.4791e-05
-1.78177e-07
6.37362e-06
4.4742e-05
-1.99877e-07
8.12226e-06
4.46501e-05
-2.37193e-07
9.56094e-06
4.46399e-05
9.02867e-06
4.45363e-05
1.92265e-07
1.74824e-05
4.33965e-05
2.317e-07
7.55018e-06
4.3191e-05
1.98154e-07
8.07167e-06
4.32895e-05
1.79358e-07
6.65976e-06
4.32936e-05
9.71699e-08
4.92293e-06
4.33829e-05
6.80734e-08
6.68224e-06
4.34328e-05
1.46242e-08
6.738e-06
4.34941e-05
1.67669e-08
7.18351e-06
4.35209e-05
-7.19585e-09
6.86866e-06
4.35306e-05
-5.99723e-09
7.17677e-06
4.35258e-05
-6.09352e-08
6.71993e-06