/*--------------------------------*- C++ -*----------------------------------*\
| =========                 |                                                 |
| \\      /  F ield         | OpenFOAM: The Open Source CFD Toolbox           |
|  \\    /   O peration     | Version:  v1906                                 |
|   \\  /    A nd           | Web:      www.OpenFOAM.com                      |
|    \\/     M anipulation  |                                                 |
\*---------------------------------------------------------------------------*/
FoamFile
{
    version     2.0;
    format      ascii;
    class       volScalarField;
    location    "96.4";
    object      alphat;
}
// * * * * * * * * * * * * * * * * * * * * * * * * * * * * * * * * * * * * * //

dimensions      [1 -1 -1 0 0 0 0];


internalField   nonuniform List<scalar> 
634
(
0.0090655
0.00493702
0.0134543
0.00829596
0.00895937
0.00641142
0.0135299
0.00679339
0.00885011
0.00934646
0.0135831
0.00943769
0.00873663
0.00942042
0.0136271
0.0133693
0.00862299
0.009483
0.0136609
0.0134544
0.00851291
0.00953293
0.013688
0.0135441
0.00841073
0.00956074
0.0137084
0.0136357
0.00832023
0.009564
0.0137212
0.0137238
0.00824093
0.00954546
0.0137191
0.0138021
0.00817239
0.00951071
0.0136953
0.0138647
0.00811393
0.0094672
0.0136492
0.0139063
0.00806452
0.00941657
0.0135794
0.0139238
0.00802299
0.00935752
0.0134826
0.0139154
0.00798865
0.00929096
0.0133596
0.0138822
0.00796022
0.00921682
0.0132172
0.0138236
0.00793433
0.0091306
0.013058
0.0137421
0.00790871
0.00903305
0.0128814
0.0136403
0.00788222
0.0089244
0.0126841
0.0135209
0.00785305
0.00880486
0.0124622
0.0133864
0.00781452
0.00867498
0.0122185
0.0132381
0.007767
0.00853545
0.0119552
0.0130774
0.00771192
0.00838709
0.0116747
0.0129057
0.00765057
0.0082308
0.0113801
0.0127212
0.00758475
0.00806759
0.0110742
0.0125249
0.0075163
0.00789847
0.0107596
0.0123173
0.00744677
0.00772492
0.0104389
0.012099
0.00737678
0.00754869
0.0101144
0.0118705
0.00730522
0.0073712
0.00978824
0.0116322
0.00723517
0.00719349
0.0094626
0.0113835
0.0049202
0.00701609
0.00913943
0.0111259
0.00337049
0.0068366
0.00882071
0.010861
0.00316703
0.0066528
0.00850854
0.0105885
0.00448053
0.00646466
0.00820435
0.0097695
0.00685485
0.00627054
0.00790125
0.00889599
0.00681269
0.00606975
0.00759657
0.00825096
0.00674331
0.0058636
0.00729204
0.00784242
0.00664511
0.00565335
0.00698827
0.0076378
0.00651557
0.00544016
0.00668573
0.00759715
0.00635974
0.00511708
0.00638587
0.00763264
0.00618112
0.00464753
0.00609005
0.00764456
0.00598229
0.00437608
0.00579932
0.00755085
0.00576644
0.00431984
0.00551447
0.00732289
0.00553822
0.00429677
0.00517209
0.00699452
0.00530154
0.00413594
0.00449583
0.00661901
0.00505959
0.00392886
0.00383243
0.00623328
0.00481495
0.00365271
0.00346571
0.00585657
0.0045511
0.00337965
0.00345234
0.00549787
0.00420213
0.00312584
0.00359659
0.00515939
0.00377636
0.00289552
0.00362514
0.00483904
0.00334101
0.00268495
0.00343088
0.004533
0.00302436
0.00248734
0.00313328
0.00423756
0.00285854
0.0022932
0.0028493
0.00394999
0.0027677
0.00210283
0.00258617
0.00366882
0.00266042
0.00192228
0.00232468
0.00339366
0.00249067
0.00175144
0.00207939
0.0031247
0.00227077
0.00158913
0.0018601
0.00286209
0.002037
0.00143443
0.00166209
0.00260563
0.00182251
0.00128676
0.00147981
0.00235355
0.00163014
0.0011458
0.00130918
0.0021063
0.00145303
0.00101146
0.00114793
0.00186823
0.00128562
0.000883808
0.000995101
0.00163997
0.00112563
0.00076287
0.000850439
0.00142194
0.000972518
0.000648577
0.000713757
0.00121464
0.00082647
0.000540286
0.000585279
0.00101856
0.000687498
0.00042448
0.000453548
0.000832978
0.000556262
0.000318297
0.000331168
0.00064838
0.000417235
0.000226969
0.000228443
0.000471511
0.000293355
0.0001526
0.000147492
0.000320744
0.000192389
9.59323e-05
8.8409e-05
0.000200909
0.000116421
5.5956e-05
4.88993e-05
0.000114053
6.44628e-05
3.00609e-05
2.48336e-05
5.78696e-05
3.24718e-05
1.47472e-05
1.14987e-05
2.59361e-05
1.47971e-05
6.52358e-06
4.78237e-06
1.01217e-05
6.02678e-06
2.54954e-06
1.73165e-06
3.34993e-06
2.13146e-06
8.51573e-07
5.137e-07
8.92504e-07
6.16009e-07
2.30046e-07
1.11527e-07
1.73083e-07
1.29408e-07
4.56144e-08
1.46589e-08
2.016e-08
1.61123e-08
5.59141e-09
1.35328e-09
1.29379e-09
1.26661e-09
4.92102e-10
6.77155e-10
5.348e-10
5.96518e-10
3.03618e-10
0.00493055
0.00169892
0.00824537
0.00535255
0.00494995
0.00157651
0.00839559
0.00594943
0.00501019
0.00151803
0.00853062
0.00727101
0.00511126
0.00153558
0.00864538
0.00730626
0.00524917
0.00162222
0.0087367
0.00732258
0.00541588
0.00176285
0.00880472
0.00732768
0.00560356
0.00194143
0.00885833
0.00732444
0.00580274
0.00214455
0.00890497
0.00731572
0.00600777
0.00236192
0.00894375
0.00730359
0.00621275
0.0025863
0.00897512
0.00728933
0.00641112
0.00281162
0.00899865
0.00682182
0.00660018
0.00303385
0.00901368
0.00578218
0.00677854
0.00324895
0.00830243
0.00514493
0.00694266
0.00345505
0.00738116
0.00525561
0.00708682
0.00365081
0.00720444
0.00610996
0.00720851
0.00383531
0.00781233
0.00715816
0.00730773
0.00400923
0.00874061
0.00713403
0.00738663
0.00417259
0.00892916
0.00709922
0.00744852
0.00432504
0.00888057
0.00705318
0.00749265
0.00446642
0.00882239
0.00699586
0.00751912
0.00459617
0.00875299
0.00692777
0.00752845
0.00471332
0.00867149
0.00684957
0.00752123
0.00481842
0.00857783
0.00676209
0.00749801
0.00491046
0.00847263
0.00666621
0.00745941
0.00498832
0.00835712
0.00656291
0.00740612
0.00505073
0.00823304
0.00645309
0.00733892
0.00509628
0.00810251
0.00633766
0.00725865
0.00512401
0.00796796
0.00621771
0.00716635
0.00513528
0.00782912
0.00609399
0.0070635
0.00513207
0.00768743
0.0059666
0.00695147
0.00511457
0.00754629
0.00583441
0.00683047
0.00508312
0.00741016
0.00569752
0.00669972
0.00503855
0.00727806
0.00555263
0.0065586
0.00498213
0.00714701
0.0053968
0.00640725
0.00491539
0.00701319
0.00523169
0.00624572
0.00483852
0.00686884
0.00505883
0.00607175
0.00475176
0.0067122
0.00487953
0.0058818
0.00465558
0.00654281
0.00469497
0.00567736
0.00455055
0.0063612
0.00450623
0.00546091
0.00443731
0.00616808
0.00431427
0.0052346
0.0043133
0.00596424
0.00411993
0.00500044
0.00417841
0.00575061
0.00392396
0.0047603
0.00403404
0.00552817
0.00372701
0.00451598
0.00388145
0.00529798
0.00352971
0.0042692
0.00372181
0.00506117
0.00333264
0.00402157
0.0035562
0.00481886
0.00313639
0.0037745
0.00338563
0.00457225
0.00294154
0.00352916
0.00321104
0.0043225
0.00274865
0.00328649
0.00303332
0.00407081
0.00255825
0.00304737
0.00285329
0.00381832
0.00237086
0.00281259
0.00267178
0.00356609
0.00218697
0.00258288
0.00248938
0.00331504
0.00200704
0.00235897
0.00230662
0.0030499
0.00182513
0.00214151
0.00211401
0.00277226
0.00163758
0.00193115
0.00191049
0.00249593
0.00145733
0.00172846
0.00171426
0.00223111
0.00128808
0.00152218
0.00152918
0.00198413
0.0011306
0.00132679
0.00135564
0.00175438
0.000984689
0.00114485
0.00119279
0.00154003
0.000849978
0.00097738
0.00103978
0.0013399
0.000726118
0.000824794
0.000896087
0.00115341
0.000612729
0.000686927
0.00076189
0.000980202
0.000508982
0.000563142
0.000637297
0.000819808
0.000408128
0.000445705
0.000513508
0.000671318
0.000313829
0.000337372
0.000394768
0.000524519
0.000231903
0.000244113
0.000289623
0.000389023
0.000163455
0.000167209
0.000200696
0.000273268
0.000109018
0.000107281
0.000129821
0.000179585
6.82483e-05
6.37883e-05
7.74011e-05
0.000108929
3.97926e-05
3.47929e-05
4.19804e-05
6.01319e-05
2.14448e-05
1.72366e-05
2.04313e-05
2.97861e-05
1.05897e-05
7.66426e-06
8.78436e-06
1.30362e-05
4.73318e-06
3.00376e-06
3.26828e-06
4.94237e-06
1.87745e-06
1.00581e-06
1.02082e-06
1.57605e-06
6.39374e-07
2.72417e-07
2.54985e-07
4.02762e-07
1.76745e-07
5.41752e-08
4.68272e-08
7.57293e-08
3.60566e-08
6.86665e-09
5.59468e-09
9.14822e-09
4.84065e-09
9.05342e-10
8.06214e-10
1.13284e-09
8.33926e-10
6.69573e-10
8.03541e-10
9.75946e-10
6.88494e-10
)
;

boundaryField
{
    leftWall
    {
        type            compressible::alphatWallFunction;
        Prt             0.85;
        value           nonuniform 0();
    }
    rightWall
    {
        type            compressible::alphatWallFunction;
        Prt             0.85;
        value           uniform 0;
    }
    leftSides_periodic0
    {
        type            cyclic;
    }
    leftSides_periodic1
    {
        type            cyclic;
    }
    rightSides_periodic0
    {
        type            cyclic;
    }
    rightSides_periodic1
    {
        type            cyclic;
    }
    leftInOut_periodic0
    {
        type            cyclic;
    }
    leftInOut_periodic1
    {
        type            cyclic;
    }
    rightInOut_periodic0
    {
        type            cyclic;
    }
    rightInOut_periodic1
    {
        type            cyclic;
    }
    procBoundary1to0
    {
        type            processor;
        value           nonuniform List<scalar> 
11
(
0.00916186
0.00599634
0.0133434
0.0128783
0.0128783
0.00809304
0.00597292
0.00494776
0.00184409
0.00809304
0.00597292
)
;
    }
    procBoundary1to0throughleftInOut_periodic0
    {
        type            processorCyclic;
        value           uniform 0.0133434;
    }
    procBoundary1to2throughleftSides_periodic0
    {
        type            processorCyclic;
        value           nonuniform List<scalar> 2(0.00864118 0.00877916);
    }
    procBoundary1to2throughrightSides_periodic0
    {
        type            processorCyclic;
        value           nonuniform List<scalar> 2(0.00461352 0.00536583);
    }
    procBoundary1to3
    {
        type            processor;
        value           nonuniform List<scalar> 
316
(
0.0115076
0.013776
0.00861258
0.00635098
0.0114069
0.0145309
0.00851417
0.00940485
0.0113044
0.0145587
0.00839358
0.00991825
0.0112215
0.0145655
0.00825147
0.00985392
0.0111593
0.0145489
0.00808778
0.00977632
0.011115
0.0145081
0.00790591
0.00968959
0.011088
0.0144425
0.0077104
0.00959825
0.0110821
0.0143511
0.0075078
0.00950655
0.0111016
0.0142348
0.00730499
0.00941769
0.0063348
0.0140931
0.00711159
0.00933304
0.00589597
0.0139269
0.00695227
0.0092531
0.00812282
0.0137386
0.00684031
0.00917942
0.0113446
0.013533
0.00676646
0.00859385
0.0113472
0.0133118
0.00672746
0.0058838
0.0113292
0.0130816
0.006721
0.00578192
0.0112891
0.0128465
0.00674604
0.00744382
0.0112256
0.0126062
0.00584236
0.00889449
0.0111387
0.0123605
0.00416717
0.00881801
0.0110291
0.0121098
0.00433867
0.00872997
0.0108986
0.0118551
0.00579864
0.00863003
0.0107508
0.0115977
0.00720733
0.00851834
0.0105903
0.0113389
0.00725482
0.00839553
0.0104283
0.0110833
0.00729071
0.00826226
0.0102617
0.0108382
0.00731388
0.00811923
0.0100886
0.0106051
0.00732335
0.00797377
0.00990822
0.010381
0.00731857
0.00782074
0.00972191
0.0101629
0.00729887
0.00606458
0.00952197
0.00995314
0.00726387
0.00506265
0.00733925
0.00975732
0.00721656
0.00526143
0.0057649
0.00957275
0.00681516
0.00615799
0.00568222
0.00927992
0.00516413
0.0069284
0.00668356
0.00630605
0.00447711
0.00691031
0.00783206
0.00496346
0.0048132
0.00674209
0.0083634
0.00511695
0.00574228
0.00656908
0.00826953
0.00626227
0.00652237
0.00639122
0.00807275
0.00751852
0.00672909
0.00620711
0.00783112
0.0081252
0.00661111
0.00601656
0.00758096
0.00814077
0.00647677
0.00582125
0.0073342
0.00792987
0.00632733
0.00562246
0.00709088
0.00767776
0.0061477
0.0054211
0.00685032
0.00740914
0.00595986
0.00521772
0.00661537
0.00712751
0.00576389
0.00501247
0.00638719
0.0068351
0.00556142
0.00480537
0.00615968
0.00653682
0.00535451
0.00459634
0.00592768
0.00623787
0.00514526
0.00438527
0.00568908
0.00594106
0.0049324
0.00417209
0.00543942
0.00564647
0.00471127
0.00395676
0.00517035
0.00535348
0.00448059
0.00373928
0.00489273
0.00506209
0.00424324
0.00351977
0.00460967
0.00477276
0.00400203
0.00329852
0.00432224
0.0044857
0.00375816
0.00307593
0.00403154
0.00420069
0.00351179
0.00285248
0.00373876
0.00391733
0.00326264
0.00262883
0.00344517
0.00363543
0.00301077
0.00240579
0.00315212
0.00335517
0.00275667
0.00218426
0.00286106
0.00307712
0.00250317
0.0019648
0.00257255
0.00280184
0.00225432
0.00174812
0.00228899
0.00252879
0.0020125
0.00153629
0.0020144
0.00226134
0.00177933
0.00133129
0.00174926
0.00200182
0.00155603
0.00113504
0.00149349
0.00175184
0.00134354
0.000949431
0.00125067
0.00151285
0.00114291
0.000776328
0.00102317
0.00128619
0.000947553
0.000617377
0.000813099
0.00107324
0.000760518
0.000474786
0.000623176
0.000865818
0.000589251
0.000350828
0.000456863
0.000665865
0.000436758
0.00024724
0.000317384
0.000487141
0.000306509
0.000164837
0.000206795
0.000334435
0.00020127
0.0001031
0.000125089
0.000212135
0.000122112
6.00001e-05
6.96135e-05
0.000122248
6.76109e-05
3.22261e-05
3.53708e-05
6.29695e-05
3.37716e-05
1.58321e-05
1.62735e-05
2.85594e-05
1.50358e-05
7.02843e-06
6.68342e-06
1.12169e-05
5.86475e-06
2.76537e-06
2.37861e-06
3.71372e-06
1.94501e-06
9.33287e-07
6.91199e-07
9.84587e-07
5.1924e-07
2.55385e-07
1.46442e-07
1.89367e-07
1.00908e-07
5.13391e-08
1.86273e-08
2.20556e-08
1.20167e-08
6.51607e-09
1.60286e-09
1.72915e-09
1.11616e-09
7.83937e-10
7.88215e-10
9.75108e-10
7.3378e-10
5.49921e-10
)
;
    }
    procBoundary1to3throughrightSides_periodic0
    {
        type            processorCyclic;
        value           nonuniform List<scalar> 
314
(
0.00445187
0.00427927
0.00409511
0.0039088
0.00373023
0.00356983
0.00343748
0.00334169
0.00328911
0.00328341
0.00332066
0.00338844
0.00347358
0.00356639
0.00366098
0.00375422
0.00384496
0.00393328
0.00401972
0.00410468
0.00418717
0.00426005
0.00432524
0.00438392
0.00443651
0.00448323
0.00452521
0.00443602
0.00333627
0.00283331
0.00302858
0.00371491
0.00441695
0.0046751
0.00463087
0.00457247
0.00450024
0.00438534
0.00383594
0.003327
0.00310647
0.00318603
0.00340247
0.00353803
0.0035327
0.00341758
0.00322509
0.00300647
0.00280005
0.00262279
0.00247028
0.00232422
0.00216363
0.00199271
0.00182091
0.00165349
0.00149205
0.00133593
0.00118418
0.0010366
0.000893939
0.000744304
0.00059245
0.000452315
0.000328164
0.000224003
0.000142389
8.34977e-05
4.48132e-05
2.18512e-05
9.58503e-06
3.71681e-06
1.23396e-06
3.31175e-07
6.47052e-08
7.53283e-09
4.18639e-10
1.20463e-10
0.00541533
0.00548276
0.00555436
0.00562859
0.00570499
0.00578301
0.00586166
0.0059393
0.00601384
0.00608297
0.00614467
0.00619669
0.00623783
0.00626712
0.00628432
0.00628936
0.00628236
0.00626386
0.0062341
0.00619351
0.0061425
0.0060816
0.0060117
0.00593402
0.00584992
0.00576075
0.00566774
0.0055723
0.00547472
0.00537522
0.00527459
0.00517309
0.00504048
0.00476742
0.00447173
0.00423765
0.00409924
0.00402078
0.00395552
0.00387364
0.00376562
0.00363783
0.00350202
0.00336705
0.00323624
0.00310865
0.00298149
0.002852
0.00271817
0.00257849
0.00243212
0.00227838
0.00211096
0.00194174
0.00177662
0.00161554
0.0014578
0.00130335
0.00115268
0.00100651
0.000865673
0.000730961
0.00060273
0.000469586
0.000345979
0.000240566
0.000156109
9.35017e-05
5.11705e-05
2.53534e-05
1.12527e-05
4.39847e-06
1.46817e-06
3.95637e-07
7.76082e-08
9.10676e-09
5.48207e-10
1.89632e-10
0.00881289
0.00897381
0.00911845
0.00924142
0.00933752
0.00940246
0.00943343
0.00943294
0.00940315
0.00934636
0.00926515
0.00916237
0.00904108
0.00890448
0.00875586
0.00859848
0.0084354
0.00826951
0.0081147
0.00797585
0.00785239
0.00773962
0.00763351
0.00753063
0.00743047
0.00733344
0.00723828
0.00691247
0.00639228
0.00593676
0.00575871
0.00586044
0.00608646
0.00624939
0.00627792
0.00621519
0.00609858
0.00593346
0.00572393
0.00548201
0.00522703
0.00497732
0.00474263
0.00452367
0.00431607
0.00411447
0.0039149
0.00371575
0.0035177
0.00332263
0.00313161
0.00294379
0.00275685
0.00256743
0.00236936
0.00217055
0.00197443
0.00178215
0.00159427
0.00141134
0.00123417
0.00106385
0.000901552
0.000738187
0.000573186
0.000424862
0.000297576
0.000194749
0.000117742
6.50671e-05
3.25484e-05
1.45775e-05
5.74695e-06
1.93406e-06
5.25405e-07
1.03919e-07
1.23247e-08
7.89951e-10
3.1436e-10
0.00880496
0.00882357
0.00883254
0.00883201
0.0088273
0.00882261
0.00881905
0.00881473
0.00880539
0.00878462
0.00875319
0.00871593
0.00867647
0.00863752
0.00860064
0.00856544
0.00853005
0.00849238
0.00845065
0.0084035
0.00834993
0.00828927
0.00822113
0.00814537
0.00805497
0.00794878
0.0078277
0.00765741
0.00731094
0.00690586
0.00652597
0.00621153
0.00596155
0.00575714
0.00557854
0.00541237
0.00525244
0.00509735
0.00494773
0.0048033
0.00466111
0.00451623
0.0043646
0.00420483
0.00403754
0.00386407
0.00368581
0.00350406
0.00331989
0.00313413
0.00294736
0.00275987
0.00257118
0.00237781
0.002183
0.00199189
0.00180479
0.00162156
0.0014425
0.00126819
0.00109865
0.000927167
0.000745828
0.000578552
0.000429611
0.000302879
0.000201022
0.000124613
7.16642e-05
3.80143e-05
1.84768e-05
8.14129e-06
3.18986e-06
1.07437e-06
2.93294e-07
5.83856e-08
6.92385e-09
3.76599e-10
9.25444e-11
)
;
    }
}


// ************************************************************************* //
