/*--------------------------------*- C++ -*----------------------------------*\
| =========                 |                                                 |
| \\      /  F ield         | OpenFOAM: The Open Source CFD Toolbox           |
|  \\    /   O peration     | Version:  v1906                                 |
|   \\  /    A nd           | Web:      www.OpenFOAM.com                      |
|    \\/     M anipulation  |                                                 |
\*---------------------------------------------------------------------------*/
FoamFile
{
    version     2.0;
    format      ascii;
    class       volScalarField;
    location    "96.4";
    object      T;
}
// * * * * * * * * * * * * * * * * * * * * * * * * * * * * * * * * * * * * * //

dimensions      [0 0 0 1 0 0 0];


internalField   nonuniform List<scalar> 
634
(
347.403
343.323
343.255
346.762
347.388
343.278
343.225
346.68
347.372
343.24
343.196
346.615
347.355
343.208
343.167
346.565
347.338
343.18
343.137
346.519
347.319
343.15
343.107
346.475
347.3
343.121
343.078
346.434
347.28
343.09
343.048
346.394
347.258
343.06
343.019
346.356
347.235
343.029
342.989
346.321
347.211
342.998
342.959
346.286
347.186
342.966
342.929
346.254
347.16
342.934
342.899
346.222
347.132
342.902
342.868
346.192
347.103
342.869
342.837
346.164
347.073
342.836
342.806
346.136
347.042
342.803
342.774
346.109
347.01
342.769
342.742
346.084
346.977
342.736
342.709
346.059
346.943
342.702
342.676
346.036
346.909
342.667
342.642
346.013
346.874
342.632
342.607
345.99
346.838
342.595
342.572
345.969
346.801
342.558
342.536
345.948
346.762
342.52
342.5
345.927
346.723
342.481
342.463
345.907
346.682
342.441
342.426
345.888
346.639
342.399
342.387
345.868
346.593
342.356
342.349
345.849
346.543
342.312
342.309
345.83
346.478
342.266
342.269
345.811
346.381
342.219
342.228
345.792
346.275
342.17
342.186
345.772
346.194
342.121
342.142
345.75
346.134
342.071
342.096
345.726
346.082
342.019
342.049
345.7
346.031
341.966
341.999
345.673
345.979
341.912
341.948
345.643
345.925
341.855
341.894
345.613
345.869
341.795
341.838
345.583
345.811
341.729
341.779
345.552
345.751
341.66
341.717
345.521
345.689
341.59
341.65
345.488
345.624
341.521
341.578
345.453
345.555
341.451
341.498
345.415
345.483
341.377
341.405
345.374
345.407
341.299
341.303
345.328
345.325
341.216
341.2
345.279
345.237
341.125
341.101
345.225
345.141
341.027
341.003
345.166
345.032
340.922
340.9
345.102
344.912
340.808
340.789
345.032
344.786
340.684
340.669
344.955
344.657
340.549
340.537
344.871
344.524
340.402
340.39
344.778
344.384
340.242
340.227
344.676
344.231
340.066
340.044
344.561
344.062
339.872
339.84
344.434
343.875
339.659
339.613
344.291
343.668
339.422
339.359
344.129
343.437
339.157
339.073
343.945
343.181
338.859
338.749
343.734
342.892
338.522
338.377
343.49
342.566
338.136
337.945
343.205
342.191
337.684
337.426
342.868
341.751
337.135
336.785
342.457
341.213
336.454
335.973
341.934
340.531
335.593
334.932
341.244
339.638
334.501
333.599
340.3
338.447
333.133
331.938
338.982
336.868
331.48
329.977
337.16
334.854
329.595
327.824
334.782
332.464
327.572
325.611
331.963
329.845
325.506
323.44
328.934
327.143
323.456
321.358
325.879
324.451
321.451
319.374
322.884
321.808
319.497
317.476
319.97
319.223
317.59
315.649
317.132
316.695
315.726
313.874
314.364
314.221
313.901
347.768
347.693
344.024
344.265
347.701
347.593
343.952
344.204
347.632
347.491
343.882
344.153
347.562
347.385
343.815
344.111
347.492
347.278
343.748
344.073
347.421
347.172
343.683
344.035
347.35
347.069
343.619
343.998
347.279
346.968
343.555
343.961
347.208
346.869
343.492
343.924
347.138
346.773
343.43
343.888
347.07
346.678
343.368
343.85
347.002
346.585
343.306
343.809
346.937
346.493
343.241
343.761
346.873
346.401
343.17
343.708
346.81
346.311
343.091
343.656
346.749
346.222
343.012
343.611
346.689
346.133
342.939
343.572
346.63
346.046
342.873
343.534
346.572
345.96
342.811
343.497
346.516
345.875
342.751
343.459
346.46
345.791
342.692
343.421
346.405
345.709
342.635
343.383
346.351
345.628
342.579
343.345
346.297
345.547
342.524
343.306
346.243
345.468
342.47
343.267
346.19
345.39
342.417
343.228
346.137
345.312
342.365
343.188
346.085
345.236
342.314
343.147
346.032
345.159
342.263
343.106
345.98
345.083
342.214
343.065
345.928
345.008
342.164
343.024
345.876
344.932
342.115
342.983
345.824
344.857
342.066
342.942
345.773
344.782
342.017
342.9
345.722
344.707
341.967
342.858
345.672
344.633
341.917
342.816
345.621
344.559
341.868
342.773
345.571
344.485
341.818
342.729
345.52
344.411
341.767
342.684
345.469
344.338
341.717
342.638
345.418
344.264
341.666
342.592
345.367
344.189
341.614
342.543
345.314
344.114
341.562
342.493
345.261
344.038
341.509
342.441
345.207
343.961
341.455
342.387
345.152
343.883
341.4
342.331
345.095
343.803
341.344
342.273
345.036
343.722
341.286
342.211
344.975
343.638
341.226
342.146
344.912
343.552
341.164
342.077
344.845
343.464
341.1
342.004
344.774
343.371
341.031
341.925
344.699
343.274
340.959
341.84
344.619
343.171
340.881
341.748
344.533
343.062
340.797
341.646
344.44
342.943
340.705
341.532
344.337
342.814
340.602
341.403
344.222
342.673
340.488
341.257
344.093
342.517
340.36
341.091
343.945
342.343
340.215
340.898
343.774
342.148
340.049
340.673
343.572
341.925
339.858
340.408
343.329
341.667
339.634
340.089
343.03
341.363
339.368
339.696
342.653
340.991
339.043
339.199
342.164
340.521
338.632
338.558
341.513
339.909
338.096
337.725
340.629
339.093
337.379
336.641
339.426
337.995
336.403
335.256
337.825
336.538
335.081
333.558
335.801
334.687
333.354
331.586
333.413
332.483
331.248
329.425
330.777
330.03
328.879
327.166
328.016
327.438
326.385
324.883
325.216
324.788
323.865
322.618
322.426
322.125
321.37
320.395
319.671
319.477
318.919
318.221
316.964
316.857
316.516
316.098
314.31
314.276
314.162
314.024
)
;

boundaryField
{
    leftWall
    {
        type            fixedValue;
        value           nonuniform 0();
    }
    rightWall
    {
        type            fixedValue;
        value           uniform 313;
    }
    leftSides_periodic0
    {
        type            cyclic;
    }
    leftSides_periodic1
    {
        type            cyclic;
    }
    rightSides_periodic0
    {
        type            cyclic;
    }
    rightSides_periodic1
    {
        type            cyclic;
    }
    leftInOut_periodic0
    {
        type            cyclic;
    }
    leftInOut_periodic1
    {
        type            cyclic;
    }
    rightInOut_periodic0
    {
        type            cyclic;
    }
    rightInOut_periodic1
    {
        type            cyclic;
    }
    procBoundary1to0
    {
        type            processor;
        value           nonuniform List<scalar> 
11
(
347.417
343.36
343.284
346.828
346.828
344.097
344.324
347.833
347.792
344.097
344.324
)
;
    }
    procBoundary1to0throughleftInOut_periodic0
    {
        type            processorCyclic;
        value           uniform 343.284;
    }
    procBoundary1to2throughleftSides_periodic0
    {
        type            processorCyclic;
        value           nonuniform List<scalar> 2(344.16 344.064);
    }
    procBoundary1to2throughrightSides_periodic0
    {
        type            processorCyclic;
        value           nonuniform List<scalar> 2(347.204 347.381);
    }
    procBoundary1to3
    {
        type            processor;
        value           nonuniform List<scalar> 
316
(
343.635
346.529
347.555
343.767
343.584
346.456
347.522
343.714
343.533
346.4
347.49
343.668
343.484
346.348
347.458
343.623
343.434
346.3
347.425
343.579
343.385
346.255
347.391
343.535
343.336
346.213
347.358
343.491
343.287
346.174
347.323
343.446
343.23
346.138
347.288
343.401
343.15
346.104
347.252
343.355
343.063
346.073
347.215
343.308
343
346.044
347.177
343.261
342.951
346.016
347.138
343.207
342.904
345.991
347.098
343.135
342.86
345.968
347.056
343.063
342.816
345.946
347.013
343.006
342.773
345.926
346.96
342.957
342.729
345.907
346.885
342.911
342.686
345.889
346.809
342.864
342.642
345.873
346.747
342.819
342.598
345.857
346.692
342.772
342.553
345.842
346.64
342.726
342.509
345.827
346.588
342.678
342.465
345.812
346.535
342.63
342.42
345.798
346.482
342.58
342.374
345.784
346.429
342.527
342.328
345.769
346.374
342.462
342.278
345.754
346.319
342.385
342.215
345.739
346.262
342.312
342.138
345.723
346.199
342.249
342.057
345.704
346.119
342.192
341.99
345.677
346.026
342.135
341.93
345.642
345.938
342.077
341.871
345.606
345.864
342.019
341.812
345.576
345.797
341.961
341.752
345.549
345.73
341.901
341.691
345.523
345.664
341.84
341.628
345.495
345.597
341.778
341.563
345.465
345.529
341.715
341.497
345.434
345.461
341.651
341.428
345.402
345.391
341.585
341.357
345.367
345.32
341.518
341.284
345.329
345.248
341.45
341.209
345.289
345.173
341.38
341.132
345.246
345.097
341.309
341.053
345.2
345.019
341.236
340.971
345.151
344.939
341.161
340.887
345.098
344.856
341.085
340.799
345.041
344.77
341.006
340.708
344.98
344.681
340.924
340.614
344.915
344.588
340.84
340.515
344.845
344.491
340.753
340.411
344.769
344.39
340.662
340.303
344.687
344.284
340.566
340.188
344.599
344.172
340.465
340.066
344.502
344.052
340.359
339.935
344.397
343.924
340.244
339.796
344.282
343.786
340.121
339.644
344.155
343.635
339.986
339.479
344.013
343.47
339.837
339.297
343.855
343.287
339.67
339.094
343.676
343.082
339.48
338.864
343.471
342.848
339.258
338.599
343.233
342.576
338.989
338.282
342.952
342.249
338.655
337.891
342.612
341.844
338.224
337.393
342.181
341.32
337.653
336.735
341.613
340.621
336.882
335.843
340.833
339.66
335.836
334.627
339.727
338.33
334.453
333.017
338.154
336.536
332.717
331.015
336.005
334.268
330.677
328.723
333.318
331.632
328.425
326.275
330.281
328.785
326.054
323.782
327.096
325.858
323.636
321.303
323.887
322.926
321.214
318.867
320.71
320.027
318.817
316.483
317.582
317.176
316.457
314.151
314.514
314.38
314.143
)
;
    }
    procBoundary1to3throughrightSides_periodic0
    {
        type            processorCyclic;
        value           nonuniform List<scalar> 
314
(
347.159
347.114
347.067
347.019
346.97
346.919
346.866
346.813
346.759
346.706
346.653
346.601
346.55
346.501
346.455
346.41
346.368
346.328
346.289
346.251
346.214
346.178
346.143
346.107
346.071
346.035
345.999
345.959
345.909
345.846
345.783
345.731
345.684
345.638
345.592
345.545
345.496
345.444
345.385
345.316
345.24
345.165
345.094
345.025
344.954
344.881
344.803
344.719
344.629
344.533
344.43
344.322
344.205
344.08
343.944
343.795
343.632
343.452
343.254
343.033
342.785
342.5
342.167
341.761
341.251
340.588
339.706
338.517
336.941
334.954
332.621
330.068
327.413
324.731
322.061
319.421
316.82
314.263
347.284
347.188
347.094
347.003
346.915
346.828
346.744
346.662
346.582
346.503
346.427
346.351
346.278
346.205
346.134
346.064
345.994
345.926
345.859
345.793
345.728
345.663
345.599
345.536
345.474
345.412
345.351
345.291
345.231
345.172
345.112
345.053
344.994
344.934
344.872
344.806
344.738
344.668
344.598
344.527
344.455
344.382
344.306
344.228
344.146
344.062
343.974
343.882
343.787
343.687
343.582
343.471
343.352
343.225
343.089
342.94
342.779
342.601
342.406
342.187
341.942
341.661
341.336
340.946
340.461
339.835
339.007
337.893
336.405
334.499
332.22
329.695
327.06
324.407
321.784
319.209
316.687
314.218
344.088
344.019
343.953
343.89
343.828
343.769
343.712
343.655
343.6
343.546
343.493
343.441
343.389
343.338
343.287
343.237
343.186
343.137
343.086
343.035
342.983
342.929
342.875
342.819
342.762
342.704
342.644
342.583
342.517
342.445
342.371
342.299
342.231
342.165
342.101
342.036
341.972
341.907
341.84
341.771
341.7
341.625
341.548
341.467
341.383
341.296
341.206
341.111
341.012
340.909
340.801
340.688
340.57
340.446
340.315
340.176
340.027
339.867
339.695
339.507
339.301
339.073
338.817
338.525
338.181
337.758
337.22
336.514
335.565
334.287
332.622
330.59
328.301
325.889
323.454
321.046
318.685
316.375
314.115
344.029
343.994
343.96
343.926
343.893
343.859
343.826
343.792
343.759
343.726
343.693
343.659
343.626
343.593
343.559
343.525
343.49
343.454
343.417
343.379
343.341
343.303
343.263
343.223
343.183
343.141
343.1
343.057
343.012
342.964
342.913
342.859
342.802
342.742
342.68
342.615
342.548
342.479
342.408
342.334
342.258
342.18
342.1
342.016
341.93
341.841
341.748
341.651
341.55
341.443
341.331
341.213
341.089
340.956
340.815
340.664
340.501
340.324
340.132
339.922
339.688
339.426
339.122
338.757
338.31
337.743
337.008
336.041
334.775
333.173
331.264
329.142
326.92
324.679
322.462
320.285
318.151
316.061
314.012
)
;
    }
}


// ************************************************************************* //
