/*--------------------------------*- C++ -*----------------------------------*\
| =========                 |                                                 |
| \\      /  F ield         | OpenFOAM: The Open Source CFD Toolbox           |
|  \\    /   O peration     | Version:  v1912                                 |
|   \\  /    A nd           | Website:  www.openfoam.com                      |
|    \\/     M anipulation  |                                                 |
\*---------------------------------------------------------------------------*/
FoamFile
{
    version     2.0;
    format      ascii;
    class       volScalarField;
    location    "198";
    object      alphat;
}
// * * * * * * * * * * * * * * * * * * * * * * * * * * * * * * * * * * * * * //

dimensions      [1 -1 -1 0 0 0 0];


internalField   nonuniform List<scalar> 
10147
(
0.019169
0.0173296
0.0153432
0.0149015
0.0149474
0.0149249
0.0148919
0.0148574
0.0148546
0.0148599
0.0148977
0.0149339
0.0149599
0.0149165
0.0153557
0.0173311
0.0152643
0.0150416
0.0149695
0.0149559
0.0149556
0.0149603
0.0149779
0.0150522
0.0152743
0.015648
0.0160288
0.0154698
0.0151206
0.0151384
0.0151171
0.0150387
0.0154399
0.017525
0.015395
0.0188147
0.0171205
0.0153925
0.0150098
0.0150445
0.0149939
0.0149399
0.0148914
0.0148851
0.0148942
0.0149462
0.0150034
0.0150576
0.0150256
0.0154063
0.017123
0.0184307
0.0168918
0.0154106
0.0150899
0.0151134
0.015042
0.0149696
0.0149087
0.0148992
0.0149117
0.0149761
0.0150518
0.015127
0.0151062
0.0154254
0.0168955
0.0180305
0.0166488
0.0154034
0.0151432
0.015159
0.0150699
0.0149816
0.01491
0.0148977
0.0149132
0.0149884
0.0150801
0.0151728
0.0151599
0.015419
0.0166536
0.0176224
0.0163978
0.0153736
0.015171
0.0151822
0.0150786
0.0149768
0.0148962
0.0148815
0.0148995
0.0149838
0.015089
0.0151962
0.0151881
0.0153899
0.0164037
0.0172067
0.0161438
0.0153239
0.0151754
0.0151845
0.0150693
0.0149565
0.0148685
0.0148517
0.014872
0.0149636
0.0150797
0.0151985
0.0151927
0.015341
0.0161508
0.0167922
0.0158912
0.0152573
0.0151585
0.0151675
0.0150434
0.0149219
0.0148282
0.0148097
0.0148318
0.0149292
0.0150539
0.0151815
0.015176
0.0152749
0.0158993
0.0163867
0.0156435
0.0151763
0.0151228
0.0151333
0.0150026
0.0148746
0.0147765
0.0147566
0.0147802
0.0148819
0.0150132
0.0151474
0.0151404
0.0151943
0.0156526
0.0159978
0.0154034
0.0150833
0.0150727
0.0150861
0.0149496
0.0148163
0.0147148
0.0146939
0.0147186
0.0148237
0.0149603
0.0151002
0.0150905
0.0151018
0.0154133
0.0156301
0.0151727
0.0149817
0.0150144
0.0150317
0.0148894
0.0147509
0.0146464
0.0146245
0.0146502
0.0147586
0.0149003
0.0150459
0.0150324
0.0150005
0.0151834
0.0152863
0.0149524
0.014876
0.0149511
0.0149731
0.0148264
0.0146836
0.0145761
0.0145536
0.0145801
0.0146914
0.0148375
0.0149874
0.0149691
0.0148952
0.0149637
0.014967
0.0147425
0.0147702
0.0148835
0.0149107
0.0147615
0.0146158
0.0145064
0.0144836
0.0145106
0.0146238
0.0147727
0.0149249
0.0149014
0.0147895
0.0147543
0.014669
0.0145424
0.0146653
0.0148111
0.0148434
0.0146937
0.0145468
0.0144367
0.0144139
0.014441
0.0145549
0.014705
0.0148576
0.0148288
0.0146847
0.0145547
0.0143911
0.0143511
0.0145607
0.0147329
0.0147703
0.0146218
0.0144752
0.0143655
0.0143429
0.0143698
0.0144833
0.014633
0.0147842
0.0147503
0.0145801
0.0143637
0.0141326
0.014169
0.0144553
0.0146478
0.0146899
0.0145441
0.0143991
0.0142909
0.0142689
0.0142952
0.0144073
0.0145552
0.0147036
0.0146649
0.0144744
0.0141819
0.013892
0.013997
0.0143474
0.0145549
0.0146012
0.0144593
0.0143172
0.0142113
0.0141901
0.0142156
0.0143253
0.0144702
0.0146146
0.0145716
0.0143662
0.01401
0.0136673
0.0138344
0.0142357
0.0144532
0.014503
0.0143661
0.0142278
0.0141251
0.0141049
0.0141293
0.0142358
0.0143768
0.014516
0.0144693
0.014254
0.0138476
0.0134567
0.0136796
0.0141188
0.0143418
0.0143946
0.0142635
0.0141299
0.0140309
0.0140118
0.0140351
0.0141377
0.0142739
0.0144072
0.0143573
0.0141365
0.0136926
0.0132596
0.0135299
0.0139953
0.0142201
0.0142753
0.0141507
0.0140224
0.0139276
0.0139098
0.0139317
0.01403
0.0141608
0.0142875
0.0142351
0.0140125
0.0135428
0.013075
0.0133828
0.0138644
0.0140878
0.0141448
0.0140271
0.0139046
0.0138143
0.0137979
0.0138184
0.013912
0.0140369
0.0141566
0.0141022
0.0138809
0.0133954
0.0129009
0.0132358
0.0137252
0.0139448
0.0140033
0.0138924
0.013776
0.0136905
0.0136754
0.0136944
0.0137832
0.0139019
0.0140146
0.0139586
0.0137409
0.0132481
0.0127342
0.0130868
0.0135771
0.0137915
0.0137902
0.0137471
0.0136367
0.0135559
0.0135421
0.0135597
0.0136436
0.0137562
0.0138007
0.0138046
0.0135921
0.0130987
0.0125719
0.0129337
0.0134202
0.0134934
0.0134508
0.0134244
0.0133778
0.0133382
0.0133352
0.0133407
0.0133831
0.0134325
0.0134613
0.0135056
0.0134345
0.0129451
0.0124108
0.012775
0.0131519
0.0131576
0.0131168
0.0130846
0.013049
0.0130164
0.0130151
0.0130188
0.0130542
0.0130927
0.0131274
0.0131695
0.0131628
0.0127859
0.0122484
0.0126097
0.0128305
0.0128565
0.012834
0.0127913
0.0127488
0.0127118
0.0127092
0.0127144
0.0127544
0.0127997
0.0128446
0.0128684
0.0128406
0.0126201
0.0120827
0.0124375
0.0125403
0.0126087
0.0126069
0.0125565
0.0125046
0.0124612
0.0124571
0.0124642
0.0125105
0.012565
0.0126172
0.0126203
0.0125507
0.0124474
0.0119123
0.0122585
0.0122995
0.0124072
0.0124236
0.0123693
0.0123102
0.012262
0.0122568
0.0122652
0.0123164
0.0123777
0.0124335
0.0124184
0.0123101
0.012268
0.0117367
0.0120728
0.0120983
0.0122359
0.0122672
0.0122117
0.0121484
0.0120974
0.0120916
0.0121007
0.0121547
0.0122199
0.0122767
0.0122467
0.0121091
0.0120819
0.0115556
0.0118801
0.0119194
0.0120784
0.0121215
0.012066
0.0120009
0.0119486
0.0119429
0.0119521
0.0120072
0.0120741
0.0121306
0.0120887
0.0119301
0.0118888
0.0113688
0.0116376
0.0117477
0.0119212
0.0119739
0.011919
0.0118536
0.0118013
0.0117958
0.0118047
0.0118599
0.0119269
0.0119826
0.0119311
0.011758
0.011645
0.0111594
0.011393
0.0115735
0.011757
0.0118174
0.0117635
0.0116989
0.0116471
0.0116421
0.0116505
0.0117051
0.0117712
0.0118257
0.0117665
0.0115834
0.0114003
0.0109128
0.0111605
0.0113924
0.0115829
0.0116495
0.0115968
0.0115335
0.0114826
0.0114781
0.011486
0.0115396
0.0116043
0.0116575
0.0115919
0.0114019
0.0111678
0.0106677
0.010939
0.0112033
0.0113977
0.0114691
0.0114178
0.0113562
0.0113068
0.0113027
0.0113101
0.0113621
0.011425
0.0114767
0.0114063
0.0112124
0.0109462
0.0104337
0.010724
0.0110067
0.0111997
0.0112732
0.0112239
0.0111649
0.0111181
0.0111144
0.0111212
0.0111706
0.0112307
0.0112804
0.0112078
0.0110155
0.0107311
0.0102111
0.0105101
0.0108027
0.0109815
0.0110518
0.0110067
0.010952
0.0109108
0.0109074
0.0109137
0.0109572
0.011013
0.0110584
0.010989
0.010811
0.010517
0.00999803
0.0102889
0.0105876
0.0107265
0.0107822
0.0107463
0.0107003
0.0106714
0.0106678
0.0106738
0.0107046
0.0107516
0.010788
0.0107328
0.0105953
0.0102953
0.00979075
0.0100409
0.0103473
0.0104424
0.0104962
0.0104636
0.0104213
0.0103955
0.0103922
0.0103978
0.0104254
0.0104686
0.0105017
0.0104483
0.0103537
0.0100463
0.00958144
0.00977391
0.0100642
0.01015
0.0102017
0.0101723
0.0101336
0.0101106
0.0101076
0.0101128
0.0101375
0.0101771
0.0102069
0.0101556
0.0100701
0.00977897
0.009351
0.00949883
0.0097727
0.00984979
0.00989925
0.00987297
0.00983764
0.00981737
0.00981458
0.00981947
0.00984141
0.00987754
0.00990415
0.00985502
0.00977822
0.00950351
0.00908754
0.00921589
0.00947337
0.00954214
0.00958917
0.0095659
0.00953383
0.0095161
0.00951352
0.00951811
0.00953743
0.00957026
0.00959382
0.00954704
0.00947849
0.0092202
0.00881582
0.00892521
0.00916647
0.00922737
0.00927185
0.00925149
0.00922252
0.00920717
0.00920477
0.00920909
0.00922595
0.00925564
0.00927626
0.00923196
0.00917121
0.00892916
0.00853596
0.00862695
0.00885226
0.00890573
0.00894756
0.00893
0.00890398
0.00889085
0.00888861
0.00889268
0.00890726
0.00893396
0.00895174
0.00891002
0.00885664
0.00863055
0.00824813
0.00832133
0.00853102
0.00857747
0.00861658
0.00860172
0.00857851
0.00856745
0.00856533
0.00856919
0.00858163
0.00860549
0.00862055
0.00858148
0.00853505
0.00832459
0.00795243
0.00800855
0.00820302
0.00824287
0.00827921
0.00826695
0.00824639
0.00823724
0.00823525
0.0082389
0.00824936
0.00827053
0.00828298
0.00824662
0.00820673
0.00801149
0.00764898
0.0076888
0.00786851
0.00790217
0.00793572
0.00792593
0.00790789
0.0079005
0.0078986
0.00790207
0.00791071
0.00792934
0.00793929
0.00790567
0.0078719
0.00769144
0.00733786
0.00736225
0.00752768
0.00755558
0.00758633
0.00757889
0.00756322
0.00755744
0.00755563
0.00755894
0.0075659
0.00758213
0.00758971
0.00755884
0.00753078
0.00736459
0.0070192
0.00702908
0.00718077
0.00720332
0.00723129
0.00722608
0.00721264
0.00720832
0.00720658
0.00720974
0.00721517
0.00722915
0.00723449
0.00720636
0.00718359
0.00703115
0.00669316
0.00668955
0.00682804
0.00684565
0.00687087
0.00686775
0.0068564
0.00685341
0.00685174
0.00685475
0.0068588
0.00687066
0.00687391
0.00684847
0.00683059
0.00669135
0.00635997
0.00634393
0.00646978
0.00648287
0.0065054
0.00650424
0.00649484
0.00649304
0.00649142
0.0064943
0.00649711
0.006507
0.00650828
0.00648549
0.00647209
0.0063455
0.00601996
0.00599264
0.00610642
0.00611539
0.00613532
0.00613597
0.00612837
0.00612763
0.00612606
0.00612882
0.00613051
0.00613857
0.00613804
0.00611782
0.00610849
0.00599398
0.00567357
0.00563618
0.00573845
0.00574373
0.00576114
0.00576345
0.00575751
0.00575771
0.00575619
0.00575883
0.00575953
0.00576592
0.00576372
0.00574598
0.00574031
0.00563731
0.00532141
0.00527523
0.00536657
0.00536857
0.00538359
0.00538739
0.00538297
0.00538399
0.0053825
0.00538503
0.00538486
0.00538972
0.00538602
0.00537065
0.00536823
0.00527617
0.00496428
0.00491067
0.00499165
0.00499078
0.00500355
0.00500868
0.00500563
0.00500735
0.00500591
0.00500833
0.0050074
0.00501087
0.00500585
0.00499271
0.00499312
0.00491144
0.00460322
0.00454361
0.0046148
0.0046115
0.00462219
0.00462844
0.00462662
0.00462894
0.00462754
0.00462985
0.00462828
0.00463051
0.00462436
0.00461329
0.00461611
0.00454423
0.00423956
0.00417547
0.00423745
0.00423214
0.00424093
0.00424812
0.00424736
0.00425018
0.00424882
0.00425103
0.00424891
0.00425006
0.00424298
0.00423379
0.00423861
0.00417594
0.00387498
0.00380797
0.00386134
0.00385444
0.00386156
0.00386945
0.00386961
0.00387283
0.00387152
0.00387361
0.00387105
0.00387127
0.00386348
0.00385597
0.00386236
0.00380832
0.00351151
0.00344317
0.00348854
0.00348046
0.00348612
0.00349452
0.00349542
0.00349896
0.00349771
0.00349968
0.00349676
0.00349621
0.00348793
0.00348187
0.00348944
0.00344342
0.00315156
0.00308341
0.00312139
0.00311255
0.00311697
0.00312564
0.00312716
0.00313092
0.00312973
0.00313158
0.00312839
0.00312722
0.00311866
0.00311385
0.00312219
0.00308358
0.00279787
0.0027313
0.00276253
0.00275331
0.00275669
0.00276544
0.00276741
0.00277133
0.0027702
0.00277193
0.00276854
0.0027669
0.00275826
0.0027545
0.00276323
0.0027314
0.00245343
0.00238967
0.00241483
0.00240557
0.00240811
0.00241674
0.00241903
0.00242303
0.00242196
0.00242357
0.00242006
0.00241808
0.00240956
0.00240667
0.00241544
0.00238972
0.0021214
0.00206155
0.00208134
0.00207236
0.00207427
0.00208257
0.00208506
0.00208905
0.00208805
0.00208954
0.00208598
0.0020838
0.0020756
0.00207336
0.00208187
0.00206156
0.00180509
0.00175006
0.00176521
0.00175678
0.00175823
0.00176603
0.00176858
0.00177249
0.00177158
0.00177293
0.00176941
0.00176714
0.00175944
0.00175768
0.00176568
0.00175004
0.00150775
0.00145825
0.00146951
0.00146182
0.00146299
0.00147013
0.00147264
0.00147638
0.00147556
0.00147676
0.00147337
0.00147111
0.00146407
0.00146263
0.00146992
0.00145822
0.00123246
0.00118897
0.00119708
0.00119027
0.00119128
0.00119762
0.00120001
0.0012035
0.00120277
0.00120383
0.00120064
0.00119848
0.00119223
0.00119098
0.00119743
0.00118892
0.000979735
0.000941512
0.000947652
0.000941777
0.0009424
0.000948076
0.000950242
0.000953314
0.000952642
0.000953588
0.000950778
0.000948814
0.000943217
0.00094239
0.000947953
0.000941468
0.000751893
0.000719672
0.000724071
0.000719222
0.00071961
0.000724464
0.000726349
0.00072897
0.000728385
0.000729194
0.000726792
0.000725078
0.000720293
0.000719736
0.000724323
0.000719631
0.000553638
0.000527685
0.000530697
0.000526872
0.000527144
0.000531086
0.000532654
0.000534796
0.000534319
0.000534973
0.000533006
0.000531576
0.000527692
0.000527286
0.000530899
0.00052765
0.000387989
0.000368157
0.000370155
0.000367287
0.000367515
0.000370529
0.000371767
0.000373424
0.000373062
0.000373556
0.000372032
0.000370902
0.000367933
0.000367603
0.00037031
0.00036813
0.000256143
0.000241928
0.000243228
0.000241202
0.000241412
0.000243558
0.000244474
0.000245669
0.000245417
0.000245762
0.000244663
0.000243824
0.000241711
0.000241429
0.000243339
0.000241908
0.000157314
0.000147904
0.000148733
0.000147407
0.000147593
0.000148996
0.000149622
0.000150412
0.000150254
0.000150473
0.000149746
0.000149171
0.00014779
0.000147557
0.000148808
0.000147892
8.85839e-05
8.29424e-05
8.34492e-05
8.26596e-05
8.28062e-05
8.36355e-05
8.40232e-05
8.44932e-05
8.44049e-05
8.45294e-05
8.40974e-05
8.37407e-05
8.29246e-05
8.27501e-05
8.34947e-05
8.29357e-05
4.5012e-05
4.20134e-05
4.22982e-05
4.18813e-05
4.19793e-05
4.24149e-05
4.26273e-05
4.28751e-05
4.28318e-05
4.28944e-05
4.2667e-05
4.24712e-05
4.20426e-05
4.19298e-05
4.2323e-05
4.20103e-05
2.0289e-05
1.89051e-05
1.90459e-05
1.88553e-05
1.89096e-05
1.91097e-05
1.92105e-05
1.93244e-05
1.93059e-05
1.93334e-05
1.92291e-05
1.9136e-05
1.89392e-05
1.88781e-05
1.90577e-05
1.89039e-05
7.94925e-06
7.40598e-06
7.46483e-06
7.3912e-06
7.41569e-06
7.4947e-06
7.53529e-06
7.58016e-06
7.57336e-06
7.58379e-06
7.54274e-06
7.50526e-06
7.42757e-06
7.4004e-06
7.46968e-06
7.40562e-06
2.6276e-06
2.45094e-06
2.47105e-06
2.44772e-06
2.45653e-06
2.48267e-06
2.49615e-06
2.51097e-06
2.50881e-06
2.51219e-06
2.49866e-06
2.48621e-06
2.46051e-06
2.45082e-06
2.4727e-06
2.45086e-06
6.96368e-07
6.50971e-07
6.56321e-07
6.50554e-07
6.5299e-07
6.59895e-07
6.63422e-07
6.67326e-07
6.66766e-07
6.67655e-07
6.64092e-07
6.60839e-07
6.54049e-07
6.51382e-07
6.56769e-07
6.50961e-07
1.35579e-07
1.27152e-07
1.28175e-07
1.27154e-07
1.27638e-07
1.28961e-07
1.29629e-07
1.30376e-07
1.3027e-07
1.3044e-07
1.29759e-07
1.29143e-07
1.27842e-07
1.27315e-07
1.28262e-07
1.27152e-07
1.80025e-08
1.70187e-08
1.71495e-08
1.70308e-08
1.70994e-08
1.72507e-08
1.73359e-08
1.74202e-08
1.74115e-08
1.74278e-08
1.73512e-08
1.72722e-08
1.71233e-08
1.70496e-08
1.71597e-08
1.70187e-08
3.8821e-09
3.76144e-09
3.78848e-09
3.76608e-09
3.7859e-09
3.79343e-09
3.8108e-09
3.81392e-09
3.81809e-09
3.81455e-09
3.81207e-09
3.79511e-09
3.78771e-09
3.76737e-09
3.78902e-09
3.76118e-09
3.47173e-09
3.38176e-09
3.40606e-09
3.38598e-09
3.40473e-09
3.4061e-09
3.42155e-09
3.42095e-09
3.42607e-09
3.4213e-09
3.42223e-09
3.40695e-09
3.40561e-09
3.38651e-09
3.40617e-09
3.38145e-09
0.0156477
0.0157334
0.0160766
0.0156916
0.0153446
0.0151566
0.0151033
0.0151015
0.0151034
0.0151058
0.0151116
0.015167
0.0153543
0.0156976
0.0160773
0.0157309
0.016016
0.0159628
0.0161078
0.015722
0.0154061
0.0152495
0.0152146
0.0152241
0.0152281
0.0152284
0.0152227
0.0152595
0.0154155
0.0157277
0.0161081
0.0159594
0.0163368
0.0161549
0.0161184
0.0157322
0.015445
0.0153186
0.0153012
0.0153213
0.0153271
0.0153254
0.015309
0.0153282
0.015454
0.0157375
0.0161184
0.0161505
0.0166084
0.0163082
0.0161092
0.0157232
0.0154622
0.0153642
0.015363
0.0153925
0.0153999
0.0153965
0.0153704
0.0153734
0.0154709
0.0157282
0.0161087
0.016303
0.0168289
0.0164223
0.0160808
0.0156962
0.0154591
0.0153869
0.0154003
0.0154382
0.0154468
0.015442
0.0154074
0.0153957
0.0154675
0.0157009
0.01608
0.0164162
0.0169985
0.0164973
0.0160341
0.0156523
0.0154369
0.0153877
0.0154139
0.015459
0.0154684
0.0154626
0.0154207
0.0153961
0.0154449
0.0156567
0.016033
0.0164905
0.0171182
0.0165345
0.0159702
0.0155932
0.0153979
0.0153693
0.0154065
0.0154575
0.0154674
0.015461
0.0154131
0.0153775
0.0154057
0.0155974
0.0159689
0.0165271
0.0171905
0.0165357
0.0158915
0.0155237
0.0153484
0.0153382
0.0153843
0.0154396
0.0154497
0.015443
0.0153907
0.0153462
0.015356
0.0155278
0.0158901
0.0165278
0.0172181
0.0165045
0.0158032
0.01545
0.0152941
0.0152998
0.0153528
0.015411
0.0154211
0.0154144
0.0153592
0.0153078
0.0153017
0.015454
0.0158017
0.0164962
0.0172042
0.0164455
0.0157093
0.0153744
0.0152367
0.0152557
0.0153138
0.0153738
0.0153838
0.0153772
0.0153202
0.0152636
0.0152442
0.0153784
0.0157079
0.0164371
0.0171522
0.0163631
0.0156111
0.0152964
0.0151752
0.0152055
0.0152673
0.0153282
0.0153379
0.0153316
0.0152736
0.0152133
0.0151827
0.0153005
0.0156098
0.0163546
0.0170657
0.0162601
0.0155081
0.0152146
0.0151083
0.0151479
0.0152123
0.0152735
0.0152828
0.0152769
0.0152185
0.0151557
0.0151157
0.0152186
0.0155068
0.0162517
0.0169486
0.0161387
0.0153992
0.015127
0.0150341
0.0150816
0.0151476
0.0152086
0.0152175
0.015212
0.0151537
0.0150892
0.0150414
0.015131
0.015398
0.0161304
0.0168045
0.0160006
0.0152827
0.0150317
0.0149509
0.0150049
0.0150718
0.0151323
0.0151407
0.0151356
0.0150778
0.0150124
0.0149582
0.0150356
0.0152816
0.0159925
0.0166365
0.0158468
0.0151572
0.0149268
0.014857
0.0149162
0.0149835
0.0150431
0.015051
0.0150464
0.0149894
0.0149236
0.014864
0.0149307
0.0151562
0.015839
0.016447
0.0156781
0.0150213
0.0148107
0.0147506
0.0148142
0.0148813
0.0149398
0.0149473
0.014943
0.014887
0.0148214
0.0147575
0.0148145
0.0150203
0.0156706
0.0162384
0.0154951
0.0148736
0.0146818
0.0146304
0.0146975
0.014764
0.0148214
0.0148283
0.0148245
0.0147696
0.0147045
0.0146372
0.0146856
0.0148727
0.0154878
0.016013
0.0152983
0.0147132
0.0145391
0.0144953
0.0145653
0.0146309
0.0146869
0.0146934
0.01469
0.0146363
0.0145721
0.0145019
0.0145428
0.0147123
0.0152913
0.015773
0.0150884
0.0145395
0.0143818
0.0143447
0.0144169
0.0144815
0.0145362
0.0145422
0.0145391
0.0144867
0.0144235
0.0143512
0.0143855
0.0145387
0.0150818
0.0155202
0.0148664
0.0143527
0.01421
0.0141787
0.0142527
0.014316
0.0143694
0.014375
0.0143723
0.0143211
0.0142591
0.014185
0.0142136
0.014352
0.0148601
0.0152563
0.0146334
0.0141534
0.0140243
0.013998
0.0140735
0.0141355
0.0141875
0.0141927
0.0141903
0.0141404
0.0140797
0.0140042
0.0140278
0.0141527
0.0146275
0.0149825
0.0143905
0.0139426
0.013826
0.013804
0.0138806
0.0139412
0.0139919
0.0139967
0.0139946
0.013946
0.0138866
0.01381
0.0138294
0.013942
0.0143849
0.0146997
0.0141384
0.0137213
0.0136165
0.0135984
0.0136757
0.0137348
0.013784
0.0137884
0.0137867
0.0137394
0.0136815
0.0136042
0.0136199
0.0137208
0.0141331
0.0144086
0.0138777
0.0134904
0.0133969
0.0133824
0.0134598
0.0135172
0.0135649
0.0135689
0.0135675
0.0135218
0.0134655
0.0133881
0.0134003
0.0134899
0.0138728
0.0141096
0.0136089
0.0132503
0.0131679
0.0131568
0.0132339
0.0132893
0.0133353
0.0133388
0.0133378
0.0132937
0.0132394
0.0131623
0.0131712
0.0132499
0.0136044
0.0138034
0.0133324
0.0130016
0.01293
0.0129221
0.0129984
0.0130516
0.0130959
0.0130989
0.0130983
0.0130559
0.0130038
0.0129275
0.0129334
0.0130013
0.0133282
0.0134903
0.0130483
0.0127444
0.0126834
0.0126783
0.0127534
0.0128045
0.0128468
0.0128495
0.0128492
0.0128086
0.0127587
0.0126837
0.0126867
0.0127443
0.0130445
0.0131706
0.0127566
0.0124787
0.0124276
0.0124253
0.0124989
0.0125476
0.0125881
0.0125904
0.0125905
0.0125517
0.012504
0.0124305
0.0124309
0.0124787
0.0127531
0.0128444
0.0124575
0.0122048
0.0121629
0.012163
0.0122346
0.0122811
0.0123196
0.0123216
0.0123219
0.0122851
0.0122396
0.0121681
0.0121662
0.012205
0.0124543
0.0125125
0.0121514
0.0119233
0.0118896
0.0118918
0.0119613
0.0120055
0.0120421
0.0120436
0.0120443
0.0120094
0.0119661
0.0118968
0.0118929
0.0119235
0.0121486
0.0121752
0.011839
0.0116345
0.0116084
0.0116125
0.0116795
0.0117215
0.0117559
0.0117571
0.0117581
0.0117252
0.0116842
0.0116173
0.0116117
0.0116349
0.0118365
0.0118331
0.0115206
0.011339
0.0113196
0.0113253
0.0113897
0.0114293
0.0114615
0.0114625
0.0114637
0.0114329
0.0113943
0.0113301
0.0113229
0.0113396
0.0115185
0.0114865
0.0111967
0.011037
0.0110236
0.0110306
0.0110923
0.0111292
0.0111594
0.01116
0.0111615
0.0111328
0.0110967
0.0110353
0.0110268
0.0110377
0.0111949
0.0111357
0.0108676
0.0107286
0.0107203
0.0107285
0.0107872
0.0108216
0.0108497
0.0108501
0.0108517
0.0108251
0.0107916
0.010733
0.0107236
0.0107295
0.010866
0.010781
0.0105335
0.0104141
0.0104101
0.0104192
0.010475
0.0105068
0.0105328
0.0105329
0.0105348
0.0105102
0.0104792
0.0104236
0.0104133
0.0104152
0.0105322
0.0104228
0.0101948
0.0100938
0.0100932
0.0101031
0.0101558
0.0101851
0.0102091
0.010209
0.0102111
0.0101883
0.0101599
0.0101074
0.0100965
0.010095
0.0101937
0.0100614
0.00985174
0.0097678
0.00977012
0.00978044
0.00983012
0.00985695
0.00987913
0.0098788
0.00988101
0.00986011
0.0098341
0.00978462
0.00977333
0.00976909
0.00985091
0.00969701
0.00950474
0.00943641
0.00944114
0.00945172
0.00949847
0.00952295
0.00954332
0.00954279
0.00954515
0.00952602
0.00950234
0.0094558
0.00944433
0.00943782
0.00950413
0.00933
0.00915423
0.00909986
0.00910662
0.00911727
0.00916122
0.0091835
0.00920212
0.00920143
0.00920389
0.00918647
0.00916498
0.00912124
0.00910979
0.00910138
0.00915383
0.00896066
0.00880039
0.00875823
0.00876672
0.00877726
0.00881859
0.00883883
0.00885578
0.00885497
0.0088575
0.00884171
0.00882223
0.00878114
0.00876986
0.00875984
0.00880017
0.00858917
0.00844329
0.00841164
0.00842161
0.0084319
0.00847078
0.00848916
0.00850453
0.00850362
0.0085062
0.00849194
0.00847432
0.00843569
0.00842473
0.00841334
0.00844324
0.00821562
0.00808306
0.00806036
0.00807158
0.0080815
0.0081181
0.00813479
0.00814865
0.00814767
0.00815027
0.00813748
0.00812153
0.00808519
0.00807467
0.00806212
0.00808316
0.00783999
0.00771977
0.00770456
0.00771685
0.00772629
0.00776077
0.00777594
0.00778838
0.00778735
0.00778994
0.00777854
0.00776411
0.00772989
0.00771991
0.00770638
0.00771999
0.00746222
0.00735341
0.00734439
0.0073576
0.00736647
0.007399
0.00741279
0.00742387
0.00742283
0.00742539
0.0074153
0.00740223
0.00736999
0.00736062
0.00734626
0.00735375
0.00708225
0.00698404
0.00698002
0.00699401
0.00700225
0.00703296
0.00704552
0.00705532
0.00705429
0.00705679
0.00704795
0.0070361
0.00700568
0.006997
0.00698193
0.00698448
0.00670008
0.00661174
0.00661169
0.00662633
0.00663388
0.00666291
0.00667436
0.00668294
0.00668194
0.00668436
0.0066767
0.00666595
0.00663724
0.00662928
0.00661364
0.00661227
0.0063158
0.00623671
0.00623973
0.0062549
0.00626174
0.00628918
0.00629963
0.00630707
0.00630611
0.00630844
0.00630189
0.00629213
0.00626502
0.00625781
0.0062417
0.00623731
0.0059297
0.00585932
0.00586461
0.0058802
0.00588632
0.00591225
0.0059218
0.00592817
0.00592726
0.00592949
0.00592398
0.00591512
0.00588952
0.00588308
0.00586659
0.00585999
0.00554226
0.00548012
0.00548701
0.00550292
0.00550832
0.00553281
0.00554154
0.0055469
0.00554606
0.00554817
0.00554364
0.00553559
0.00551143
0.00550575
0.005489
0.00548084
0.00515424
0.00509991
0.00510784
0.00512396
0.00512866
0.00515177
0.00515975
0.00516417
0.00516341
0.00516539
0.00516176
0.00515446
0.00513169
0.00512674
0.00510984
0.00510068
0.0047667
0.00471979
0.00472832
0.00474453
0.00474856
0.00477032
0.00477759
0.00478116
0.00478048
0.00478234
0.00477953
0.00477291
0.0047515
0.00474725
0.0047303
0.0047206
0.00438103
0.00434115
0.00434992
0.00436611
0.00436951
0.00438994
0.00439656
0.00439936
0.00439876
0.00440048
0.00439842
0.00439245
0.00437237
0.00436877
0.00435188
0.00434198
0.00399893
0.00396567
0.00397443
0.00399048
0.00399333
0.00401243
0.00401842
0.00402053
0.00402001
0.00402161
0.00402019
0.00401483
0.00399608
0.00399306
0.00397636
0.00396652
0.00362244
0.00359536
0.00360395
0.00361972
0.00362208
0.00363985
0.00364524
0.00364676
0.00364629
0.00364777
0.00364693
0.00364215
0.00362473
0.00362221
0.00360584
0.00359622
0.00325391
0.00323251
0.0032342
0.00323758
0.0032406
0.00325764
0.00326708
0.00326701
0.00326851
0.00326809
0.00326884
0.00326
0.00324324
0.00323994
0.00323576
0.00323336
0.00286626
0.00283368
0.0028308
0.00283426
0.00283632
0.0028522
0.00286089
0.00286058
0.002862
0.0028616
0.00286256
0.00285445
0.00283884
0.00283652
0.0028323
0.00283426
0.00247825
0.00245098
0.00244812
0.00245371
0.00245492
0.00246935
0.00247637
0.00247611
0.0024771
0.00247703
0.00247788
0.00247141
0.00245724
0.00245581
0.00244956
0.00245154
0.00212041
0.00210064
0.00209878
0.00210594
0.00210662
0.00211948
0.00212493
0.00212477
0.00212535
0.00212558
0.00212628
0.00212133
0.00210872
0.00210787
0.00210015
0.0021012
0.00179838
0.00178505
0.00178435
0.00179225
0.00179266
0.00180393
0.00180809
0.001808
0.00180829
0.00180871
0.00180928
0.00180557
0.00179454
0.00179399
0.00178562
0.0017856
0.00151163
0.00150325
0.0015036
0.00151159
0.0015119
0.00152161
0.00152477
0.00152473
0.00152481
0.00152534
0.0015258
0.00152305
0.00151355
0.00151314
0.00150475
0.00150379
0.00125813
0.0012534
0.00125459
0.00126223
0.00126253
0.00127078
0.00127315
0.00127314
0.00127309
0.00127367
0.00127404
0.00127203
0.00126397
0.0012636
0.00125562
0.0012539
0.00103545
0.00103333
0.00103513
0.00104215
0.00104248
0.00104939
0.00105116
0.00105116
0.00105104
0.00105161
0.00105192
0.00105046
0.00104372
0.00104333
0.00103604
0.00103378
0.000841103
0.000840773
0.000842964
0.000849203
0.000849592
0.000855287
0.000856596
0.000856597
0.000856441
0.000856969
0.000857234
0.00085619
0.000850643
0.000850214
0.000843751
0.000841178
0.000672585
0.000673421
0.000675804
0.000681193
0.000681642
0.000686249
0.000687219
0.000687207
0.000687049
0.000687515
0.000687749
0.000687002
0.000682521
0.000682045
0.000676476
0.000673775
0.000526637
0.000528179
0.000530684
0.000535204
0.000535724
0.000539365
0.000540091
0.000540046
0.000539911
0.000540298
0.000540525
0.000539985
0.00053645
0.000535911
0.00053125
0.000528483
0.000387662
0.000390195
0.000394029
0.000397728
0.000398676
0.000401372
0.000402027
0.000401731
0.000401703
0.000401946
0.000402401
0.000401909
0.000399312
0.000398358
0.000394549
0.00039049
0.000270314
0.000272413
0.00027563
0.000278333
0.00027918
0.000281116
0.000281631
0.000281366
0.000281369
0.000281528
0.000281913
0.000281524
0.000279663
0.000278814
0.000276029
0.000272641
0.000177029
0.000178556
0.000181019
0.000182857
0.000183535
0.000184849
0.000185235
0.00018502
0.000185042
0.000185135
0.000185435
0.000185139
0.00018388
0.0001832
0.000181305
0.00017872
0.000107452
0.00010843
0.000110127
0.000111274
0.000111759
0.000112587
0.000112854
0.000112701
0.000112726
0.000112775
0.000112985
0.000112777
0.000111985
0.000111499
0.000110314
0.000108538
5.96611e-05
6.02095e-05
6.12451e-05
6.18941e-05
6.21995e-05
6.2675e-05
6.28424e-05
6.27466e-05
6.27678e-05
6.27906e-05
6.292e-05
6.27872e-05
6.23328e-05
6.20266e-05
6.13558e-05
6.02731e-05
2.99314e-05
3.02007e-05
3.07528e-05
3.10818e-05
3.12497e-05
3.14947e-05
3.15869e-05
3.15358e-05
3.15494e-05
3.15588e-05
3.16277e-05
3.15535e-05
3.13195e-05
3.11511e-05
3.08108e-05
3.02339e-05
1.33958e-05
1.35118e-05
1.37664e-05
1.39144e-05
1.39941e-05
1.41058e-05
1.41498e-05
1.41267e-05
1.41337e-05
1.41372e-05
1.41685e-05
1.41328e-05
1.40261e-05
1.39461e-05
1.37929e-05
1.3527e-05
5.25485e-06
5.29854e-06
5.39888e-06
5.45715e-06
5.48948e-06
5.53375e-06
5.55165e-06
5.54293e-06
5.54582e-06
5.54712e-06
5.55908e-06
5.54445e-06
5.50216e-06
5.46969e-06
5.40934e-06
5.30451e-06
1.75316e-06
1.76725e-06
1.80028e-06
1.81982e-06
1.83077e-06
1.84561e-06
1.85167e-06
1.84898e-06
1.84994e-06
1.85038e-06
1.85415e-06
1.84917e-06
1.83499e-06
1.82399e-06
1.80375e-06
1.76922e-06
4.7102e-07
4.74708e-07
4.83372e-07
4.88651e-07
4.91607e-07
4.95596e-07
4.97232e-07
4.96584e-07
4.96831e-07
4.96957e-07
4.97894e-07
4.96547e-07
4.9273e-07
4.8976e-07
4.84292e-07
4.75232e-07
9.2171e-08
9.28737e-08
9.45191e-08
9.55557e-08
9.61344e-08
9.69122e-08
9.72315e-08
9.71205e-08
9.71662e-08
9.71929e-08
9.73597e-08
9.70959e-08
9.63511e-08
9.57695e-08
9.4696e-08
9.29744e-08
1.10359e-08
1.11115e-08
1.13025e-08
1.14229e-08
1.14928e-08
1.15831e-08
1.16218e-08
1.16098e-08
1.16156e-08
1.16182e-08
1.16368e-08
1.16045e-08
1.1518e-08
1.14478e-08
1.1323e-08
1.11232e-08
9.98242e-10
9.96524e-10
1.01397e-09
1.01958e-09
1.0268e-09
1.03199e-09
1.03622e-09
1.03437e-09
1.03588e-09
1.03498e-09
1.03733e-09
1.03355e-09
1.02863e-09
1.02137e-09
1.01544e-09
9.97355e-10
6.37315e-10
6.31488e-10
6.43038e-10
6.43671e-10
6.48846e-10
6.50486e-10
6.53606e-10
6.51912e-10
6.53448e-10
6.52217e-10
6.54174e-10
6.51283e-10
6.49784e-10
6.44575e-10
6.43785e-10
6.31902e-10
0.0190643
0.0173109
0.0154962
0.0151399
0.0152056
0.0152111
0.0151816
0.0151433
0.0151359
0.0151464
0.0151872
0.01522
0.0152176
0.015154
0.0155085
0.0173128
0.0186598
0.0170768
0.0155351
0.0152267
0.0152815
0.0152705
0.0152275
0.0151802
0.0151688
0.0151835
0.0152335
0.0152798
0.0152939
0.0152414
0.015548
0.0170801
0.0182383
0.0168269
0.0155465
0.0152856
0.0153328
0.0153077
0.015253
0.0151982
0.0151834
0.0152016
0.0152592
0.0153173
0.0153455
0.0153009
0.0155601
0.0168316
0.0178095
0.0165696
0.0155334
0.0153184
0.0153605
0.0153238
0.0152588
0.0151981
0.0151805
0.0152016
0.0152653
0.0153336
0.0153735
0.015334
0.0155475
0.0165754
0.0173816
0.0163111
0.0154984
0.0153268
0.0153661
0.0153199
0.0152464
0.0151806
0.0151612
0.0151841
0.015253
0.0153299
0.0153792
0.0153428
0.0155131
0.0163182
0.0169613
0.0160557
0.0154441
0.0153136
0.0153515
0.0152975
0.0152168
0.015147
0.0151265
0.0151506
0.0152236
0.0153076
0.0153648
0.0153299
0.0154592
0.0160639
0.0165541
0.0158064
0.0153728
0.0152842
0.0153218
0.0152595
0.0151719
0.0150988
0.0150774
0.0151024
0.0151788
0.0152697
0.0153353
0.0153007
0.0153883
0.0158156
0.016164
0.0155653
0.0152883
0.0152446
0.0152832
0.0152116
0.0151162
0.0150394
0.0150172
0.0150432
0.0151233
0.015222
0.0152969
0.0152614
0.0153042
0.0155755
0.0157936
0.0153339
0.0151958
0.0151971
0.0152377
0.015158
0.0150553
0.0149747
0.0149516
0.0149786
0.0150627
0.0151687
0.0152517
0.0152141
0.0152122
0.0153449
0.0154441
0.0151125
0.0150987
0.0151417
0.015185
0.0150991
0.0149906
0.014907
0.0148833
0.014911
0.0149982
0.0151099
0.015199
0.0151587
0.0151154
0.0151243
0.0151156
0.0149009
0.0149976
0.0150772
0.0151237
0.0150335
0.0149209
0.0148355
0.0148117
0.0148396
0.0149287
0.0150444
0.0151376
0.0150942
0.0150145
0.0149134
0.0148074
0.0146982
0.0148915
0.0150023
0.0150519
0.0149593
0.0148444
0.0147583
0.0147346
0.0147625
0.0148523
0.0149702
0.0150658