/*--------------------------------*- C++ -*----------------------------------*\
| =========                 |                                                 |
| \\      /  F ield         | OpenFOAM: The Open Source CFD Toolbox           |
|  \\    /   O peration     | Version:  v1912                                 |
|   \\  /    A nd           | Website:  www.openfoam.com                      |
|    \\/     M anipulation  |                                                 |
\*---------------------------------------------------------------------------*/
FoamFile
{
    version     2.0;
    format      ascii;
    class       volScalarField;
    location    "198";
    object      omega;
}
// * * * * * * * * * * * * * * * * * * * * * * * * * * * * * * * * * * * * * //

dimensions      [0 0 -1 0 0 0 0];


internalField   nonuniform List<scalar> 
10147
(
20.3676
19.1715
18.5749
18.6941
18.8697
19.031
19.1185
19.1733
19.1855
19.1687
19.1095
19.0195
18.8583
18.6863
18.5706
19.1649
18.9046
19.0531
19.1371
19.186
19.1957
19.1825
19.1299
19.0429
18.8941
18.7218
18.6306
19.0915
19.1295
19.0606
18.9301
18.7686
18.6359
19.1271
19.0772
20.1674
19.1412
18.6617
18.8007
18.9604
19.0918
19.1565
19.1947
19.2045
19.1914
19.1497
19.0829
18.9513
18.7949
18.659
19.1363
20.0624
19.1995
18.8464
19.01
19.1613
19.2606
19.3031
19.3251
19.3325
19.3229
19.2984
19.2542
19.1543
19.0062
18.8457
19.1963
20.0489
19.3477
19.1209
19.3144
19.4599
19.5307
19.5527
19.5592
19.5645
19.5581
19.5499
19.5266
19.4551
19.3124
19.1219
19.3462
20.1236
19.583
19.4823
19.7096
19.8516
19.8973
19.9002
19.8923
19.8957
19.8922
19.8992
19.8951
19.8486
19.7091
19.4848
19.583
20.2926
19.9035
19.9277
20.1912
20.3318
20.3555
20.341
20.3197
20.3216
20.3205
20.3416
20.3551
20.3304
20.192
19.9315
19.9051
20.5523
20.3077
20.4545
20.7553
20.8959
20.9006
20.8703
20.8368
20.8376
20.8385
20.8724
20.9018
20.8959
20.7572
20.4594
20.3107
20.8991
20.7936
21.06
21.398
21.5399
21.5283
21.4838
21.4393
21.4393
21.4416
21.4871
21.5308
21.5409
21.4007
21.0658
20.7979
21.3285
21.3595
21.7416
22.1112
22.2551
22.2322
22.1765
22.1227
22.1224
22.1257
22.1808
22.2357
22.2569
22.1144
21.7483
21.365
21.8375
22.0035
22.4949
22.8836
23.0295
23.0012
22.9389
22.879
22.879
22.8825
22.944
23.0053
23.0316
22.887
22.502
22.0102
22.4243
22.724
23.3114
23.7077
23.8553
23.8243
23.7587
23.6954
23.6961
23.6992
23.7641
23.8288
23.8576
23.7113
23.3187
22.7318
23.0884
23.5197
24.1828
24.581
24.7297
24.697
24.6291
24.5636
24.565
24.5675
24.6348
24.7017
24.7322
24.5846
24.1901
23.5285
23.8341
24.3899
25.1051
25.503
25.6527
25.6182
25.5484
25.481
25.4832
25.4851
25.5544
25.6232
25.6554
25.5067
25.1125
24.3995
24.6617
25.3338
26.0776
26.4747
26.6253
26.5888
26.5171
26.4476
26.4505
26.4518
26.5233
26.594
26.628
26.4785
26.0849
25.3441
25.5703
26.3474
27.101
27.4978
27.6492
27.6104
27.5366
27.4649
27.4686
27.4693
27.5431
27.6158
27.6522
27.5018
27.1084
26.3581
26.5592
27.4242
28.1771
28.5747
28.7271
28.6854
28.6093
28.5352
28.5394
28.5397
28.616
28.6911
28.7302
28.5789
28.1847
27.4353
27.6285
28.5604
29.3086
29.7082
29.8617
29.8166
29.738
29.6611
29.666
29.6658
29.745
29.8226
29.865
29.7126
29.3163
28.5717
28.7771
29.7555
30.4983
30.9012
31.0562
31.0072
30.9258
30.8458
30.8513
30.8507
30.9331
31.0135
31.0597
30.9058
30.5062
29.767
30.0007
31.0111
31.7495
32.1569
32.3138
32.2605
32.1762
32.0928
32.0988
32.0979
32.1838
32.2671
32.3176
32.1618
31.7577
31.023
31.2946
32.3303
33.0657
33.4787
33.6378
33.5797
33.4925
33.4057
33.4122
33.411
33.5004
33.5866
33.6418
33.4838
33.0743
32.3424
32.6572
33.7165
34.4504
34.8693
35.0308
34.968
34.8782
34.7879
34.795
34.7934
34.8865
34.9752
35.035
34.8748
34.4594
33.729
34.0899
35.1739
35.9068
36.3307
36.496
36.4271
36.3355
36.2421
36.2501
36.2478
36.3441
36.4346
36.5005
36.3364
35.9162
35.1867
35.5959
36.7062
37.4368
37.8682
38.0407
37.9634
37.8689
37.7718
37.7805
37.7777
37.8779
37.9712
38.0453
37.8742
37.4465
36.7195
37.1787
38.3168
39.0447
39.4885
39.6691
39.5838
39.4851
39.3835
39.393
39.3897
39.4945
39.592
39.6739
39.4947
39.0547
38.3305
38.8423
40.0077
40.7364
41.1906
41.3776
41.2859
41.185
41.08
41.0907
41.0865
41.1946
41.2944
41.3825
41.1969
40.7469
40.0217
40.5894
41.7789
42.5111
42.9685
43.1593
43.063
42.9625
42.8561
42.8685
42.8627
42.9724
43.0717
43.1643
42.9749
42.5219
41.7931
42.4215
43.6287
44.3627
44.8156
45.0073
44.9077
44.81
44.7038
44.7184
44.7105
44.8201
44.9166
45.0125
44.8221
44.3736
43.6428
44.338
45.5548
46.2855
46.7282
46.9185
46.8163
46.7228
46.6177
46.6348
46.6244
46.7329
46.8254
46.9239
46.7349
46.2964
45.5688
46.3375
47.5574
48.2774
48.7062
48.8932
48.7891
48.7004
48.5969
48.6165
48.6037
48.7107
48.7984
48.8989
48.7131
48.2883
47.5712
48.4195
49.6421
50.3399
50.7521
50.9342
50.8288
50.7455
50.6439
50.6662
50.6508
50.7559
50.8384
50.9402
50.7593
50.3509
49.6558
50.5876
51.8147
52.4767
52.8703
53.0459
52.9404
52.8627
52.7635
52.7882
52.7704
52.8733
52.9503
53.0524
52.878
52.4877
51.8282
52.8493
54.0774
54.6927
55.0666
55.2343
55.1296
55.0578
54.9613
54.9884
54.9682
55.0686
55.1399
55.2413
55.0747
54.7038
54.0907
55.2101
56.4321
56.994
57.3473
57.5058
57.403
57.3375
57.244
57.2734
57.251
57.3485
57.4137
57.5135
57.3558
57.0052
56.4451
57.6728
58.8819
59.3866
59.7191
59.8678
59.7676
59.7088
59.6184
59.6501
59.6255
59.72
59.7789
59.8761
59.7282
59.3979
58.8946
60.2394
61.4307
61.8767
62.1895
62.3286
62.2314
62.1793
62.0918
62.1259
62.099
62.1908
62.2433
62.3377
62.1992
61.8881
61.4432
62.9125
64.0842
64.4708
64.7682
64.8991
64.8047
64.7591
64.6736
64.7101
64.681
64.771
64.8173
64.9092
64.7787
64.4824
64.0965
65.6956
66.8507
67.177
67.4655
67.5896
67.4977
67.4584
67.3743
67.4133
67.382
67.4708
67.511
67.6007
67.4769
67.1888
66.8628
68.5938
69.7398
70.0066
70.289
70.4065
70.3172
70.2846
70.2024
70.2438
70.2103
70.2975
70.3314
70.4187
70.3014
70.0189
69.7518
71.6153
72.7597
72.9697
73.2452
73.3562
73.2698
73.2442
73.1643
73.2081
73.1724
73.2576
73.2849
73.3696
73.2586
72.9824
72.7717
74.7727
75.9182
76.0731
76.3413
76.4461
76.3628
76.3444
76.2672
76.3134
76.2756
76.3583
76.3788
76.4606
76.3557
76.0863
75.9302
78.0782
79.2243
79.3251
79.5857
79.6845
79.6046
79.5937
79.5198
79.5683
79.5284
79.6082
79.6216
79.7004
79.6013
79.3388
79.2364
81.5415
82.6889
82.7357
82.9889
83.082
83.0057
83.0025
82.9324
82.983
82.9413
83.0177
83.0238
83.0992
83.0056
82.75
82.701
85.1736
86.3235
86.3162
86.5625
86.6503
86.5779
86.5826
86.5169
86.5695
86.526
86.5984
86.5971
86.669
86.5806
86.3311
86.3356
88.9884
90.1423
90.0802
90.3206
90.4035
90.3353
90.348
90.2872
90.3416
90.2967
90.3644
90.3557
90.4237
90.3401
90.0959
90.1545
93.0031
94.1628
94.0449
94.2805
94.3588
94.2953
94.3159
94.2609
94.3169
94.2707
94.3331
94.317
94.3808
94.3015
94.0614
94.1751
97.2388
98.4068
98.2315
98.4638
98.538
98.4795
98.508
98.4595
98.5168
98.4697
98.526
98.5026
98.5617
98.4864
98.2488
98.4193
101.722
102.901
102.666
102.897
102.968
102.915
102.951
102.91
102.968
102.921
102.97
102.939
102.993
102.922
102.685
102.914
106.486
107.68
107.382
107.614
107.681
107.634
107.678
107.646
107.705
107.657
107.698
107.661
107.709
107.64
107.402
107.693
111.571
112.784
112.42
112.656
112.72
112.68
112.731
112.708
112.767
112.72
112.752
112.708
112.75
112.684
112.441
112.797
117.027
118.264
117.831
118.073
118.135
118.102
118.161
118.149
118.208
118.161
118.183
118.132
118.168
118.104
117.853
118.278
122.918
124.185
123.678
123.93
123.99
123.965
124.031
124.03
124.089
124.043
124.054
123.997
124.025
123.963
123.701
124.199
129.322
130.625
130.039
130.305
130.364
130.347
130.419
130.433
130.49
130.446
130.444
130.382
130.402
130.341
130.064
130.639
136.336
137.682
137.012
137.296
137.354
137.346
137.424
137.453
137.509
137.467
137.451
137.384
137.395
137.335
137.038
137.696
144.081
145.476
144.716
145.024
145.081
145.084
145.167
145.213
145.266
145.228
145.195
145.124
145.125
145.066
144.744
145.491
152.706
154.157
153.301
153.638
153.695
153.709
153.797
153.862
153.912
153.878
153.827
153.752
153.743
153.684
153.332
154.173
162.398
163.91
162.953
163.326
163.38
163.408
163.5
163.587
163.632
163.604
163.532
163.454
163.432
163.375
162.985
163.926
173.39
174.963
173.901
174.316
174.368
174.412
174.507
174.617
174.657
174.635
174.541
174.461
174.424
174.369
173.935
174.981
185.969
187.604
186.433
186.897
186.947
187.008
187.105
187.241
187.275
187.26
187.142
187.061
187.008
186.954
186.47
187.622
200.492
202.189
200.909
201.429
201.478
201.557
201.656
201.82
201.847
201.84
201.695
201.614
201.542
201.491
200.948
202.208
217.407
219.16
217.774
218.358
218.405
218.506
218.606
218.798
218.817
218.82
218.647
218.566
218.474
218.423
217.816
219.18
237.264
239.06
237.579
238.23
238.275
238.402
238.502
238.725
238.735
238.748
238.546
238.467
238.349
238.3
237.624
239.081
260.744
262.557
260.997
261.717
261.76
261.917
262.018
262.272
262.271
262.296
262.065
261.986
261.839
261.792
261.045
262.579
288.683
290.465
288.853
289.641
289.677
289.874
289.976
290.26
290.248
290.286
290.027
289.948
289.762
289.721
288.904
290.488
322.108
323.788
322.162
323.015
323.035
323.285
323.389
323.7
323.674
323.727
323.443
323.363
323.125
323.099
322.216
323.812
363.1
364.97
363.198
364.122
364.23
364.465
364.581
364.942
364.919
364.97
364.638
364.547
364.323
364.21
363.253
364.995
414.445
416.414
414.603
415.575
415.791
416.011
416.144
416.547
416.53
416.578
416.204
416.096
415.888
415.666
414.661
416.44
478.907
480.883
479.146
480.14
480.479
480.685
480.841
481.277
481.267
481.308
480.903
480.773
480.578
480.233
479.205
480.909
560.508
562.429
560.867
561.864
562.334
562.529
562.711
563.163
563.165
563.196
562.774
562.619
562.434
561.959
560.928
562.457
665.557
667.449
666.137
667.137
667.73
667.914
668.116
668.567
668.583
668.601
668.181
668.003
667.83
667.231
666.198
667.478
804.583
806.618
805.585
806.624
807.314
807.481
807.686
808.112
808.143
808.146
807.75
807.568
807.409
806.715
805.646
806.649
995.84
998.386
997.603
998.766
999.499
999.641
999.813
1000.19
1000.23
1000.22
999.875
999.722
999.585
998.85
997.662
998.42
1271.71
1275.32
1274.7
1276.12
1276.81
1276.93
1277.01
1277.31
1277.36
1277.34
1277.07
1277
1276.89
1276.19
1274.75
1275.36
1691.05
1696.4
1695.81
1697.67
1698.22
1698.32
1698.25
1698.46
1698.49
1698.49
1698.3
1698.38
1698.28
1697.73
1695.86
1696.45
2366.12
2373.92
2373.22
2375.71
2376.03
2376.14
2375.84
2375.95
2375.96
2375.98
2375.88
2376.18
2376.06
2375.76
2373.27
2373.98
3529.41
3540.45
3539.53
3542.87
3542.83
3543.04
3542.44
3542.45
3542.41
3542.48
3542.47
3543.07
3542.85
3542.91
3539.57
3540.52
5724.58
5739.82
5738.61
5743.07
5742.54
5742.98
5741.99
5741.88
5741.79
5741.92
5742.02
5742.99
5742.54
5743.1
5738.67
5739.91
10452.8
10473.7
10472.2
10478.1
10476.9
10477.8
10476.3
10476
10475.9
10476.1
10476.3
10477.8
10476.9
10478.1
10472.3
10473.8
22974.5
23003.5
23001.6
23009.5
23007.3
23009
23006.8
23006.3
23006.1
23006.3
23006.8
23009
23007.2
23009.5
23001.7
23003.6
69995.5
70033.8
70031.5
70041.7
70038.3
70041.2
70038.1
70037.3
70037
70037.4
70038.2
70041.2
70038.3
70041.8
70031.7
70034
439448
439448
439448
439448
439448
439448
439448
439448
439448
439448
439448
439448
439448
439448
439448
439448
20.0129
19.1475
18.754
18.8532
19.0234
19.1598
19.235
19.2766
19.2849
19.2742
19.2296
19.1519
19.0149
18.8475
18.7507
19.1439
20.0396
19.2904
18.9693
19.0792
19.2443
19.3727
19.4391
19.4734
19.4803
19.4719
19.4353
19.3668
19.2376
19.0746
18.9667
19.288
20.1559
19.5209
19.2777
19.4021
19.5653
19.6859
19.7437
19.771
19.7766
19.7704
19.7415
19.682
19.5602
19.3986
19.2758
19.5196
20.3579
19.8358
19.6751
19.8174
19.9813
20.0948
20.1441
20.1645
20.169
20.1648
20.1434
20.0925
19.9777
19.8149
19.6738
19.8357
20.6438
20.233
20.1577
20.321
20.4878
20.5948
20.6359
20.6497
20.6533
20.6508
20.6366
20.5941
20.4856
20.3194
20.1571
20.234
21.0115
20.7105
20.7225
20.9093
21.0808
21.1821
21.2153
21.2227
21.2256
21.2245
21.2172
21.1829
21.0798
20.9086
20.7225
20.7126
21.4594
21.267
21.3668
21.5783
21.7547
21.8503
21.8759
21.8775
21.8798
21.8798
21.8788
21.8522
21.7546
21.5783
21.3673
21.27
21.9856
21.9007
22.0854
22.3184
22.497
22.5861
22.605
22.6018
22.6039
22.6045
22.6086
22.5887
22.4975
22.3188
22.0863
21.9047
22.5887
22.6085
22.8687
23.1162
23.2945
23.3773
23.3906
23.3836
23.3856
23.3866
23.3947
23.3804
23.2954
23.1169
22.8699
22.6134
23.2679
23.3853
23.7079
23.9645
24.1417
24.2189
24.2276
24.2176
24.2196
24.2208
24.232
24.2223
24.1428
23.9654
23.7092
23.3908
24.0221
24.2269
24.599
24.8614
25.0374
25.1095
25.1143
25.102
25.1041
25.1054
25.1191
25.1133
25.0387
24.8624
24.6004
24.233
24.8502
25.1311
25.541
25.8071
25.982
26.0496
26.0512
26.0368
26.0392
26.0404
26.0562
26.0536
25.9834
25.8082
25.5424
25.1377
25.7508
26.0974
26.5347
26.8031
26.9771
27.0406
27.0394
27.0233
27.026
27.0271
27.0447
27.0449
26.9787
26.8043
26.5362
26.1044
26.7232
27.1258
27.5819
27.8518
28.0251
28.0848
28.081
28.0635
28.0664
28.0674
28.0866
28.0893
28.0269
27.8531
27.5835
27.1331
27.7672
28.2171
28.6852
28.956
29.129
29.1849
29.179
29.16
29.1634
29.1641
29.1849
29.1897
29.131
28.9574
28.6868
28.2246
28.8829
29.3726
29.8475
30.1193
30.2924
30.3445
30.3365
30.3162
30.3199
30.3205
30.3427
30.3496
30.2945
30.1208
29.8492
29.3803
30.0709
30.594
31.0722
31.3452
31.5189
31.5672
31.5572
31.5355
31.5396
31.5399
31.5637
31.5726
31.5212
31.3469
31.074
30.6018
31.3312
31.8827
32.3626
32.6376
32.8125
32.8567
32.8445
32.8213
32.8258
32.826
32.8513
32.8623
32.8149
32.6394
32.3645
31.8907
32.6633
33.2398
33.7214
33.9996
34.1764
34.2161
34.2016
34.1767
34.1814
34.1815
34.2087
34.222
34.179
34.0016
33.7235
33.248
34.0668
34.6658
35.1504
35.4335
35.6129
35.6473
35.6303
35.6032
35.6083
35.6082
35.6377
35.6535
35.6157
35.4357
35.1528
34.6741
35.541
36.16
36.6499
36.9396
37.1223
37.1506
37.1305
37.101
37.1063
37.1061
37.1382
37.157
37.1253
36.9421
36.6526
36.1686
37.086
37.7223
38.2191
38.5165
38.7029
38.7242
38.7008
38.6685
38.6742
38.6738
38.7087
38.7309
38.706
38.5192
38.2222
37.7309
38.7024
39.3526
39.8569
40.1618
40.3515
40.3656
40.3389
40.304
40.31
40.3094
40.347
40.3725
40.3549
40.1647
39.8604
39.3614
40.3912
41.0517
41.5629
41.8734
42.0656
42.0727
42.0433
42.0061
42.0126
42.0116
42.0516
42.0799
42.0692
41.8766
41.5668
41.0606
42.1537
42.8206
43.3373
43.6505
43.844
43.8449
43.8135
43.7746
43.7817
43.7802
43.822
43.8523
43.8478
43.654
43.3415
42.8295
43.9911
44.6606
45.1799
45.4927
45.6862
45.6817
45.6491
45.6091
45.617
45.6147
45.6578
45.6894
45.6903
45.4966
45.1845
44.6695
45.9049
46.5731
47.0909
47.4004
47.5925
47.5836
47.5504
47.5098
47.5185
47.5155
47.5593
47.5915
47.597
47.4047
47.0958
46.5819
47.8966
48.5601
49.0709
49.3746
49.5643
49.5519
49.5185
49.4778
49.4875
49.4836
49.5276
49.5601
49.5691
49.3793
49.0762
48.5688
49.9684
50.6241
51.1216
51.4177
51.6038
51.5889
51.5558
51.5155
51.526
51.5214
51.5651
51.5975
51.6092
51.4228
51.1272
50.6327
52.123
52.7683
53.2456
53.5327
53.7147
53.6983
53.6657
53.6264
53.6378
53.6323
53.6752
53.7072
53.7206
53.5384
53.2515
52.7767
54.3638
54.996
55.4463
55.724
55.9014
55.8843
55.8529
55.8155
55.8278
55.8215
55.8626
55.8937
55.9079
55.7302
55.4525
55.0042
56.6946
57.3111
57.7281
57.9966
58.1692
58.1524
58.1233
58.0885
58.1018
58.0945
58.1333
58.1623
58.1764
58.0035
57.7346
57.3192
59.1197
59.7184
60.0963
60.3569
60.5245
60.5094
60.4837
60.4519
60.4661
60.458
60.4939
60.5199
60.5325
60.3645
60.1032
59.7263
61.644
62.2233
62.5575
62.8123
62.9751
62.963
62.9412
62.9129
62.928
62.9191
62.9517
62.974
62.9839
62.8206
62.5647
62.231
64.2733
64.8325
65.119
65.3708
65.5291
65.5212
65.504
65.4795
65.4954
65.4858
65.5149
65.5328
65.5389
65.3799
65.1266
64.84
67.0147
67.5535
67.7891
68.0412
68.1955
68.1929
68.1809
68.1605
68.1771
68.1668
68.1922
68.2053
68.2063
68.0513
67.7971
67.5609
69.8764
70.3952
70.5777
70.8329
70.9839
70.9877
70.9814
70.9654
70.9826
70.9719
70.9931
71.0009
70.9957
70.844
70.5862
70.4025
72.8684
73.3676
73.4967
73.7572
73.9057
73.9165
73.9159
73.9047
73.9225
73.9114
73.9281
73.9305
73.9187
73.7693
73.5057
73.3748
76.0023
76.482
76.5596
76.8274
76.9745
76.9926
76.9976
76.9916
77.0096
76.9984
77.0102
77.0075
76.9887
76.8407
76.5693
76.4891
79.2923
79.7537
79.7844
80.0612
80.208
80.2333
80.2433
80.2429
80.2609
80.2499
80.2564
80.2491
80.2234
80.0757
79.7949
79.7609
82.756
83.2026
83.1922
83.4794
83.6272
83.6593
83.6736
83.6793
83.6968
83.6864
83.6872
83.676
83.644
83.4952
83.2035
83.2098
86.416
86.8518
86.8072
87.1062
87.2564
87.2947
87.3125
87.3247
87.3414
87.3319
87.3267
87.3125
87.2745
87.1232
86.8193
86.8593
90.3009
90.7306
90.6594
90.9715
91.1258
91.1695
91.1898
91.2089
91.2245
91.2163
91.2046
91.1883
91.1453
90.9899
90.6726
90.7384
94.4466
94.8755
94.7863
95.1125
95.2727
95.321
95.3424
95.3691
95.3831
95.3766
95.3578
95.3408
95.2936
95.1324
94.8007
94.8838
98.8977
99.3316
99.2338
99.575
99.7432
99.7947
99.8162
99.851
99.8629
99.8587
99.8321
99.8156
99.7654
99.5963
99.2493
99.3405
103.709
104.154
104.058
104.415
104.593
104.647
104.667
104.71
104.72
104.718
104.683
104.669
104.617
104.437
104.074
104.163
108.949
109.41
109.326
109.7
109.891
109.945
109.962
110.016
110.021
110.023
109.979
109.968
109.916
109.724
109.344
109.42
114.698
115.18
115.122
115.512
115.719
115.772
115.784
115.849
115.851
115.857
115.802
115.796
115.745
115.537
115.141
115.192
121.056
121.565
121.545
121.952
122.179
122.228
122.234
122.311
122.308
122.319
122.252
122.253
122.206
121.979
121.566
121.578
128.144
128.684
128.716
129.14
129.391
129.434
129.432
129.522
129.514
129.53
129.45
129.459
129.419
129.168
128.739
128.697
136.108
136.681
136.783
137.223
137.501
137.536
137.524
137.629
137.615
137.637
137.543
137.562
137.53
137.252
136.806
136.696
145.122
145.732
145.92
146.375
146.686
146.71
146.686
146.808
146.786
146.815
146.705
146.736
146.715
146.404
145.945
145.748
155.399
156.045
156.34
156.808
157.158
157.167
157.13
157.27
157.24
157.276
157.148
157.192
157.187
156.838
156.366
156.063
167.19
167.872
168.294
168.773
169.17
169.159
169.107
169.266
169.228
169.272
169.125
169.183
169.198
168.803
168.321
167.891
180.79
181.507
182.086
182.583
183.033
182.997
182.926
183.108
183.059
183.112
182.943
183.021
183.06
182.613
182.114
181.527
196.568
197.334
198.105
198.625
199.136
199.071
198.976
199.182
199.121
199.185
198.992
199.092
199.162
198.655
198.135
197.356
214.958
215.778
216.768
217.292
217.877
217.776
217.665
217.893
217.823
217.895
217.679
217.796
217.901
217.321
216.799
215.803
236.368
237.215
238.438
238.946
239.615
239.477
239.357
239.604
239.528
239.605
239.37
239.495
239.638
238.975
238.47
237.241
261.18
262.019
263.485
263.957
264.721
264.544
264.426
264.688
264.611
264.688
264.438
264.561
264.744
263.987
263.519
262.048
289.798
290.597
292.309
292.729
293.598
293.382
293.278
293.549
293.476
293.549
293.29
293.4
293.621
292.761
292.345
290.628
322.683
323.415
325.369
325.725
326.708
326.456
326.377
326.652
326.589
326.653
326.391
326.476
326.734
325.76
325.409
323.449
360.408
361.056
363.238
363.52
364.627
364.341
364.302
364.575
364.528
364.578
364.319
364.365
364.658
363.561
363.283
361.093
403.758
404.32
406.704
406.906
408.149
407.831
407.844
408.111
408.086
408.116
407.865
407.86
408.187
406.953
406.754
404.361
453.165
453.29
456.004
456.109
457.391
457.12
457.191
457.423
457.41
457.431
457.218
457.158
457.44
456.166
456.063
453.336
509.539
509.271
512.187
512.209
513.516
513.3
513.436
513.636
513.639
513.648
513.47
513.348
513.576
512.276
512.253
509.32
575.679
575.044
578.026
577.978
579.287
579.135
579.339
579.513
579.535
579.53
579.38
579.192
579.358
578.055
578.098
575.095
656.01
655.037
657.96
657.863
659.156
659.067
659.332
659.488
659.526
659.509
659.378
659.132
659.235
657.946
658.035
655.088
757.819
756.559
759.312
759.184
760.436
760.404
760.715
760.869
760.917
760.892
760.765
760.472
760.518
759.268
759.385
756.606
893.549
892.049
894.479
894.337
895.513
895.523
895.856
896.031
896.081
896.053
895.904
895.587
895.587
894.412
894.542
892.088
1084.25
1082.57
1084.5
1084.36
1085.42
1085.45
1085.78
1086.01
1086.04
1086.02
1085.82
1085.5
1085.48
1084.42
1084.54
1082.6
1365.64
1363.84
1365.11
1365
1365.91
1365.94
1366.21
1366.53
1366.54
1366.54
1366.24
1365.96
1365.93
1365.02
1365.12
1363.85
1800.09
1798.25
1798.74
1798.68
1799.42
1799.43
1799.63
1800.08
1800.04
1800.08
1799.64
1799.42
1799.41
1798.66
1798.71
1798.24
2504.14
2502.31
2501.91
2501.94
2502.53
2502.49
2502.61
2503.21
2503.13
2503.2
2502.59
2502.45
2502.46
2501.87
2501.84
2502.26
3717.99
3716.18
3714.84
3714.98
3715.45
3715.36
3715.4
3716.18
3716.04
3716.16
3715.35
3715.28
3715.33
3714.86
3714.72
3716.11
6004.35
6002.53
6000.11
6000.42
6000.82
6000.68
6000.61
6001.64
6001.43
6001.6
6000.53
6000.54
6000.65
6000.24
5999.93
6002.42
10923.3
10921.4
10917.6
10918.2
10918.6
10918.4
10918.2
10919.5
10919.3
10919.5
10918.1
10918.2
10918.3
10917.9
10917.3
10921.2
23978.9
23976.7
23971
23972
23972.6
23972.3
23972
23973.8
23973.4
23973.7
23971.8
23972
23972.3
23971.7
23970.7
23976.5
73474.3
73471.5
73463.9
73465.4
73466.2
73465.7
73465.2
73467.6
73467.2
73467.5
73465
73465.4
73465.7
73464.9
73463.4
73471.3
439448
439448
439448
439448
439448
439448
439448
439448
439448
439448
439448
439448
439448
439448
439448
439448
20.0498
19.1716
18.7984
18.9656
19.1206
19.2145
19.2519
19.2812
19.2899
19.2788
19.2479
19.2088
19.1151
18.9635
18.799
19.1681
20.042
19.3021
19.0521
19.2563
19.4038
19.4636
19.4732
19.485
19.4914
19.4837
19.471
19.46
19.4003
19.2559
19.0548
19.3
20.1289
19.5248
19.3941
19.6387
19.7815
19.8103
19.7941
19.7889
19.7934
19.7886
19.7937
19.8087
19.7798
19.6399
19.3987
19.524
20.3069
19.8347
19.8214
20.1084
20.2491
20.2499
20.2102
20.1889
20.1912
20.1895
20.2113
20.2501
20.2488
20.1109
19.8275
19.8354
20.573
20.228
20.3307
20.6613
20.8019
20.7778
20.7167
20.6808
20.6806
20.6823
20.7193
20.7797
20.8031
20.6649
20.3383
20.2301
20.9249
20.7026
20.9194
21.2924
21.4352
21.3895
21.3094
21.2603
21.2577
21.2626
21.3134
21.3929
21.4375
21.2969
20.9281
20.7059
21.3607
21.2561
21.5846
21.9917
22.1384
22.0781
21.9834
21.923
21.9184
21.926
21.9884
22.0826
22.1413
21.9966
21.5943
21.2606
21.8789
21.8864
22.3207
22.7469
22.8979
22.831
22.7279
22.6598
22.6542
22.6634
22.7337
22.836
22.9012
22.752
22.3311
21.8919
22.4778
22.5906
23.1182
23.552
23.7075
23.6369
23.5295
23.4572
23.4513
23.4611
23.5357
23.6424
23.711
23.5574
23.1289
22.5969
23.156
23.3661
23.9694
24.4055
24.5652
24.4921
24.3817
24.3065
24.3007
24.3106
24.3883
24.4979
24.5689
24.411
23.9803
23.3732
23.912
24.2104
24.8716
25.3076
25.4713
25.396
25.283
25.2052
25.1995
25.2095
25.2899
25.402
25.4752
25.3132
24.8826
24.218
24.7445
25.1212
25.8246
26.2596
26.4274
26.3497
26.2341
26.1537
26.1481
26.1582
26.2413
26.356
26.4314
26.2654
25.8357
25.1292
25.652
26.0967
26.8297
27.2639
27.4356
27.3554
27.2369
27.1538
27.1482
27.1585
27.2444
27.362
27.4398
27.2698
26.8411
26.1048
26.6331
27.1337
27.8893
28.323
28.4988
28.4158
28.2942
28.2082
28.2025
28.213
28.3019
28.4227
28.5033
28.3292
27.9009
27.1418
27.6867
28.2315
29.0064
29.4401
29.6201
29.5341
29.409
29.32
29.3142
29.325
29.4171
29.5413
29.6248
29.4465
29.0182
28.2397
28.8117
29.3915
30.1839
30.6182
30.8025
30.7135
30.5848
30.4926
30.4867
30.4978
30.5932
30.7209
30.8074
30.6248
30.196
29.3998
30.0072
30.6152
31.425
31.8596
32.0482
31.9565
31.8246
31.7293
31.7233
31.7348
31.8332
31.9642
32.0533
31.8663
31.4373
30.6237
31.2722
31.9048
32.7315
33.1653
33.3582
33.2644
33.13
33.0323
33.0264
33.0379
33.139
33.2725
33.3634
33.1722
32.744
31.9134
32.6059
33.2617
34.1039
34.5345
34.7311
34.6367
34.501
34.4018
34.3963
34.4076
34.5102
34.6449
34.7364
34.5414
34.1164
33.2705
34.0078
34.6866
35.5406
35.9646
36.1641
36.0706
35.9355
35.836
35.8311
35.8419
35.9449
36.079
36.1695
35.9713
35.553
34.6956
35.4774
36.1789
37.0387
37.4527
37.6544
37.5632
37.4299
37.3314
37.3275
37.3374
37.4395
37.5717
37.6598
37.4593
37.0509
36.1881
37.0145
37.7371
38.5958
38.9981
39.2012
39.1131
38.9824
38.8856
38.8828
38.8917
38.9922
39.1217
39.2067
39.0045
38.6077
37.7465
38.6195
39.36
40.2121
40.6011
40.805
40.7207
40.5933
40.4989
40.4971
40.505
40.6032
40.7295
40.8106
40.6074
40.2237
39.3697
40.2929
41.047
41.8883
42.2625
42.4665
42.3869
42.2635
42.1721
42.1713
42.1782
42.2734
42.3958
42.4721
42.2687
41.8994
41.057
42.0357
42.7981
43.6254
43.9836
44.187
44.1128
43.9941
43.9066
43.9069
43.9128
44.0042
44.1218
44.1927
43.9898
43.6362
42.8084
43.8496
44.6156
45.4251
45.7667
45.9688
45.9002
45.7871
45.7046
45.7058
45.7107
45.7972
45.9093
45.9747
45.7729
45.4355
44.6261
45.7365
46.5021
47.2897
47.6147
47.815
47.7515
47.6449
47.5685
47.5707
47.5747
47.6551
47.7609
47.8211
47.621
47.2997
46.5127
47.699
48.4608
49.2224
49.5313
49.7292
49.6703
49.5711
49.5022
49.5051
49.5083
49.5814
49.6798
49.7355
49.5377
49.2319
48.4714
49.7403
50.4955
51.2273
51.5207
51.7157
51.6609
51.57
51.51
51.5137
51.5162
51.5803
51.6707
51.7223
51.5273
51.2364
50.5061
51.8645
52.6106
53.3096
53.5882
53.7798
53.7289
53.647
53.5941
53.5986
53.6002
53.6573
53.7388
53.7868
53.5951
53.3185
52.6211
54.0763
54.8114
55.4753
55.7399
55.9276
55.8806
55.807
55.7604
55.7657
55.7665
55.8174
55.8908
55.935
55.7471
55.484
54.8219
56.3816
57.1042
57.7316
57.9827
58.1661
58.123
58.0567
58.0159
58.022
58.022
58.0672
58.1335
58.1739
57.9903
57.74
57.1145
58.7874
59.4962
60.0864
60.3243
60.5033
60.4636
60.404
60.3686
60.3756
60.3747
60.4147
60.4745
60.5117
60.3324
60.0949
59.5065
61.3018
61.996
62.5482
62.7733
62.9478
62.9112
62.8579
62.8277
62.8356
62.8339
62.8687
62.9224
62.9568
62.7819
62.5569
62.0062
63.9345
64.6137
65.1273
65.3399
65.5099
65.476
65.4289
65.4038
65.4126
65.41
65.4399
65.4877
65.5195
65.349
65.1361
64.6238
66.6968
67.361
67.837
68.0359
68.2014
68.1699
68.129
68.1089
68.1187
68.1151
68.1402
68.1821
68.2117
68.0457
67.8463
67.3711
69.6024
70.2516
70.7011
70.8753
71.0375
71.0065
70.9719
70.9566
70.9676
70.9629
70.9834
71.0192
71.0484
70.8858
70.7112
70.2617
72.6699
73.3032
73.7432
73.8833
74.045
74.0057
73.9735
73.9629
73.9752
73.9692
73.9852
74.0189
74.0564
73.8944
73.754
73.3133
75.9196
76.5367
76.9915
77.0974
77.2588
77.2041
77.1673
77.1617
77.1743
77.168
77.1793
77.2175
77.2705
77.1089
77.0027
76.5468
79.3715
79.9865
80.4779
80.5496
80.7111
80.6435
80.602
80.6011
80.6132
80.6073
80.6139
80.657
80.7231
80.5614
80.4893
79.9973
83.0683
83.7171
84.2367
84.2743
84.4367
84.3585
84.3137
84.3199
84.3311
84.3259
84.3256
84.372
84.4488
84.2863
84.2481
83.7283
87.0924
87.7685
88.3089
88.3123
88.4768
88.39
88.3434
88.3591
88.3688
88.3649
88.3551
88.4035
88.4889
88.3244
88.3202
87.7799
91.5023
92.188
92.743
92.7119
92.8798
92.7864
92.7393
92.7669
92.7746
92.7724
92.7507
92.7996
92.8916
92.7238
92.7539
92.1994
96.354
97.0313
97.5958
97.5297
97.7025
97.6043
97.5579
97.5998
97.605
97.6049
97.5689
97.6171
97.714
97.5411
97.6059
97.0424
101.713
102.363
102.933
102.832
103.011
102.91
102.865
102.924
102.926
102.928
102.875
102.922
103.022
102.842
102.943
102.374
107.655
108.26
108.833
108.694
108.884
108.78
108.738
108.816
108.814
108.82
108.747
108.791
108.893
108.704
108.841
108.27
114.268
114.811
115.384
115.208
115.409
115.303
115.265
115.365
115.359
115.368
115.274
115.313
115.418
115.217
115.391
114.819
121.656
122.118
122.692
122.476
122.692
122.585
122.552
122.675
122.665
122.677
122.559
122.594
122.699
122.484
122.696
122.125
129.939
130.301
130.876
130.621
130.855
130.746
130.717
130.867
130.852
130.868
130.723
130.753
130.86
130.626
130.879
130.307
139.262
139.503
140.076
139.779
140.034
139.924
139.901
140.079
140.059
140.079
139.905
139.928
140.037
139.782
140.076
139.507
149.81
149.909
150.47
150.126
150.405
150.292
150.277
150.489
150.462
150.487
150.278
150.293
150.404
150.127
150.467
149.909
161.775
161.713
162.261
161.867
162.171
162.055
162.051
162.3
162.267
162.296
162.049
162.052
162.167
161.864
162.255
161.711
175.312
175.077
175.625
175.183
175.519
175.399
175.407
175.691
175.652
175.685
175.402
175.392
175.511
175.177
175.615
175.073
190.574
190.154
190.713
190.229
190.602
190.477
190.498
190.815
190.772
190.808
190.491
190.468
190.591
190.22
190.701
190.148
207.707
207.095
207.673
207.151
207.566
207.437
207.474
207.82
207.773
207.811
207.464
207.425
207.553
207.14
207.658
207.087
226.853
226.042
226.638
226.084
226.543
226.412
226.469
226.84
226.792
226.829
226.458
226.398
226.528
226.072
226.622
226.032
248.131
247.115
247.723
247.14
247.642
247.514
247.597
247.987
247.942
247.977
247.585
247.5
247.628
247.129
247.706
247.104
271.649
270.426
271.028
270.424
270.965
270.846
270.961
271.366
271.326
271.356
270.951
270.834
270.953
270.414
271.012
270.415
297.515
296.087
296.661
296.043
296.616
296.515
296.67
297.083
297.052
297.074
296.662
296.507
296.609
296.037
296.647
296.075
325.86
324.236
324.756
324.137
324.734
324.661
324.862
325.276
325.258
325.27
324.858
324.659
324.734
324.138
324.745
324.224
356.887
355.086
355.527
354.924
355.533
355.499
355.751
356.161
356.157
356.158
355.754
355.506
355.544
354.933
355.522
355.076
390.938
388.998
389.339
388.774
389.383
389.399
389.704
390.103
390.116
390.105
389.715
389.418
389.406
388.793
389.342
388.989
428.649
426.594
426.831
426.328
426.927
427.002
427.356
427.738
427.769
427.746
427.376
427.033
426.964
426.36
426.842
426.589
471.125
468.998
469.129
468.706
469.283
469.423
469.822
470.185
470.232
470.198
469.852
469.468
469.335
468.751
469.15
468.996
520.22
518.104
518.159
517.837
518.386
518.59
519.019
519.362
519.422
519.381
519.059
518.649
518.454
517.895
518.191
518.106
579.034
577.057
577.117
576.918
577.444
577.696
578.13
578.452
578.519
578.476
578.178
577.766
577.523
576.986
577.158
577.064
652.525
650.849
650.912
650.849
651.358
651.636
652.042
652.339
652.406
652.368
652.096
651.712
651.444
650.924
650.958
650.862
748.425
747.268
747.485
747.577
748.088
748.351
748.687
748.957
749.014
748.986
748.741
748.427
748.173
747.654
747.534
747.287
879.816
879.468
880.067
880.327
880.876
881.061
881.267
881.508
881.541
881.534
881.316
881.127
880.95
880.398
880.116
879.494
1068.43
1069.22
1070.48
1070.91
1071.55
1071.58
1071.59
1071.79
1071.79
1071.81
1071.62
1071.62
1071.6
1070.97
1070.52
1069.25
1350.43
1352.67
1354.87
1355.48
1356.26
1356.06
1355.81
1355.98
1355.92
1355.99
1355.82
1356.07