/*--------------------------------*- C++ -*----------------------------------*\
| =========                 |                                                 |
| \\      /  F ield         | OpenFOAM: The Open Source CFD Toolbox           |
|  \\    /   O peration     | Version:  v1912                                 |
|   \\  /    A nd           | Website:  www.openfoam.com                      |
|    \\/     M anipulation  |                                                 |
\*---------------------------------------------------------------------------*/
FoamFile
{
    version     2.0;
    format      ascii;
    class       volVectorField;
    location    "199.2";
    object      UMean;
}
// * * * * * * * * * * * * * * * * * * * * * * * * * * * * * * * * * * * * * //

dimensions      [0 1 -1 0 0 0 0];


internalField   nonuniform List<vector> 
10147
(
(7.78558e-07 5.05637e-07 0.00668218)
(-0.000215137 1.02305e-07 0.0075985)
(-8.30911e-05 -2.53876e-07 0.00826811)
(-3.00246e-05 -7.47573e-08 0.00808818)
(-1.61446e-05 -2.42849e-08 0.00799782)
(-7.34158e-06 3.4183e-09 0.00799484)
(-1.60649e-06 1.89157e-08 0.00796924)
(4.46066e-07 2.71434e-08 0.00795815)
(1.8483e-06 3.10673e-08 0.00794832)
(2.92642e-06 3.03086e-08 0.00795172)
(4.10733e-06 2.35449e-08 0.00795949)
(8.78014e-06 9.85497e-09 0.00798307)
(1.53117e-05 -1.81056e-08 0.00798559)
(2.95621e-05 -8.43883e-08 0.00807912)
(8.28129e-05 -2.38693e-07 0.00826339)
(0.000214326 9.37696e-08 0.00759781)
(2.16194e-06 6.60646e-06 0.0192765)
(-0.000621879 1.35898e-06 0.0218806)
(-0.000237061 -2.55821e-06 0.0238188)
(-8.78066e-05 -6.50483e-07 0.0233062)
(-4.67068e-05 4.58898e-08 0.0230443)
(-2.10907e-05 4.27478e-07 0.0230321)
(-4.57962e-06 6.00096e-07 0.0229575)
(1.36652e-06 7.11816e-07 0.0229245)
(5.28994e-06 7.24209e-07 0.0228964)
(8.24585e-06 7.20778e-07 0.0229064)
(1.16742e-05 6.14524e-07 0.0229303)
(2.51807e-05 4.57537e-07 0.0229994)
(4.47715e-05 7.26837e-08 0.0230108)
(8.63797e-05 -6.91022e-07 0.0232808)
(0.000236308 -2.52956e-06 0.0238059)
(0.000619988 1.29909e-06 0.0218789)
(3.42104e-06 1.85143e-05 0.0312552)
(-0.00100837 3.73499e-06 0.0354162)
(-0.000380483 -7.25084e-06 0.038559)
(-0.000143753 -1.87647e-06 0.0377397)
(-7.59025e-05 8.04314e-08 0.0373145)
(-3.41001e-05 1.18402e-06 0.03729)
(-7.43255e-06 1.66778e-06 0.0371683)
(2.23279e-06 1.99393e-06 0.0371135)
(8.46311e-06 2.04807e-06 0.0370683)
(1.31045e-05 2.03991e-06 0.0370846)
(1.87515e-05 1.73249e-06 0.0371252)
(4.06869e-05 1.29289e-06 0.0372386)
(7.33691e-05 1.54477e-07 0.0372624)
(0.000141339 -1.95827e-06 0.0376995)
(0.00037936 -7.15969e-06 0.0385391)
(0.0010059 3.5889e-06 0.0354136)
(4.49536e-06 3.65531e-05 0.0426557)
(-0.00137334 7.27112e-06 0.0482369)
(-0.000513746 -1.4181e-05 0.0525142)
(-0.000197683 -3.64536e-06 0.0514155)
(-0.000103818 1.69094e-07 0.0508361)
(-4.64043e-05 2.3724e-06 0.0507965)
(-1.01769e-05 3.3219e-06 0.0506295)
(3.06576e-06 3.97008e-06 0.0505531)
(1.14527e-05 4.06948e-06 0.050492)
(1.76436e-05 4.0547e-06 0.0505145)
(2.54924e-05 3.43992e-06 0.0505722)
(5.54183e-05 2.5708e-06 0.0507285)
(0.000101063 3.04963e-07 0.0507679)
(0.000194348 -3.77874e-06 0.0513621)
(0.00051229 -1.40447e-05 0.0524883)
(0.00137046 7.00083e-06 0.0482338)
(5.35449e-06 6.02781e-05 0.0535108)
(-0.00171521 1.17707e-05 0.0603754)
(-0.000636962 -2.33914e-05 0.0657123)
(-0.000249382 -6.03856e-06 0.0643611)
(-0.00013036 1.73402e-07 0.063637)
(-5.79572e-05 3.84476e-06 0.0635799)
(-1.27697e-05 5.40918e-06 0.0633696)
(3.89455e-06 6.48632e-06 0.0632719)
(1.42964e-05 6.65498e-06 0.063196)
(2.19027e-05 6.63064e-06 0.0632244)
(3.19054e-05 5.60743e-06 0.0632995)
(6.93498e-05 4.16905e-06 0.0634972)
(0.0001277 3.92126e-07 0.063555)
(0.000245246 -6.22488e-06 0.0642959)
(0.000635179 -2.31962e-05 0.0656811)
(0.00171191 1.13489e-05 0.060372)
(5.99907e-06 8.9476e-05 0.0638469)
(-0.00203245 1.71564e-05 0.0718686)
(-0.000750172 -3.47699e-05 0.0781894)
(-0.00029866 -9.02452e-06 0.076609)
(-0.000155363 7.19904e-08 0.0757498)
(-6.86936e-05 5.56918e-06 0.0756732)
(-1.51664e-05 7.89273e-06 0.0754216)
(4.72296e-06 9.49916e-06 0.075303)
(1.69812e-05 9.7523e-06 0.0752133)
(2.58539e-05 9.71581e-06 0.0752475)
(3.79266e-05 8.18678e-06 0.07534)
(8.24047e-05 6.04106e-06 0.0755775)
(0.000153107 3.92952e-07 0.0756558)
(0.000293863 -9.26283e-06 0.0765333)
(0.000748083 -3.4512e-05 0.0781537)
(0.00202872 1.6559e-05 0.071865)
(6.4375e-06 0.000123915 0.0736861)
(-0.00232372 2.33393e-05 0.082758)
(-0.000853575 -4.82839e-05 0.0899896)
(-0.000345365 -1.2629e-05 0.0881964)
(-0.000178684 -1.98782e-07 0.0872117)
(-7.85623e-05 7.47356e-06 0.0871142)
(-1.73245e-05 1.06966e-05 0.0868231)
(5.55645e-06 1.29296e-05 0.0866843)
(1.9498e-05 1.32849e-05 0.0865818)
(2.94756e-05 1.32334e-05 0.0866214)
(4.35003e-05 1.11045e-05 0.0867312)
(9.45226e-05 8.11588e-06 0.0870069)
(0.00017713 2.43548e-07 0.087107)
(0.000340072 -1.29156e-05 0.0881111)
(0.000851212 -4.79575e-05 0.08995)
(0.0023196 2.25467e-05 0.0827545)
(6.68758e-06 0.000163383 0.083044)
(-0.0025878 3.02634e-05 0.0930788)
(-0.000947388 -6.38772e-05 0.101149)
(-0.000389342 -1.68713e-05 0.0991493)
(-0.000200198 -6.91104e-07 0.0980497)
(-8.75195e-05 9.49413e-06 0.0979303)
(-1.92053e-05 1.37524e-05 0.0976019)
(6.40112e-06 1.67044e-05 0.0974436)
(2.18399e-05 1.71791e-05 0.0973292)
(3.27515e-05 1.71094e-05 0.0973739)
(4.85778e-05 1.42907e-05 0.0975005)
(0.000105652 1.03267e-05 0.0978125)
(0.000199624 -1.08651e-07 0.0979351)
(0.00038374 -1.72003e-05 0.0990552)
(0.000944799 -6.34759e-05 0.101105)
(0.00258329 2.926e-05 0.0930754)
(6.7744e-06 0.000207643 0.0919246)
(-0.00282327 3.78778e-05 0.102844)
(-0.00103173 -8.14711e-05 0.111677)
(-0.000430387 -2.17798e-05 0.109468)
(-0.000219773 -1.46494e-06 0.108267)
(-9.55233e-05 1.15519e-05 0.108125)
(-2.07747e-05 1.69743e-05 0.107761)
(7.26143e-06 2.07317e-05 0.107584)
(2.4e-05 2.13427e-05 0.107459)
(3.56678e-05 2.12516e-05 0.107509)
(5.3116e-05 1.76586e-05 0.107651)
(0.000115743 1.25919e-05 0.107997)
(0.000220429 -7.24658e-07 0.108143)
(0.000424678 -2.21434e-05 0.109366)
(0.00102897 -8.09885e-05 0.111631)
(0.0028184 3.66519e-05 0.102841)
(6.72605e-06 0.000256397 0.10032)
(-0.00302869 4.61244e-05 0.112047)
(-0.00110666 -0.000100965 0.121565)
(-0.000468272 -2.73943e-05 0.119135)
(-0.000237295 -2.59198e-06 0.117846)
(-0.000102542 1.35473e-05 0.11768)
(-2.20094e-05 2.02532e-05 0.117285)
(8.13844e-06 2.48941e-05 0.117091)
(2.59719e-05 2.56582e-05 0.116956)
(3.82167e-05 2.55419e-05 0.117009)
(5.70827e-05 2.10981e-05 0.117166)
(0.000124753 1.48094e-05 0.117544)
(0.000239393 -1.6779e-06 0.117713)
(0.000462664 -2.77838e-05 0.119025)
(0.0011038 -0.000100396 0.121515)
(0.0030235 4.46672e-05 0.112045)
(6.56996e-06 0.00030927 0.108218)
(-0.00320307 5.49306e-05 0.120674)
(-0.00117232 -0.000122249 0.1308)
(-0.000502828 -3.37717e-05 0.128134)
(-0.000252706 -4.1591e-06 0.126773)
(-0.000108572 1.53615e-05 0.12658)
(-2.29016e-05 2.34597e-05 0.126155)
(9.02987e-06 2.90534e-05 0.125945)
(2.77531e-05 2.99868e-05 0.125801)
(4.04009e-05 2.98416e-05 0.125858)
(6.04668e-05 2.44785e-05 0.12603)
(0.000132668 1.68574e-05 0.126435)
(0.000256415 -3.05719e-06 0.126631)
(0.000497525 -3.41774e-05 0.128016)
(0.00116944 -0.000121587 0.130747)
(0.00319761 5.32366e-05 0.120671)
(6.33074e-06 0.000365818 0.11561)
(-0.00334626 6.42117e-05 0.128717)
(-0.00122904 -0.000145184 0.139382)
(-0.000533992 -4.09773e-05 0.136465)
(-0.000266025 -6.25953e-06 0.135044)
(-0.000113644 1.68686e-05 0.134823)
(-2.34609e-05 2.64571e-05 0.13437)
(9.93113e-06 3.30634e-05 0.134144)
(2.93468e-05 3.41817e-05 0.133994)
(4.22365e-05 3.40037e-05 0.134053)
(6.32822e-05 2.76618e-05 0.134238)
(0.000139515 1.86075e-05 0.134671)
(0.000271466 -4.95803e-06 0.134894)
(0.000529184 -4.13894e-05 0.136339)
(0.00122621 -0.000144426 0.139326)
(0.00334054 6.22781e-05 0.128715)
(6.02916e-06 0.000425539 0.1225)
(-0.00345896 7.38758e-05 0.136188)
(-0.00127738 -0.000169624 0.147343)
(-0.000561817 -4.90694e-05 0.144148)
(-0.000277346 -8.98342e-06 0.142681)
(-0.000117819 1.79467e-05 0.142426)
(-2.37111e-05 2.91142e-05 0.141948)
(1.08366e-05 3.67852e-05 0.141707)
(3.07621e-05 3.81034e-05 0.141549)
(4.37506e-05 3.78884e-05 0.141611)
(6.55649e-05 3.05155e-05 0.14181)
(0.000145353 1.99356e-05 0.142267)
(0.000284593 -7.47234e-06 0.142522)
(0.000557672 -4.9477e-05 0.144015)
(0.00127468 -0.000168765 0.147284)
(0.00345304 7.17025e-05 0.136187)
(5.68199e-06 0.000487866 0.128905)
(-0.00354263 8.37989e-05 0.143111)
(-0.00131807 -0.000195477 0.15474)
(-0.000586484 -5.81023e-05 0.151233)
(-0.000286821 -1.2409e-05 0.149724)
(-0.00012118 1.84875e-05 0.149426)
(-2.36851e-05 3.13116e-05 0.148922)
(1.17409e-05 4.00911e-05 0.148665)
(3.20122e-05 4.16235e-05 0.148502)
(4.49773e-05 4.1367e-05 0.148565)
(6.73657e-05 3.29192e-05 0.148778)
(0.000150268 2.07313e-05 0.14926)
(0.00029591 -1.06804e-05 0.149557)
(0.000583143 -5.84943e-05 0.151093)
(0.00131557 -0.000194515 0.154678)
(0.00353652 8.1388e-05 0.14311)
(5.30076e-06 0.000552228 0.134849)
(-0.00359924 9.38597e-05 0.149531)
(-0.00135174 -0.000222615 0.161623)
(-0.000608233 -6.81366e-05 0.157783)
(-0.000294635 -1.66159e-05 0.156234)
(-0.000123823 1.83926e-05 0.155882)
(-2.34201e-05 3.29456e-05 0.15535)
(1.26396e-05 4.28733e-05 0.155075)
(3.31139e-05 4.46335e-05 0.154906)
(4.59535e-05 4.43311e-05 0.154971)
(6.87431e-05 3.47674e-05 0.155201)
(0.000154362 2.08942e-05 0.155711)
(0.000305571 -1.46646e-05 0.156059)
(0.000605811 -6.85023e-05 0.157635)
(0.0013495 -0.000221547 0.161557)
(0.00359297 9.12173e-05 0.149531)
(4.89541e-06 0.000618018 0.140365)
(-0.00363089 0.000103949 0.1555)
(-0.00137884 -0.000250871 0.16802)
(-0.000627262 -7.92625e-05 0.163844)
(-0.000300962 -2.17242e-05 0.162262)
(-0.000125839 1.75212e-05 0.161848)
(-2.29545e-05 3.3871e-05 0.161286)
(1.35272e-05 4.4985e-05 0.160991)
(3.4084e-05 4.69864e-05 0.160817)
(4.67165e-05 4.66336e-05 0.160884)
(6.97569e-05 3.59152e-05 0.161131)
(0.000157734 2.02832e-05 0.16167)
(0.000313725 -1.95448e-05 0.162078)
(0.000625843 -7.95909e-05 0.163688)
(0.00137693 -0.000249693 0.16795)
(0.00362449 0.000101083 0.1555)
(4.47692e-06 0.000684656 0.145486)
(-0.00363956 0.00011394 0.161052)
(-0.00139985 -0.000280143 0.173961)
(-0.000643731 -9.15493e-05 0.169451)
(-0.000305953 -2.78343e-05 0.167842)
(-0.000127307 1.57467e-05 0.167357)
(-2.23275e-05 3.39531e-05 0.166764)
(1.43962e-05 4.62875e-05 0.166448)
(3.4936e-05 4.85429e-05 0.166269)
(4.73007e-05 4.81355e-05 0.166337)
(7.04647e-05 3.62271e-05 0.166604)
(0.000160469 1.87707e-05 0.167173)
(0.000320505 -2.54225e-05 0.167649)
(0.000643373 -9.18291e-05 0.169287)
(0.00139832 -0.00027885 0.173887)
(0.00363305 0.00011086 0.161054)
(4.05506e-06 0.000751599 0.150247)
(-0.00362725 0.000123726 0.166216)
(-0.0014152 -0.000310333 0.179476)
(-0.000657802 -0.000105096 0.174638)
(-0.000309758 -3.50696e-05 0.173005)
(-0.000128306 1.29248e-05 0.172441)
(-2.15778e-05 3.30428e-05 0.171817)
(1.52386e-05 4.66288e-05 0.171477)
(3.56821e-05 4.91505e-05 0.171294)
(4.77372e-05 4.86843e-05 0.171364)
(7.09205e-05 3.5554e-05 0.171652)
(0.000162649 1.62126e-05 0.172252)
(0.00032604 -3.24212e-05 0.172803)
(0.000658536 -0.000105315 0.174466)
(0.00141411 -0.000308921 0.179397)
(0.00362066 0.000120447 0.166219)
(3.63772e-06 0.000818353 0.154683)
(-0.00359602 0.000133221 0.171019)
(-0.00142532 -0.000341355 0.184593)
(-0.000669637 -0.000119972 0.179437)
(-0.000312524 -4.35204e-05 0.177784)
(-0.00012891 8.94879e-06 0.177132)
(-2.07419e-05 3.10291e-05 0.176475)
(1.60474e-05 4.58947e-05 0.176113)
(3.63342e-05 4.8695e-05 0.175925)
(4.80558e-05 4.81658e-05 0.175996)
(7.11764e-05 3.37848e-05 0.176306)
(0.000164353 1.25018e-05 0.176937)
(0.000330462 -4.06312e-05 0.177573)
(0.000671477 -0.000120119 0.179257)
(0.0014247 -0.000339817 0.184509)
(0.00358938 0.000129758 0.171024)
(3.23137e-06 0.000884469 0.158823)
(-0.00354796 0.000142347 0.175487)
(-0.00143062 -0.000373103 0.189342)
(-0.000679399 -0.00013621 0.18388)
(-0.000314386 -5.32386e-05 0.182208)
(-0.000129186 3.75788e-06 0.181464)
(-1.98522e-05 2.78432e-05 0.180777)
(1.6818e-05 4.40098e-05 0.180394)
(3.6904e-05 4.70999e-05 0.180203)
(4.82828e-05 4.65038e-05 0.180275)
(7.12807e-05 3.08504e-05 0.180604)
(0.000165655 7.57683e-06 0.181264)
(0.000333898 -5.01049e-05 0.18199)
(0.00068234 -0.000136273 0.183693)
(0.0014305 -0.000371434 0.189252)
(0.00354128 0.000138717 0.175494)
(2.84117e-06 0.000949547 0.162699)
(-0.0034851 0.000151037 0.179646)
(-0.00143147 -0.000405456 0.19375)
(-0.000687249 -0.000153805 0.187999)
(-0.000315472 -6.42369e-05 0.186312)
(-0.000129192 -2.69303e-06 0.185482)
(-1.89327e-05 2.34317e-05 0.184771)
(1.75484e-05 4.09167e-05 0.18437)
(3.7402e-05 4.43077e-05 0.184176)
(4.84391e-05 4.36402e-05 0.184249)
(7.12708e-05 2.66966e-05 0.184594)
(0.00016662 1.3928e-06 0.185279)
(0.000336468 -6.08573e-05 0.186087)
(0.000691274 -0.000153773 0.187806)
(0.00143187 -0.000403649 0.193654)
(0.00347841 0.000147259 0.179655)
(2.47117e-06 0.00101322 0.166337)
(-0.00340943 0.000159235 0.183522)
(-0.00142823 -0.000438284 0.197843)
(-0.000693346 -0.000172719 0.19183)
(-0.000315892 -7.65165e-05 0.190133)
(-0.000128973 -1.04427e-05 0.189232)
(-1.80035e-05 1.7753e-05 0.188499)
(1.82369e-05 3.65715e-05 0.188079)
(3.78369e-05 4.02741e-05 0.187883)
(4.8542e-05 3.95306e-05 0.187956)
(7.1178e-05 2.12812e-05 0.188318)
(0.000167301 -6.08918e-06 0.189024)
(0.000338279 -7.28878e-05 0.189902)
(0.000698425 -0.000172582 0.191631)
(0.00142917 -0.000436333 0.197742)
(0.00340274 0.00015533 0.183533)
(2.12451e-06 0.00107516 0.16976)
(-0.00332275 0.000166894 0.187143)
(-0.00142126 -0.000471449 0.201647)
(-0.000697833 -0.000192954 0.195417)
(-0.000315736 -9.00913e-05 0.193714)
(-0.00012857 -1.95097e-05 0.192746)
(-1.70838e-05 1.07822e-05 0.19199)
(1.88812e-05 3.09431e-05 0.191552)
(3.82165e-05 3.49676e-05 0.191354)
(4.86073e-05 3.41432e-05 0.191427)
(7.10313e-05 1.45792e-05 0.191806)
(0.00016774 -1.48881e-05 0.192534)
(0.000339423 -8.62106e-05 0.193476)
(0.000703926 -0.000192699 0.195212)
(0.00142272 -0.000469347 0.201541)
(0.00331609 0.000162883 0.187155)
(1.80354e-06 0.00113505 0.172992)
(-0.00322648 0.000173995 0.190544)
(-0.00141085 -0.000504763 0.205187)
(-0.000700818 -0.000214495 0.198796)
(-0.000315079 -0.000104953 0.197088)
(-0.000128017 -2.99068e-05 0.19605)
(-1.61903e-05 2.49849e-06 0.195272)
(1.94798e-05 2.40064e-05 0.194815)
(3.85477e-05 2.83628e-05 0.194614)
(4.8649e-05 2.74522e-05 0.194688)
(7.08563e-05 6.56921e-06 0.195085)
(0.000167978 -2.50164e-05 0.195835)
(0.000339975 -0.000100819 0.196843)
(0.000707877 -0.000214112 0.198585)
(0.00141285 -0.000502508 0.205078)
(0.00321988 0.000169899 0.190556)
(1.51038e-06 0.00119261 0.176053)
(-0.00312189 0.000180518 0.193754)
(-0.00139729 -0.000538086 0.208499)
(-0.000702392 -0.000237283 0.201989)
(-0.000313988 -0.000121077 0.200276)
(-0.000127346 -4.16437e-05 0.199169)
(-1.53372e-05 -7.11341e-06 0.198367)
(2.00314e-05 1.57421e-05 0.197891)
(3.88369e-05 2.04401e-05 0.197688)
(4.86791e-05 1.9438e-05 0.197762)
(7.0675e-05 -2.76433e-06 0.198178)
(0.00016805 -3.64838e-05 0.198949)
(0.000340003 -0.00011669 0.200025)
(0.000710361 -0.000236763 0.201772)
(0.0013998 -0.00053567 0.208384)
(0.00311537 0.000176357 0.193766)
(1.24682e-06 0.00124758 0.178962)
(-0.00301028 0.000186438 0.196792)
(-0.00138076 -0.000571344 0.211619)
(-0.000702642 -0.000261277 0.205018)
(-0.000312522 -0.000138447 0.2033)
(-0.000126583 -5.47267e-05 0.202122)
(-1.45363e-05 -1.80653e-05 0.201297)
(2.05351e-05 6.13509e-06 0.200801)
(3.90897e-05 1.11841e-05 0.200596)
(4.87081e-05 1.00845e-05 0.20067)
(7.05065e-05 -1.34336e-05 0.201105)
(0.000167987 -4.92967e-05 0.201899)
(0.000339569 -0.000133803 0.203043)
(0.000711459 -0.000260607 0.204795)
(0.00138378 -0.000568762 0.211499)
(0.00300388 0.000182234 0.196805)
(1.0142e-06 0.00129973 0.181735)
(-0.00289287 0.000191745 0.199676)
(-0.00136144 -0.000604395 0.214572)
(-0.000701653 -0.000286419 0.207901)
(-0.000310731 -0.000157032 0.206178)
(-0.000125751 -6.91541e-05 0.204929)
(-1.37975e-05 -3.0364e-05 0.20408)
(2.09903e-05 -4.82606e-06 0.203564)
(3.93113e-05 5.83081e-07 0.203357)
(4.87451e-05 -6.20159e-07 0.203432)
(7.03667e-05 -2.54453e-05 0.203885)
(0.000167814 -6.3451e-05 0.204702)
(0.000338724 -0.000152128 0.205914)
(0.00071125 -0.000285588 0.207672)
(0.00136496 -0.000601646 0.214448)
(0.00288662 0.00018752 0.199688)
(8.13523e-07 0.00134887 0.184388)
(-0.00277079 0.00019644 0.20242)
(-0.00133951 -0.000637084 0.217375)
(-0.000699505 -0.000312635 0.210653)
(-0.00030866 -0.000176787 0.208926)
(-0.00012487 -8.49009e-05 0.207606)
(-1.31283e-05 -4.39938e-05 0.206734)
(2.13971e-05 -1.71379e-05 0.206197)
(3.95064e-05 -1.13594e-05 0.205988)
(4.87978e-05 -1.26726e-05 0.206064)
(7.02692e-05 -3.87835e-05 0.206536)
(0.000167556 -7.8922e-05 0.207375)
(0.000337515 -0.000171617 0.208656)
(0.000709808 -0.000311632 0.210419)
(0.00134351 -0.000634166 0.217245)
(0.00276472 0.000192213 0.202432)
(6.45475e-07 0.00139484 0.186933)
(-0.00264508 0.000200528 0.205039)
(-0.00131514 -0.000669303 0.220041)
(-0.00069627 -0.000339831 0.21329)
(-0.000306346 -0.000197644 0.211558)
(-0.000123956 -0.000101922 0.210168)
(-1.25349e-05 -5.8919e-05 0.209272)
(2.17558e-05 -3.07712e-05 0.208715)
(3.96793e-05 -2.46149e-05 0.208504)
(4.88729e-05 -2.60444e-05 0.20858)
(7.02254e-05 -5.34131e-05 0.209072)
(0.000167233 -9.56637e-05 0.209933)
(0.000335982 -0.000192205 0.211282)
(0.000707202 -0.000338647 0.21305)
(0.0013196 -0.000666215 0.219906)
(0.00263922 0.000196319 0.20505)
(5.10345e-07 0.00143751 0.189383)
(-0.00251671 0.000204022 0.207545)
(-0.00128849 -0.000700943 0.222583)
(-0.000692014 -0.000367902 0.215824)
(-0.000303823 -0.000219521 0.214089)
(-0.000123024 -0.000120144 0.212628)
(-1.20222e-05 -7.50732e-05 0.21171)
(2.20669e-05 -4.56715e-05 0.211132)
(3.9834e-05 -3.91289e-05 0.210919)
(4.89761e-05 -4.06813e-05 0.210996)
(7.02444e-05 -6.92683e-05 0.211506)
(0.000166862 -0.000113603 0.21239)
(0.00033416 -0.00021381 0.213806)
(0.000703497 -0.000366528 0.215579)
(0.0012934 -0.000697685 0.222443)
(0.00251109 0.00019985 0.207556)
(4.08061e-07 0.00147678 0.191749)
(-0.00238657 0.000206945 0.209949)
(-0.00125974 -0.000731887 0.225013)
(-0.000686801 -0.000396727 0.218266)
(-0.000301116 -0.000242318 0.216528)
(-0.000122087 -0.000139472 0.214999)
(-1.15936e-05 -9.23668e-05 0.214057)
(2.23309e-05 -6.17528e-05 0.21346)
(3.99738e-05 -5.48167e-05 0.213245)
(4.91118e-05 -5.64986e-05 0.213322)
(7.03334e-05 -8.62609e-05 0.213851)
(0.000166457 -0.000132649 0.214757)
(0.000332079 -0.000236335 0.21624)
(0.000698753 -0.000395157 0.218016)
(0.00126505 -0.000728464 0.224868)
(0.0023812 0.000202826 0.209959)
(3.38147e-07 0.00151256 0.194041)
(-0.00225545 0.000209326 0.212261)
(-0.00122903 -0.000762022 0.227339)
(-0.000680689 -0.000426175 0.220626)
(-0.000298249 -0.000265927 0.218886)
(-0.000121153 -0.000159799 0.217291)
(-1.1251e-05 -0.000110694 0.216327)
(2.25487e-05 -7.8911e-05 0.21571)
(4.01017e-05 -7.15752e-05 0.215492)
(4.92837e-05 -7.33933e-05 0.21557)
(7.04974e-05 -0.000104287 0.216118)
(0.000166031 -0.000152695 0.217045)
(0.000329764 -0.000259673 0.218592)
(0.00069303 -0.000424404 0.220371)
(0.00123473 -0.000758437 0.227189)
(0.00225038 0.000205275 0.21227)
(2.99707e-07 0.0015448 0.196266)
(-0.00212412 0.000211201 0.214491)
(-0.00119652 -0.000791232 0.229571)
(-0.000673729 -0.000456101 0.222913)
(-0.00029524 -0.000290227 0.221172)
(-0.00012023 -0.000181005 0.219514)
(-1.0995e-05 -0.000129938 0.218527)
(2.27211e-05 -9.70279e-05 0.217891)
(4.02203e-05 -8.92874e-05 0.217671)
(4.94944e-05 -9.12488e-05 0.21775)
(7.07397e-05 -0.00012323 0.218316)
(0.000165593 -0.000173621 0.219264)
(0.000327237 -0.000283705 0.220872)
(0.000686379 -0.000454128 0.222653)
(0.00120256 -0.000787493 0.229416)
(0.00211937 0.000207231 0.214498)
(2.91409e-07 0.00157346 0.198433)
(-0.00199324 0.000212614 0.216645)
(-0.00116237 -0.000819405 0.231717)
(-0.000665972 -0.000486353 0.225135)
(-0.000292104 -0.000315087 0.223394)
(-0.000119323 -0.000202959 0.221675)
(-1.08253e-05 -0.000149967 0.220667)
(2.28491e-05 -0.000115973 0.220012)
(4.03317e-05 -0.000107824 0.21979)
(4.97456e-05 -0.000109935 0.21987)
(7.10616e-05 -0.00014296 0.220453)
(0.00016515 -0.000195296 0.221421)
(0.000324517 -0.0003083 0.223088)
(0.000678853 -0.000484177 0.22487)
(0.00116872 -0.00081552 0.231557)
(0.00198884 0.000208737 0.21665)
(3.11457e-07 0.00159854 0.200549)
(-0.00186343 0.000213615 0.218732)
(-0.00112672 -0.000846435 0.233783)
(-0.000657463 -0.000516768 0.227299)
(-0.000288851 -0.000340367 0.225559)
(-0.000118439 -0.000225516 0.223781)
(-1.07407e-05 -0.00017064 0.222753)
(2.29333e-05 -0.000135606 0.22208)
(4.04374e-05 -0.000127043 0.221856)
(5.00382e-05 -0.000129312 0.221936)
(7.14629e-05 -0.000163335 0.222536)
(0.000164707 -0.000217575 0.223524)
(0.000321616 -0.000333317 0.225247)
(0.000670498 -0.00051439 0.227028)
(0.00113334 -0.000842414 0.233619)
(0.0018594 0.000209839 0.218735)
(3.57594e-07 0.00162005 0.202619)
(-0.00173524 0.000214261 0.220757)
(-0.00108972 -0.000872217 0.235776)
(-0.000648243 -0.000547178 0.229409)
(-0.00028549 -0.000365919 0.227672)
(-0.000117578 -0.000248525 0.22584)
(-1.07394e-05 -0.000191806 0.224793)
(2.29743e-05 -0.000155772 0.224102)
(4.05388e-05 -0.000146793 0.223876)
(5.03721e-05 -0.000149226 0.223957)
(7.19416e-05 -0.000184204 0.224573)
(0.000164267 -0.000240307 0.225579)
(0.000318547 -0.000358609 0.227355)
(0.00066136 -0.000544598 0.229134)
(0.00109657 -0.000868073 0.235606)
(0.0017316 0.000210593 0.220758)
(4.27119e-07 0.00163802 0.204649)
(-0.00160916 0.000214614 0.222726)
(-0.00105152 -0.000896659 0.237699)
(-0.000638349 -0.000577407 0.231471)
(-0.000282027 -0.000391589 0.229738)
(-0.000116743 -0.000271826 0.227857)
(-1.08194e-05 -0.000213305 0.22679)
(2.29721e-05 -0.000176312 0.226084)
(4.06371e-05 -0.000166915 0.225855)
(5.07467e-05 -0.000169518 0.225937)
(7.24947e-05 -0.000205407 0.226568)
(0.000163833 -0.000263329 0.227592)
(0.000315319 -0.000384019 0.229416)
(0.000651479 -0.000574626 0.231191)
(0.00105855 -0.000892404 0.237525)
(0.00160592 0.00021106 0.222725)
(5.16913e-07 0.00165252 0.206644)
(-0.00148563 0.000214746 0.224645)
(-0.00101226 -0.000919673 0.239559)
(-0.000627813 -0.000607277 0.233489)
(-0.000278464 -0.000417217 0.231762)
(-0.000115935 -0.000295251 0.229835)
(-1.09775e-05 -0.00023497 0.228751)
(2.29272e-05 -0.000197057 0.228029)
(4.07333e-05 -0.000187239 0.227798)
(5.11607e-05 -0.000190017 0.227881)
(7.31178e-05 -0.000226777 0.228527)
(0.000163402 -0.000286474 0.229566)
(0.000311938 -0.000409387 0.231435)
(0.000640894 -0.000604295 0.233205)
(0.00101943 -0.000915322 0.23938)
(0.0014828 0.000211308 0.224641)
(6.23527e-07 0.00166361 0.208608)
(-0.00136501 0.000214732 0.226516)
(-0.000972074 -0.000941184 0.241357)
(-0.000616665 -0.000636611 0.235466)
(-0.000274803 -0.000442643 0.233747)
(-0.00011515 -0.000318629 0.231778)
(-1.12089e-05 -0.000256628 0.230679)
(2.28411e-05 -0.000217831 0.229942)
(4.08284e-05 -0.000207591 0.22971)
(5.16128e-05 -0.000210551 0.229793)
(7.38057e-05 -0.000248141 0.230452)
(0.000162974 -0.000309569 0.231506)
(0.000308407 -0.000434548 0.233415)
(0.00062964 -0.000633427 0.235178)
(0.000979344 -0.000936751 0.241175)
(0.00136262 0.000211411 0.226509)
(7.43236e-07 0.00167141 0.210545)
(-0.00124764 0.000214649 0.228344)
(-0.000931101 -0.000961128 0.243099)
(-0.000604929 -0.000665232 0.237404)
(-0.000271039 -0.000467702 0.235695)
(-0.000114386 -0.000341786 0.23369)
(-1.15074e-05 -0.000278104 0.232577)
(2.27158e-05 -0.000238457 0.231827)
(4.09229e-05 -0.000227793 0.231592)
(5.21009e-05 -0.000230939 0.231677)
(7.4552e-05 -0.000269323 0.232347)
(0.000162545 -0.000332438 0.233415)
(0.000304728 -0.000459337 0.235359)
(0.000617747 -0.000661843 0.237112)
(0.000938428 -0.000956629 0.242912)
(0.00124568 0.000211444 0.228334)
(8.72085e-07 0.00167601 0.212458)
(-0.0011338 0.000214563 0.230131)
(-0.00088947 -0.000979455 0.244786)
(-0.000592625 -0.000692972 0.239306)
(-0.000267166 -0.000492236 0.237609)
(-0.000113634 -0.000364546 0.235573)
(-1.18656e-05 -0.000299221 0.234446)
(2.25544e-05 -0.000258752 0.233685)
(4.10165e-05 -0.000247665 0.233448)
(5.26228e-05 -0.000251001 0.233534)
(7.53498e-05 -0.000290146 0.234215)
(0.000162109 -0.000354906 0.235294)
(0.0003009 -0.000483592 0.237268)
(0.000605241 -0.000689374 0.239009)
(0.000896813 -0.000974905 0.244595)
(0.00113227 0.00021147 0.230118)
(1.00596e-06 0.00167757 0.214349)
(-0.00102371 0.000214516 0.23188)
(-0.000847304 -0.00099613 0.24642)
(-0.000579764 -0.00071967 0.241171)
(-0.000263174 -0.000516089 0.239488)
(-0.000112888 -0.000386736 0.237427)
(-1.22753e-05 -0.000319801 0.23629)
(2.23599e-05 -0.000278536 0.235518)
(4.11088e-05 -0.000267025 0.23528)
(5.31753e-05 -0.000270555 0.235366)
(7.61911e-05 -0.000310432 0.236056)
(0.00016166 -0.000376797 0.237146)
(0.000296918 -0.000507153 0.239144)
(0.000592143 -0.000715858 0.240871)
(0.000854622 -0.000991543 0.246226)
(0.00102261 0.00021153 0.231863)
(1.14066e-06 0.00167622 0.216221)
(-0.00091757 0.000214519 0.233593)
(-0.00080472 -0.00101113 0.248005)
(-0.000566355 -0.000745179 0.243001)
(-0.000259052 -0.000539109 0.241335)
(-0.000112137 -0.000408182 0.239255)
(-1.27274e-05 -0.000339667 0.238108)
(2.21358e-05 -0.000297624 0.237327)
(4.1199e-05 -0.000285691 0.237087)
(5.37544e-05 -0.000289417 0.237175)
(7.7067e-05 -0.000330002 0.237873)
(0.000161187 -0.000397938 0.238971)
(0.000292776 -0.00052987 0.240988)
(0.000578468 -0.000741145 0.242698)
(0.000811974 -0.00100652 0.247807)
(0.000916885 0.000211632 0.233572)
(1.2719e-06 0.00167213 0.218075)
(-0.00081554 0.000214553 0.23527)
(-0.000761823 -0.00102446 0.24954)
(-0.000552398 -0.000769358 0.244796)
(-0.000254785 -0.000561151 0.243149)
(-0.000111369 -0.00042871 0.241055)
(-1.32123e-05 -0.000358643 0.239901)
(2.18858e-05 -0.000315834 0.239113)
(4.12868e-05 -0.00030348 0.238872)
(5.43547e-05 -0.000307403 0.23896)
(7.7967e-05 -0.00034868 0.239665)
(0.000160678 -0.000418151 0.240769)
(0.000288463 -0.000551594 0.242799)
(0.000564223 -0.000765096 0.24449)
(0.000768979 -0.00101984 0.249339)
(0.000815257 0.000211758 0.235245)
(1.39532e-06 0.00166549 0.219914)
(-0.000717749 0.00021459 0.236913)
(-0.000718712 -0.00103612 0.251028)
(-0.00053789 -0.000792072 0.246556)
(-0.000250353 -0.00058207 0.244931)
(-0.000110572 -0.000448154 0.242828)
(-1.37194e-05 -0.000376561 0.241669)
(2.16139e-05 -0.000332995 0.240875)
(4.1372e-05 -0.000320223 0.240633)
(5.49706e-05 -0.000324344 0.240722)
(7.88786e-05 -0.000366297 0.241431)
(0.000160121 -0.000437272 0.242539)
(0.000283967 -0.000572181 0.244578)
(0.000549414 -0.000787576 0.246247)
(0.000725736 -0.0010315 0.250824)
(0.000717846 0.000211877 0.236885)
(1.50633e-06 0.00165648 0.221736)
(-0.000624293 0.0002146 0.238524)
(-0.00067547 -0.00104612 0.25247)
(-0.000522819 -0.000813186 0.248279)
(-0.000245737 -0.00060173 0.246678)
(-0.000109728 -0.000466385 0.244572)
(-1.42376e-05 -0.000393301 0.24341)
(2.13245e-05 -0.000348989 0.242613)
(4.14549e-05 -0.000335803 0.24237)
(5.55968e-05 -0.000340122 0.242459)
(7.97889e-05 -0.000382734 0.243172)
(0.000159501 -0.000455171 0.244282)
(0.00027927 -0.000591498 0.246323)
(0.000534036 -0.000808452 0.247969)
(0.000682332 -0.00104152 0.252264)
(0.000624744 0.000211959 0.238492)
(1.59966e-06 0.00164533 0.223545)
(-0.000535241 0.000214568 0.240103)
(-0.000632175 -0.0010545 0.253867)
(-0.000507172 -0.000832584 0.249965)
(-0.000240916 -0.00062004 0.24839)
(-0.000108822 -0.000483343 0.246287)
(-1.47553e-05 -0.000408806 0.245125)
(2.10221e-05 -0.00036376 0.244326)
(4.1536e-05 -0.000350161 0.244082)
(5.62284e-05 -0.000354679 0.244172)
(8.06862e-05 -0.000397934 0.244886)
(0.000158803 -0.000471789 0.245996)
(0.000274357 -0.000609453 0.248034)
(0.000518083 -0.00082761 0.249653)
(0.000638848 -0.00104993 0.253658)
(0.000536013 0.000211987 0.240067)
(1.66934e-06 0.00163225 0.225346)
(-0.000450626 0.000214483 0.241651)
(-0.00058889 -0.00106128 0.255221)
(-0.000490926 -0.000850212 0.251612)
(-0.00023587 -0.000636969 0.250065)
(-0.000107837 -0.000499023 0.247971)
(-1.52607e-05 -0.000423078 0.24681)
(2.07119e-05 -0.000377309 0.246012)
(4.16156e-05 -0.000363301 0.245768)
(5.68605e-05 -0.000368018 0.245858)
(8.15592e-05 -0.000411897 0.246572)
(0.00015801 -0.000487118 0.247679)
(0.000269213 -0.000626018 0.249708)
(0.000501543 -0.000844997 0.251298)
(0.000595353 -0.00105674 0.255009)
(0.000451684 0.000211953 0.241611)
(1.70985e-06 0.00161746 0.227146)
(-0.000370452 0.000214339 0.243168)
(-0.000545676 -0.00106647 0.25653)
(-0.00047406 -0.000866061 0.253218)
(-0.000230583 -0.000652549 0.2517)
(-0.000106759 -0.000513485 0.249622)
(-1.57429e-05 -0.000436175 0.248466)
(2.03989e-05 -0.000389693 0.24767)
(4.16937e-05 -0.000375275 0.247427)
(5.74884e-05 -0.000380194 0.247517)
(8.23973e-05 -0.00042468 0.248228)
(0.000157111 -0.000501219 0.24933)
(0.000263826 -0.000641221 0.251343)
(0.000484404 -0.000860601 0.252901)
(0.000551913 -0.00106198 0.256317)
(0.00037176 0.00021185 0.243124)
(1.71739e-06 0.00160116 0.228954)
(-0.000294695 0.000214128 0.244654)
(-0.00050259 -0.00107011 0.257797)
(-0.000456557 -0.000880199 0.25478)
(-0.000225037 -0.000666877 0.253294)
(-0.000105574 -0.000526823 0.251239)
(-1.61924e-05 -0.000448184 0.250091)
(2.00865e-05 -0.000400991 0.249299)
(4.17701e-05 -0.000386163 0.249056)
(5.81076e-05 -0.000391285 0.249147)
(8.31902e-05 -0.000436366 0.249853)
(0.000156094 -0.00051418 0.250947)
(0.000258186 -0.000655157 0.252938)
(0.000466657 -0.000874488 0.254462)
(0.000508591 -0.00106566 0.257581)
(0.000296216 0.000211671 0.244605)
(1.69028e-06 0.00158356 0.230772)
(-0.000223306 0.000213835 0.246109)
(-0.000459687 -0.00107219 0.259021)
(-0.000438411 -0.000892744 0.256296)
(-0.000219221 -0.00068009 0.254847)
(-0.00010427 -0.000539154 0.25282)
(-1.66e-05 -0.000459216 0.251683)
(1.9778e-05 -0.000411307 0.250897)
(4.18446e-05 -0.000396065 0.250655)
(5.87137e-05 -0.000401391 0.250746)
(8.39281e-05 -0.000447063 0.251446)
(0.000154946 -0.000526114 0.25253)
(0.000252282 -0.000667959 0.254491)
(0.000448299 -0.000886771 0.255978)
(0.000465446 -0.00106781 0.258803)
(0.000225 0.000211402 0.246056)
(1.62847e-06 0.00156485 0.232604)
(-0.000156206 0.000213442 0.247532)
(-0.00041702 -0.00107275 0.260202)