/*--------------------------------*- C++ -*----------------------------------*\
| =========                 |                                                 |
| \\      /  F ield         | OpenFOAM: The Open Source CFD Toolbox           |
|  \\    /   O peration     | Version:  v1912                                 |
|   \\  /    A nd           | Website:  www.openfoam.com                      |
|    \\/     M anipulation  |                                                 |
\*---------------------------------------------------------------------------*/
FoamFile
{
    version     2.0;
    format      ascii;
    class       volSymmTensorField;
    location    "199.2";
    object      UPrime2Mean;
}
// * * * * * * * * * * * * * * * * * * * * * * * * * * * * * * * * * * * * * //

dimensions      [0 2 -2 0 0 0 0];


internalField   nonuniform List<symmTensor> 
10147
(
(2.70167e-09 -4.14502e-11 -2.28595e-10 9.37234e-12 -3.04405e-10 2.0248e-07)
(1.03701e-08 -3.54562e-11 8.45893e-09 1.24642e-11 -3.2193e-11 1.98223e-08)
(1.47502e-09 5.66211e-11 -1.25243e-09 1.34167e-11 -1.14234e-10 1.21106e-08)
(2.56119e-09 1.02182e-10 1.48268e-10 5.00016e-12 -9.52994e-12 6.37672e-09)
(9.02127e-10 1.68537e-11 -3.07905e-10 4.69509e-13 -2.62153e-12 3.92879e-09)
(1.10865e-10 8.7347e-13 8.23713e-11 7.20882e-14 -9.89736e-13 3.64091e-09)
(1.03341e-10 1.15987e-12 7.9537e-11 7.71204e-14 -7.85193e-13 2.49905e-09)
(1.69245e-10 9.02663e-13 8.86212e-11 6.28131e-14 -8.04145e-13 1.94205e-09)
(2.85219e-10 1.53868e-12 -6.04478e-11 6.72665e-14 -3.69531e-13 2.02504e-09)
(2.42059e-10 1.53673e-12 -1.17836e-10 7.07947e-14 -4.80218e-13 2.27808e-09)
(2.57984e-10 1.63195e-12 -1.19571e-10 7.67484e-14 -5.37309e-13 2.64729e-09)
(2.44057e-10 8.16767e-13 3.94756e-12 6.97021e-14 -6.7316e-13 2.87796e-09)
(2.93711e-10 1.96853e-12 1.01674e-11 8.55958e-14 1.79414e-13 3.38843e-09)
(1.24047e-10 -2.43804e-13 1.58062e-11 1.3081e-13 -4.88146e-13 5.58951e-09)
(1.12012e-09 -1.22655e-11 3.59341e-10 3.21339e-13 -4.46329e-12 1.34265e-08)
(9.78151e-09 -1.02417e-10 -6.29422e-09 4.16026e-12 -1.15086e-11 1.37329e-08)
(1.36554e-08 -5.19418e-11 -5.3866e-09 4.5856e-11 -3.38026e-09 1.61505e-06)
(6.27013e-08 -6.43117e-12 6.92213e-08 5.65234e-11 9.79338e-12 1.62811e-07)
(6.42055e-09 2.13758e-10 -8.06555e-09 5.74532e-11 -5.64871e-10 8.77032e-08)
(8.1019e-09 3.48055e-10 2.98683e-09 2.38402e-11 -7.3863e-11 4.72812e-08)
(3.23378e-09 4.15679e-11 -1.84729e-09 2.81179e-12 1.10558e-12 2.76357e-08)
(6.51858e-10 -5.37031e-12 9.19797e-10 2.98629e-13 -1.51958e-11 2.5123e-08)
(6.29547e-10 -3.41593e-12 9.5187e-10 2.39122e-13 -2.62474e-12 1.61939e-08)
(1.20726e-09 -5.80361e-12 9.73172e-10 2.49182e-13 -2.39562e-12 1.2364e-08)
(2.03163e-09 -5.11387e-12 -3.44762e-10 1.79892e-13 4.33524e-12 1.38655e-08)
(1.67277e-09 -2.36974e-12 -8.6031e-10 1.79323e-13 3.44943e-12 1.64322e-08)
(1.79574e-09 1.26059e-13 -8.35441e-10 1.60186e-13 6.17596e-12 1.96664e-08)
(1.752e-09 3.25007e-12 3.05075e-10 1.72496e-13 4.73054e-12 2.12403e-08)
(2.19545e-09 2.32213e-13 4.12361e-10 2.46184e-13 -7.50186e-12 2.34622e-08)
(9.34159e-10 -3.03533e-12 7.90974e-11 3.01964e-13 -2.0621e-11 4.06388e-08)
(3.93275e-09 -4.26564e-11 3.35998e-09 2.90458e-12 -2.81097e-10 1.04595e-07)
(6.54327e-08 -4.23407e-10 -5.68836e-08 1.8746e-11 5.41032e-11 1.12036e-07)
(2.87186e-08 -1.88441e-10 -1.57186e-08 2.31558e-10 -1.46379e-08 4.12218e-06)
(1.40986e-07 7.86239e-11 1.80059e-07 2.43317e-10 3.75106e-10 4.29992e-07)
(1.25161e-08 3.58333e-10 -1.95999e-08 2.58849e-10 -1.51105e-09 2.15759e-07)
(1.05557e-08 5.96522e-10 8.28803e-09 1.01376e-10 -5.96108e-11 1.1593e-07)
(5.73771e-09 6.65855e-11 -4.5468e-09 1.12216e-11 -1.47185e-13 6.55481e-08)
(1.51111e-09 -1.07577e-11 2.39766e-09 8.62361e-13 -7.0283e-11 5.89091e-08)
(1.47065e-09 3.6405e-12 2.52241e-09 4.28288e-13 -7.35822e-12 3.67292e-08)
(3.03029e-09 -5.81091e-12 2.5109e-09 2.39712e-13 -6.40756e-12 2.82095e-08)
(5.02507e-09 2.00437e-11 -1.21324e-09 3.09344e-13 -9.36166e-12 3.33808e-08)
(4.09758e-09 2.6904e-11 -2.69311e-09 4.90991e-13 -1.60366e-11 4.12466e-08)
(4.38863e-09 3.38416e-11 -2.56813e-09 6.57534e-13 -1.25644e-11 5.01472e-08)
(4.34445e-09 2.62585e-11 7.07055e-10 6.17068e-13 -2.12648e-11 5.35264e-08)
(5.46781e-09 4.61505e-11 1.00693e-09 1.53011e-12 7.666e-12 5.60325e-08)
(2.37983e-09 -5.39521e-13 9.34462e-11 2.17643e-12 -5.3148e-11 9.93235e-08)
(6.86033e-09 -7.06078e-11 1.06209e-08 1.6608e-11 -1.19655e-09 2.63803e-07)
(1.5384e-07 -1.00409e-09 -1.52024e-07 8.29597e-11 2.36305e-10 2.95368e-07)
(4.77208e-08 -9.841e-11 -3.02542e-08 5.41453e-10 -3.54537e-08 7.46873e-06)
(2.42568e-07 4.1869e-10 3.31431e-07 4.96846e-10 9.20375e-10 8.03724e-07)
(2.02522e-08 5.5469e-10 -3.55836e-08 5.37592e-10 -3.19221e-09 3.82681e-07)
(1.42241e-08 6.87335e-10 1.45478e-08 2.10888e-10 -1.93584e-10 2.02934e-07)
(9.16727e-09 4.21977e-11 -8.24861e-09 2.50527e-11 -5.25768e-12 1.11279e-07)
(2.61323e-09 -3.54285e-11 4.36546e-09 2.61242e-12 -2.01153e-10 9.91964e-08)
(2.56849e-09 -3.95604e-12 4.63563e-09 8.96201e-13 -2.88842e-11 6.05194e-08)
(5.51519e-09 -2.63976e-11 4.48902e-09 7.36318e-13 -2.38603e-11 4.75018e-08)
(8.98823e-09 2.56171e-11 -2.92185e-09 4.16042e-13 -2.41497e-11 5.90868e-08)
(7.29711e-09 4.34272e-11 -5.93818e-09 6.37618e-13 -4.49982e-11 7.56747e-08)
(7.77237e-09 6.07028e-11 -5.65368e-09 8.46601e-13 -4.16879e-11 9.27797e-08)
(7.76817e-09 5.48918e-11 8.71058e-10 1.02028e-12 -6.5143e-11 9.74722e-08)
(9.75082e-09 8.39823e-11 1.42469e-09 3.49107e-12 -3.64645e-11 9.64835e-08)
(4.40001e-09 -8.56529e-12 1.5799e-11 4.72413e-12 -2.03798e-10 1.73578e-07)
(1.10586e-08 -1.39586e-10 2.21644e-08 5.2709e-11 -3.27408e-09 4.71469e-07)
(2.69247e-07 -1.59957e-09 -2.83498e-07 1.69123e-10 5.39213e-10 5.50503e-07)
(6.89202e-08 -1.59427e-10 -4.92969e-08 1.09064e-09 -6.95791e-08 1.14184e-05)
(3.6016e-07 7.27354e-10 5.1374e-07 8.57993e-10 1.61042e-09 1.26338e-06)
(2.88696e-08 8.19647e-10 -5.45475e-08 9.56494e-10 -5.87601e-09 5.74258e-07)
(1.92396e-08 8.0637e-10 2.13408e-08 3.68207e-10 -3.33961e-10 3.00581e-07)
(1.31371e-08 3.39551e-11 -1.25994e-08 4.61871e-11 -3.49268e-11 1.59886e-07)
(3.88343e-09 -5.97139e-11 6.64884e-09 6.25033e-12 -4.12028e-10 1.41904e-07)
(3.86722e-09 -5.79344e-13 7.10431e-09 2.03263e-12 -5.70194e-11 8.56165e-08)
(8.54822e-09 -4.31806e-11 6.64859e-09 1.35424e-12 -4.06838e-11 6.96382e-08)
(1.37073e-08 7.50094e-11 -5.72852e-09 1.08639e-12 -4.25871e-11 9.06414e-08)
(1.11026e-08 1.08251e-10 -1.08996e-08 2.05536e-12 -9.45653e-11 1.19605e-07)
(1.17398e-08 1.39123e-10 -1.04317e-08 2.80856e-12 -1.08056e-10 1.47011e-07)
(1.18054e-08 1.21122e-10 3.90938e-10 3.10044e-12 -1.61979e-10 1.51551e-07)
(1.4731e-08 1.85907e-10 1.29486e-09 9.81811e-12 -8.36063e-11 1.417e-07)
(6.90559e-09 -1.83338e-11 -2.12672e-10 1.27898e-11 -4.24834e-10 2.57086e-07)
(1.61639e-08 -2.93211e-10 3.73257e-08 1.30976e-10 -6.63131e-09 7.1115e-07)
(4.03782e-07 -2.43759e-09 -4.43501e-07 3.0031e-10 8.3786e-10 8.62403e-07)
(9.05478e-08 -1.7219e-10 -7.35149e-08 1.93245e-09 -1.17672e-07 1.57659e-05)
(4.84698e-07 1.09929e-09 7.16633e-07 1.31692e-09 2.3887e-09 1.78781e-06)
(3.75694e-08 1.2121e-09 -7.51753e-08 1.51841e-09 -9.68529e-09 7.79677e-07)
(2.46087e-08 9.19794e-10 2.82648e-08 5.72037e-10 -5.96318e-10 4.03839e-07)
(1.72104e-08 2.08832e-11 -1.71995e-08 7.59914e-11 -1.12082e-10 2.08476e-07)
(5.25613e-09 -9.46792e-11 9.06128e-09 1.28701e-11 -7.30356e-10 1.85148e-07)
(5.31139e-09 -3.63308e-12 9.73974e-09 4.26822e-12 -1.08142e-10 1.11806e-07)
(1.20187e-08 -7.54993e-11 8.72917e-09 2.88511e-12 -6.91645e-11 9.52513e-08)
(1.90017e-08 1.31324e-10 -9.83737e-09 2.29609e-12 -7.52164e-11 1.28721e-07)
(1.5373e-08 1.87155e-10 -1.77822e-08 4.31283e-12 -1.79256e-10 1.73728e-07)
(1.61212e-08 2.36866e-10 -1.71509e-08 5.78352e-12 -2.32307e-10 2.13e-07)
(1.62615e-08 2.06113e-10 -1.11691e-09 6.44345e-12 -3.37645e-10 2.1516e-07)
(2.01256e-08 3.09304e-10 2.93123e-10 2.04061e-11 -2.21624e-10 1.90477e-07)
(9.79243e-09 -4.42843e-11 -6.45489e-10 2.60072e-11 -8.11376e-10 3.46138e-07)
(2.16934e-08 -5.77571e-10 5.57605e-08 2.70562e-10 -1.15626e-08 9.72379e-07)
(5.48181e-07 -3.43121e-09 -6.23193e-07 4.69945e-10 1.1349e-09 1.21567e-06)
(1.11382e-07 -1.68353e-10 -1.0346e-07 3.15527e-09 -1.80756e-07 2.03382e-05)
(6.08841e-07 1.46472e-09 9.29517e-07 1.87265e-09 3.21321e-09 2.35431e-06)
(4.58759e-08 1.70036e-09 -9.65152e-08 2.23871e-09 -1.46262e-08 9.93133e-07)
(2.98967e-08 9.93477e-10 3.50164e-08 8.21089e-10 -9.60573e-10 5.10076e-07)
(2.11214e-08 2.92579e-12 -2.16601e-08 1.14455e-10 -2.47502e-10 2.56215e-07)
(6.6767e-09 -1.3428e-10 1.1444e-08 2.30391e-11 -1.15715e-09 2.28945e-07)
(6.85292e-09 -8.01414e-12 1.23964e-08 7.90276e-12 -1.79597e-10 1.40038e-07)
(1.58214e-08 -1.17538e-10 1.05346e-08 5.29307e-12 -1.02948e-10 1.25448e-07)
(2.47163e-08 2.13167e-10 -1.53414e-08 4.36526e-12 -1.14691e-10 1.74129e-07)
(1.99885e-08 2.98066e-10 -2.66306e-08 8.29207e-12 -3.01068e-10 2.38557e-07)
(2.0779e-08 3.70591e-10 -2.59115e-08 1.09272e-11 -4.28836e-10 2.90776e-07)
(2.0966e-08 3.21794e-10 -3.95909e-09 1.21126e-11 -6.12889e-10 2.8808e-07)
(2.56977e-08 4.70889e-10 -1.83517e-09 3.80885e-11 -4.64856e-10 2.43294e-07)
(1.29622e-08 -8.74872e-11 -1.3188e-09 4.76289e-11 -1.37954e-09 4.39658e-07)
(2.73915e-08 -1.02884e-09 7.72927e-08 4.94828e-10 -1.82101e-08 1.25151e-06)
(6.94553e-07 -4.54023e-09 -8.12994e-07 6.83213e-10 1.38161e-09 1.59409e-06)
(1.30581e-07 -1.04964e-10 -1.39039e-07 4.85091e-09 -2.58872e-07 2.49507e-05)
(7.26501e-07 1.79622e-09 1.14121e-06 2.52502e-09 4.00815e-09 2.93503e-06)
(5.35019e-08 2.28631e-09 -1.17839e-07 3.13579e-09 -2.07398e-08 1.2112e-06)
(3.48487e-08 1.0094e-09 4.14221e-08 1.11636e-09 -1.44518e-09 6.17075e-07)
(2.46834e-08 -2.28277e-11 -2.56683e-08 1.62704e-10 -4.47114e-10 3.03273e-07)
(8.10093e-09 -1.7633e-10 1.36666e-08 3.75374e-11 -1.69226e-09 2.73834e-07)
(8.45027e-09 -1.52057e-11 1.49927e-08 1.34475e-11 -2.73383e-10 1.71138e-07)
(1.98573e-08 -1.70401e-10 1.2002e-08 8.95292e-12 -1.40659e-10 1.60462e-07)
(3.0717e-08 3.20524e-10 -2.21386e-08 7.59855e-12 -1.5772e-10 2.26047e-07)
(2.48466e-08 4.41467e-10 -3.72522e-08 1.44856e-11 -4.62646e-10 3.12457e-07)
(2.56023e-08 5.41268e-10 -3.65857e-08 1.88155e-11 -7.07583e-10 3.78303e-07)
(2.57742e-08 4.70016e-10 -8.2834e-09 2.07383e-11 -1.00151e-09 3.6879e-07)
(3.12605e-08 6.65295e-10 -5.24533e-09 6.47452e-11 -8.49101e-10 3.00762e-07)
(1.63238e-08 -1.54943e-10 -2.24942e-09 7.97502e-11 -2.16972e-09 5.37266e-07)
(3.31029e-08 -1.69037e-09 1.01854e-07 8.2779e-10 -2.67475e-08 1.5484e-06)
(8.36129e-07 -5.70972e-09 -1.00251e-06 9.41772e-10 1.54175e-09 1.9784e-06)
(1.47636e-07 4.78299e-11 -1.79299e-07 7.1114e-09 -3.51136e-07 2.93857e-05)
(8.32716e-07 2.05379e-09 1.34025e-06 3.26995e-09 4.68003e-09 3.49639e-06)
(6.03028e-08 2.96932e-09 -1.38545e-07 4.22324e-09 -2.80538e-08 1.42998e-06)
(3.93046e-08 9.55611e-10 4.73713e-08 1.45702e-09 -2.05109e-09 7.21364e-07)
(2.77733e-08 -5.79916e-11 -2.90397e-08 2.2147e-10 -7.09098e-10 3.49667e-07)
(9.49429e-09 -2.18359e-10 1.56173e-08 5.70412e-11 -2.33005e-09 3.19643e-07)
(1.00676e-08 -2.58288e-11 1.75029e-08 2.14123e-11 -3.92372e-10 2.0485e-07)
(2.40316e-08 -2.34646e-10 1.32202e-08 1.42035e-11 -1.83114e-10 1.98868e-07)
(3.68839e-08 4.55129e-10 -2.98927e-08 1.23167e-11 -2.00504e-10 2.81032e-07)
(2.9856e-08 6.19692e-10 -4.91939e-08 2.35231e-11 -6.65197e-10 3.90554e-07)
(3.05e-08 7.51275e-10 -4.87854e-08 3.01902e-11 -1.07405e-09 4.70366e-07)
(3.05656e-08 6.53676e-10 -1.40282e-08 3.31027e-11 -1.50878e-09 4.53311e-07)
(3.66764e-08 8.91106e-10 -9.95525e-09 1.02643e-10 -1.39451e-09 3.62141e-07)
(1.97925e-08 -2.51288e-10 -3.41479e-09 1.24921e-10 -3.20701e-09 6.37221e-07)
(3.87371e-08 -2.60162e-09 1.29347e-07 1.29328e-09 -3.73033e-08 1.86226e-06)
(9.67169e-07 -6.8792e-09 -1.18092e-06 1.24686e-09 1.56798e-09 2.34567e-06)
(1.62327e-07 3.249e-10 -2.22685e-07 1.00244e-08 -4.55766e-07 3.34318e-05)
(9.23751e-07 2.19762e-09 1.51661e-06 4.10115e-09 5.12923e-09 4.00597e-06)
(6.62484e-08 3.75219e-09 -1.58184e-07 5.51073e-09 -3.65797e-08 1.64496e-06)
(4.31776e-08 8.27711e-10 5.27769e-08 1.84187e-09 -2.76962e-09 8.18573e-07)
(3.03294e-08 -1.03923e-10 -3.1735e-08 2.91451e-10 -1.02738e-09 3.9497e-07)
(1.08312e-08 -2.58371e-10 1.72111e-08 8.20816e-11 -3.06427e-09 3.65451e-07)
(1.16744e-08 -4.08085e-11 1.99385e-08 3.22797e-11 -5.4437e-10 2.39982e-07)
(2.82543e-08 -3.10888e-10 1.43831e-08 2.1405e-11 -2.36468e-10 2.38129e-07)
(4.31068e-08 6.16845e-10 -3.80972e-08 1.88127e-11 -2.39573e-10 3.3398e-07)
(3.49323e-08 8.3369e-10 -6.18287e-08 3.60011e-11 -9.07411e-10 4.66022e-07)
(3.53942e-08 1.00177e-09 -6.1935e-08 4.57557e-11 -1.52786e-09 5.59861e-07)
(3.5243e-08 8.74766e-10 -2.0946e-08 4.99596e-11 -2.1314e-09 5.36096e-07)
(4.1853e-08 1.14634e-09 -1.58337e-08 1.54027e-10 -2.11203e-09 4.25313e-07)
(2.32916e-08 -3.79943e-10 -4.7336e-09 1.85701e-10 -4.50755e-09 7.36313e-07)
(4.4249e-08 -3.7941e-09 1.59547e-07 1.91319e-09 -4.99502e-08 2.19029e-06)
(1.0831e-06 -7.98401e-09 -1.3386e-06 1.59842e-09 1.40924e-09 2.67356e-06)
(1.7468e-07 7.54338e-10 -2.67485e-07 1.36672e-08 -5.70457e-07 3.69383e-05)
(9.97277e-07 2.18814e-09 1.66351e-06 5.00963e-09 5.26372e-09 4.44107e-06)
(7.13955e-08 4.63834e-09 -1.76515e-07 7.00365e-09 -4.6306e-08 1.85237e-06)
(4.64453e-08 6.3029e-10 5.75701e-08 2.26867e-09 -3.58188e-09 9.04913e-07)
(3.23462e-08 -1.60728e-10 -3.38329e-08 3.73021e-10 -1.39459e-09 4.38687e-07)
(1.20943e-08 -2.94981e-10 1.84076e-08 1.13065e-10 -3.89124e-09 4.10306e-07)
(1.32461e-08 -6.1019e-11 2.23309e-08 4.65181e-11 -7.41577e-10 2.75281e-07)
(3.24445e-08 -3.99777e-10 1.57155e-08 3.0903e-11 -3.10997e-10 2.7591e-07)
(4.92873e-08 8.05421e-10 -4.62024e-08 2.73707e-11 -2.6993e-10 3.80245e-07)
(3.99996e-08 1.08423e-09 -7.45049e-08 5.25517e-11 -1.18494e-09 5.32697e-07)
(4.02201e-08 1.29372e-09 -7.54108e-08 6.62798e-11 -2.06381e-09 6.4043e-07)
(3.97333e-08 1.13488e-09 -2.8682e-08 7.21148e-11 -2.86073e-09 6.12135e-07)
(4.67382e-08 1.42997e-09 -2.26395e-08 2.2114e-10 -3.00614e-09 4.87881e-07)
(2.67561e-08 -5.4245e-10 -6.07221e-09 2.64741e-10 -6.08069e-09 8.31246e-07)
(4.96269e-08 -5.28723e-09 1.92086e-07 2.70623e-09 -6.47021e-08 2.52883e-06)
(1.18079e-06 -8.96431e-09 -1.46889e-06 1.99511e-09 1.01436e-09 2.94605e-06)
(1.84891e-07 1.35709e-09 -3.12178e-07 1.81033e-08 -6.92817e-07 3.98405e-05)
(1.05241e-06 1.99112e-09 1.778e-06 5.98369e-09 5.00998e-09 4.79187e-06)
(7.58554e-08 5.63016e-09 -1.93483e-07 8.70177e-09 -5.71927e-08 2.05015e-06)
(4.9138e-08 3.7775e-10 6.17067e-08 2.73494e-09 -4.46568e-09 9.78139e-07)
(3.38608e-08 -2.26969e-10 -3.54733e-08 4.66437e-10 -1.80501e-09 4.80618e-07)
(1.3274e-08 -3.26962e-10 1.92131e-08 1.50206e-10 -4.81079e-09 4.53803e-07)
(1.4765e-08 -8.69268e-11 2.47183e-08 6.45639e-11 -9.98701e-10 3.10123e-07)
(3.65361e-08 -5.01394e-10 1.74137e-08 4.30429e-11 -4.18979e-10 3.10992e-07)
(5.53448e-08 1.01943e-09 -5.37247e-08 3.82454e-11 -2.85934e-10 4.17127e-07)
(4.49941e-08 1.37132e-09 -8.66663e-08 7.38114e-11 -1.48991e-09 5.86886e-07)
(4.4927e-08 1.62722e-09 -8.86598e-08 9.25135e-11 -2.67323e-09 7.08269e-07)
(4.39892e-08 1.43467e-09 -3.68601e-08 1.00366e-10 -3.68612e-09 6.78442e-07)
(5.13134e-08 1.74087e-09 -3.00887e-08 3.06129e-10 -4.08192e-09 5.48157e-07)
(3.01358e-08 -7.39011e-10 -7.27397e-09 3.64674e-10 -7.93647e-09 9.19859e-07)
(5.48777e-08 -7.08559e-09 2.26487e-07 3.68672e-09 -8.15209e-08 2.87472e-06)
(1.25868e-06 -9.77338e-09 -1.56874e-06 2.43445e-09 3.42239e-10 3.15592e-06)
(1.93259e-07 2.14504e-09 -3.55614e-07 2.33847e-08 -8.20717e-07 4.21508e-05)
(1.08948e-06 1.57494e-09 1.86018e-06 7.00993e-09 4.30573e-09 5.05923e-06)
(7.97658e-08 6.72903e-09 -2.09559e-07 1.05957e-08 -6.93234e-08 2.24332e-06)
(5.13187e-08 8.98354e-11 6.51132e-08 3.23601e-09 -5.40631e-09 1.03749e-06)
(3.49348e-08 -2.99733e-10 -3.6833e-08 5.71395e-10 -2.26368e-09 5.21243e-07)
(1.43659e-08 -3.5355e-10 1.96776e-08 1.93463e-10 -5.82881e-09 4.96276e-07)
(1.62198e-08 -1.18855e-10 2.71503e-08 8.67509e-11 -1.33357e-09 3.44739e-07)
(4.0482e-08 -6.14998e-10 1.96574e-08 5.8135e-11 -5.7579e-10 3.43524e-07)
(6.12185e-08 1.25729e-09 -6.02952e-08 5.16924e-11 -2.81803e-10 4.44109e-07)
(4.98668e-08 1.69443e-09 -9.78987e-08 1.00413e-10 -1.81284e-09 6.27602e-07)
(4.94792e-08 2.00194e-09 -1.01245e-07 1.25232e-10 -3.34636e-09 7.62332e-07)
(4.79866e-08 1.77431e-09 -4.5119e-08 1.35492e-10 -4.59952e-09 7.3425e-07)
(5.55828e-08 2.07723e-09 -3.79129e-08 4.1088e-10 -5.35122e-09 6.0549e-07)
(3.33948e-08 -9.68318e-10 -8.19078e-09 4.87915e-10 -1.00914e-08 1.00147e-06)
(6.00206e-08 -9.18128e-09 2.62832e-07 4.86451e-09 -1.00508e-07 3.23535e-06)
(1.31658e-06 -1.03765e-08 -1.63811e-06 2.91262e-09 -6.43873e-10 3.30343e-06)
(2.00105e-07 3.12277e-09 -3.97002e-07 2.9548e-08 -9.52321e-07 4.39273e-05)
(1.10964e-06 9.23145e-10 1.91321e-06 8.07112e-09 3.11803e-09 5.25571e-06)
(8.32688e-08 7.93283e-09 -2.25485e-07 1.26721e-08 -8.29156e-08 2.44073e-06)
(5.30623e-08 -2.14442e-10 6.7669e-08 3.76577e-09 -6.42397e-09 1.08428e-06)
(3.56397e-08 -3.75728e-10 -3.8093e-08 6.8705e-10 -2.79914e-09 5.62412e-07)
(1.53711e-08 -3.74715e-10 1.99208e-08 2.42746e-10 -6.98125e-09 5.40374e-07)
(1.7608e-08 -1.57369e-10 2.97627e-08 1.1337e-10 -1.77852e-09 3.81128e-07)
(4.42597e-08 -7.39809e-10 2.27435e-08 7.64896e-11 -8.07503e-10 3.75213e-07)
(6.68737e-08 1.51797e-09 -6.55672e-08 6.80024e-11 -2.52673e-10 4.62128e-07)
(5.45855e-08 2.05318e-09 -1.07887e-07 1.33024e-10 -2.144e-09 6.55639e-07)
(5.38555e-08 2.41758e-09 -1.12834e-07 1.65202e-10 -4.0759e-09 8.03688e-07)
(5.17239e-08 2.15409e-09 -5.31608e-08 1.78305e-10 -5.60273e-09 7.81159e-07)
(5.9562e-08 2.43769e-09 -4.60238e-08 5.36989e-10 -6.86626e-09 6.61424e-07)
(3.65114e-08 -1.22795e-09 -8.51745e-09 6.3682e-10 -1.26171e-08 1.07897e-06)
(6.50737e-08 -1.1558e-08 3.01558e-07 6.24624e-09 -1.21983e-07 3.62574e-06)
(1.3553e-06 -1.07586e-08 -1.67965e-06 3.42398e-09 -1.9731e-09 3.39517e-06)
(2.05743e-07 4.28714e-09 -4.36029e-07 3.66153e-08 -1.08593e-06 4.5237e-05)
(1.11452e-06 3.53947e-11 1.94045e-06 9.1541e-09 1.43021e-09 5.39262e-06)
(8.64789e-08 9.22826e-09 -2.41175e-07 1.49251e-08 -9.7877e-08 2.64106e-06)
(5.44385e-08 -5.20718e-10 6.93899e-08 4.32229e-09 -7.5308e-09 1.12004e-06)
(3.60443e-08 -4.53408e-10 -3.93257e-08 8.13133e-10 -3.42361e-09 6.04789e-07)
(1.62927e-08 -3.90876e-10 2.00183e-08 2.97987e-10 -8.2924e-09 5.88066e-07)
(1.89307e-08 -2.0306e-10 3.26127e-08 1.44695e-10 -2.35879e-09 4.21998e-07)
(4.78615e-08 -8.75219e-10 2.67193e-08 9.84162e-11 -1.13138e-09 4.09397e-07)
(7.23002e-08 1.80036e-09 -6.94903e-08 8.7492e-11 -1.87747e-10 4.75308e-07)
(5.91359e-08 2.4475e-09 -1.16731e-07 1.72393e-10 -2.47093e-09 6.76163e-07)
(5.80492e-08 2.8744e-09 -1.23562e-07 2.13319e-10 -4.86181e-09 8.38056e-07)
(5.52128e-08 2.57488e-09 -6.10112e-08 2.29709e-10 -6.71409e-09 8.24341e-07)
(6.32705e-08 2.82225e-09 -5.44006e-08 6.86156e-10 -8.7046e-09 7.19858e-07)
(3.94746e-08 -1.51494e-09 -8.03609e-09 8.13956e-10 -1.55907e-08 1.15597e-06)
(7.00301e-08 -1.41863e-08 3.4194e-07 7.83406e-09 -1.4594e-07 4.04313e-06)
(1.37633e-06 -1.09201e-08 -1.69639e-06 3.96384e-09 -3.66739e-09 3.43837e-06)
(2.10437e-07 5.6305e-09 -4.72566e-07 4.4596e-08 -1.21988e-06 4.61328e-05)
(1.10597e-06 -1.08379e-09 1.94292e-06 1.02565e-08 -7.71049e-10 5.4683e-06)
(8.94711e-08 1.05929e-08 -2.56118e-07 1.7349e-08 -1.13884e-07 2.83718e-06)
(5.55114e-08 -8.21566e-10 7.03337e-08 4.90607e-09 -8.71339e-09 1.14501e-06)
(3.62086e-08 -5.33138e-10 -4.05602e-08 9.49747e-10 -4.12651e-09 6.47747e-07)
(1.71316e-08 -4.02933e-10 1.99694e-08 3.58854e-10 -9.75741e-09 6.38863e-07)
(2.01873e-08 -2.56368e-10 3.5651e-08 1.80782e-10 -3.08471e-09 4.67623e-07)
(5.12786e-08 -1.01967e-09 3.14778e-08 1.24071e-10 -1.55834e-09 4.46901e-07)
(7.74905e-08 2.10513e-09 -7.19911e-08 1.10532e-10 -8.10662e-11 4.85618e-07)
(6.35112e-08 2.87931e-09 -1.24318e-07 2.19451e-10 -2.78265e-09 6.91317e-07)
(6.2058e-08 3.37452e-09 -1.33307e-07 2.70708e-10 -5.69698e-09 8.67434e-07)
(5.84663e-08 3.03902e-09 -6.85266e-08 2.90943e-10 -7.93437e-09 8.65267e-07)
(6.67269e-08 3.23204e-09 -6.28591e-08 8.60291e-10 -1.08972e-08 7.81578e-07)
(4.22741e-08 -1.82536e-09 -6.80395e-09 1.02213e-09 -1.90345e-08 1.23282e-06)
(7.48567e-08 -1.70253e-08 3.82702e-07 9.62567e-09 -1.72043e-07 4.47388e-06)
(1.38138e-06 -1.08577e-08 -1.68951e-06 4.53128e-09 -5.74032e-09 3.43436e-06)
(2.14376e-07 7.14328e-09 -5.06316e-07 5.34844e-08 -1.3526e-06 4.6656e-05)
(1.08586e-06 -2.42242e-09 1.92214e-06 1.13744e-08 -3.48641e-09 5.48212e-06)
(9.22889e-08 1.20022e-08 -2.70082e-07 1.99312e-08 -1.30705e-07 3.02529e-06)
(5.63456e-08 -1.11271e-09 7.04783e-08 5.51597e-09 -9.96752e-09 1.15955e-06)
(3.61823e-08 -6.14928e-10 -4.18489e-08 1.09653e-09 -4.91079e-09 6.91522e-07)
(1.78875e-08 -4.12226e-10 1.9793e-08 4.24979e-10 -1.13835e-08 6.92924e-07)
(2.1376e-08 -3.17994e-10 3.88691e-08 2.21618e-10 -3.9728e-09 5.17777e-07)
(5.45036e-08 -1.1723e-09 3.70355e-08 1.53566e-10 -2.10737e-09 4.87291e-07)
(8.24311e-08 2.43152e-09 -7.28599e-08 1.37457e-10 6.8849e-11 4.92908e-07)
(6.76997e-08 3.3491e-09 -1.30274e-07 2.7507e-10 -3.063e-09 7.0022e-07)
(6.58751e-08 3.91873e-09 -1.41642e-07 3.38468e-10 -6.55735e-09 8.9049e-07)
(6.14929e-08 3.54736e-09 -7.53617e-08 3.63165e-10 -9.24302e-09 9.02898e-07)
(6.99436e-08 3.66807e-09 -7.11864e-08 1.06092e-09 -1.34546e-08 8.45715e-07)
(4.48987e-08 -2.15381e-09 -4.86001e-09 1.26383e-09 -2.29756e-08 1.30977e-06)
(7.95059e-08 -2.00288e-08 4.23063e-07 1.16168e-08 -2.00058e-07 4.91087e-06)
(1.37227e-06 -1.0572e-08 -1.6607e-06 5.12664e-09 -8.18979e-09 3.38487e-06)
(2.17698e-07 8.80809e-09 -5.37038e-07 6.32517e-08 -1.4827e-06 4.68497e-05)
(1.05614e-06 -3.95531e-09 1.88123e-06 1.24993e-08 -6.70219e-09 5.44027e-06)
(9.49517e-08 1.34308e-08 -2.82904e-07 2.26551e-08 -1.48134e-07 3.20321e-06)
(5.70041e-08 -1.38657e-09 6.98164e-08 6.14932e-09 -1.12928e-08 1.16447e-06)
(3.60072e-08 -6.98288e-10 -4.3234e-08 1.2527e-09 -5.78375e-09 7.36578e-07)
(1.856e-08 -4.20207e-10 1.95261e-08 4.9584e-10 -1.3181e-08 7.51143e-07)
(2.24958e-08 -3.88508e-10 4.22713e-08 2.67014e-10 -5.03837e-09 5.73378e-07)
(5.7534e-08 -1.33184e-09 4.33715e-08 1.86867e-10 -2.7939e-09 5.31731e-07)
(8.71113e-08 2.77959e-09 -7.20624e-08 1.68619e-10 2.66124e-10 4.99072e-07)
(7.16887e-08 3.85769e-09 -1.34508e-07 3.40244e-10 -3.29744e-09 7.04866e-07)
(6.94908e-08 4.50777e-09 -1.48433e-07 4.17783e-10 -7.42832e-09 9.09059e-07)
(6.42989e-08 4.10071e-09 -8.13612e-08 4.47659e-10 -1.06361e-08 9.38855e-07)
(7.2925e-08 4.13162e-09 -7.92452e-08 1.28961e-09 -1.6417e-08 9.13246e-07)
(4.73381e-08 -2.49513e-09 -2.22211e-09 1.54177e-09 -2.74623e-08 1.38822e-06)
(8.39202e-08 -2.31457e-08 4.62417e-07 1.37997e-08 -2.29779e-07 5.34987e-06)
(1.35087e-06 -1.00755e-08 -1.61327e-06 5.74765e-09 -1.0997e-08 3.29598e-06)
(2.20499e-07 1.0599e-08 -5.64652e-07 7.38534e-08 -1.60915e-06 4.67689e-05)
(1.01867e-06 -5.65011e-09 1.82392e-06 1.36236e-08 -1.0392e-08 5.3522e-06)
(9.74599e-08 1.48531e-08 -2.94439e-07 2.55031e-08 -1.65962e-07 3.36916e-06)
(5.75419e-08 -1.6322e-09 6.83665e-08 6.80242e-09 -1.26861e-08 1.16109e-06)
(3.57163e-08 -7.81692e-10 -4.47435e-08 1.41762e-09 -6.75385e-09 7.83397e-07)
(1.91488e-08 -4.28446e-10 1.92045e-08 5.70906e-10 -1.51575e-08 8.14304e-07)
(2.35466e-08 -4.68677e-10 4.58543e-08 3.1677e-10 -6.29296e-09 6.35165e-07)
(6.03714e-08 -1.49774e-09 5.04183e-08 2.23936e-10 -3.62857e-09 5.81283e-07)
(9.15249e-08 3.14874e-09 -6.96498e-08 2.04395e-10 5.17687e-10 5.06139e-07)
(7.54686e-08 4.40495e-09 -1.3699e-07 4.15961e-10 -3.46678e-09 7.07429e-07)
(7.28971e-08 5.14147e-09 -1.53565e-07 5.09866e-10 -8.28621e-09 9.24749e-07)
(6.68903e-08 4.69924e-09 -8.63511e-08 5.45741e-10 -1.20946e-08 9.74006e-07)
(7.56693e-08 4.62368e-09 -8.69024e-08 1.54755e-09 -1.9791e-08 9.84246e-07)
(4.95821e-08 -2.84354e-09 9.05342e-10 1.85845e-09 -3.25042e-08 1.46844e-06)
(8.80374e-08 -2.6324e-08 5.0012e-07 1.61647e-08 -2.6095e-07 5.78594e-06)
(1.31912e-06 -9.38677e-09 -1.55137e-06 6.38966e-09 -1.41388e-08 3.17674e-06)
(2.22833e-07 1.24874e-08 -5.89175e-07 8.52376e-08 -1.73133e-06 4.64728e-05)
(9.75201e-07 -7.47754e-09 1.75524e-06 1.47399e-08 -1.45445e-08 5.23553e-06)
(9.98002e-08 1.62431e-08 -3.04493e-07 2.84534e-08 -1.83934e-07 3.52079e-06)
(5.8006e-08 -1.83961e-09 6.62249e-08 7.47079e-09 -1.41231e-08 1.15155e-06)
(3.53349e-08 -8.63042e-10 -4.63914e-08 1.59101e-09 -7.82058e-09 8.32229e-07)
(1.96539e-08 -4.38513e-10 1.88452e-08 6.4973e-10 -1.7307e-08 8.81933e-07)
(2.45286e-08 -5.59365e-10 4.9563e-08 3.70684e-10 -7.73281e-09 7.02081e-07)
(6.30208e-08 -1.66989e-09 5.79488e-08 2.64705e-10 -4.60633e-09 6.3531e-07)
(9.56709e-08 3.5378e-09 -6.58145e-08 2.45165e-10 8.28437e-10 5.15108e-07)
(7.90341e-08 4.98989e-09 -1.37739e-07 5.03236e-10 -3.55294e-09 7.08807e-07)
(7.6089e-08 5.81859e-09 -1.56825e-07 6.15883e-10 -9.0933e-09 9.3658e-07)
(6.92726e-08 5.34204e-09 -9.00001e-08 6.58572e-10 -1.35629e-08 1.00579e-06)
(7.8172e-08 5.14506e-09 -9.39259e-08 1.8357e-09 -2.34941e-08 1.05496e-06)
(5.1622e-08 -3.19319e-09 4.17432e-09 2.21619e-09 -3.80271e-08 1.54742e-06)
(9.17975e-08 -2.95122e-08 5.35361e-07 1.86986e-08 -2.93174e-07 6.21066e-06)
(1.27884e-06 -8.52578e-09 -1.48059e-06 7.04917e-09 -1.75924e-08 3.04207e-06)
(2.2473e-07 1.44451e-08 -6.10653e-07 9.73466e-08 -1.84879e-06 4.60106e-05)
(9.2727e-07 -9.4059e-09 1.68066e-06 1.58384e-08 -1.91645e-08 5.11189e-06)
(1.01951e-07 1.75751e-08 -3.12757e-07 3.1481e-08 -2.01699e-07 3.65404e-06)
(5.84328e-08 -2.00317e-09 6.35891e-08 8.14945e-09 -1.55282e-08 1.13833e-06)
(3.48791e-08 -9.39343e-10 -4.81786e-08 1.77191e-09 -8.94235e-09 8.82315e-07)
(2.00759e-08 -4.51879e-10 1.84618e-08 7.3183e-10 -1.95844e-08 9.51257e-07)
(2.54427e-08 -6.61356e-10 5.32788e-08 4.28504e-10 -9.32915e-09 7.72254e-07)
(6.54905e-08 -1.8483e-09 6.56395e-08 3.09058e-10 -5.70677e-09 6.93057e-07)
(9.95527e-08 3.94576e-09 -6.09565e-08 2.91337e-10 1.20352e-09 5.28164e-07)
(8.23827e-08 5.61149e-09 -1.37134e-07 6.03194e-10 -3.54424e-09 7.12437e-07)
(7.90633e-08 6.53789e-09 -1.58568e-07 7.37117e-10 -9.83719e-09 9.48567e-07)
(7.14506e-08 6.02818e-09 -9.23654e-08 7.87439e-10 -1.50114e-08 1.03593e-06)
(8.04276e-08 5.69603e-09 -1.00044e-07 2.15446e-09 -2.74064e-08 1.1207e-06)
(5.34509e-08 -3.53797e-09 7.35787e-09 2.6168e-09 -4.38964e-08 1.62059e-06)
(9.51484e-08 -3.26615e-08 5.6721e-07 2.13853e-08 -3.25889e-07 6.61133e-06)
(1.23172e-06 -7.51886e-09 -1.40662e-06 7.72644e-09 -2.13285e-08 2.90732e-06)
(2.26203e-07 1.64452e-08 -6.29143e-07 1.10113e-07 -1.96112e-06 4.54201e-05)
(8.76266e-07 -1.13973e-08 1.60394e-06 1.69139e-08 -2.42424e-08 4.99581e-06)
(1.0389e-07 1.88241e-08 -3.18824e-07 3.45617e-08 -2.18834e-07 3.76315e-06)
(5.88471e-08 -2.12103e-09 6.05941e-08 8.83506e-09 -1.68314e-08 1.12306e-06)
(3.43563e-08 -1.00674e-09 -5.00829e-08 1.95869e-09 -1.00751e-08 9.32371e-07)
(2.0416e-08 -4.69924e-10 1.81099e-08 8.16741e-10 -2.19497e-08 1.02096e-06)
(2.62905e-08 -7.75392e-10 5.69568e-08 4.8996e-10 -1.10572e-08 8.45012e-07)
(6.77906e-08 -2.03301e-09 7.33292e-08 3.56815e-10 -6.91308e-09 7.54658e-07)
(1.03175e-07 4.37193e-09 -5.54097e-08 3.43332e-10 1.65199e-09 5.47457e-07)
(8.55123e-08 6.26878e-09 -1.35585e-07 7.16958e-10 -3.42802e-09 7.21897e-07)
(8.18171e-08 7.29823e-09 -1.5931e-07 8.74925e-10 -1.05166e-08 9.6604e-07)
(7.34278e-08 6.75691e-09 -9.38624e-08 9.33724e-10 -1.64608e-08 1.0703e-06)
(8.24307e-08 6.27609e-09 -1.05206e-07 2.50379e-09 -3.14988e-08 1.18224e-06)
(5.50644e-08 -3.87239e-09 1.05285e-08 3.0612e-09 -5.00297e-08 1.68703e-06)
(9.80488e-08 -3.57255e-08 5.94828e-07 2.42062e-08 -3.58468e-07 6.97427e-06)
(1.17931e-06 -6.39523e-09 -1.33314e-06 8.42285e-09 -2.53216e-08 2.78119e-06)
(2.27261e-07 1.84623e-08 -6.44716e-07 1.23459e-07 -2.06799e-06 4.47317e-05)
(8.23378e-07 -1.3412e-08 1.52647e-06 1.79667e-08 -2.97473e-08 4.89093e-06)
(1.05596e-07 1.99667e-08 -3.2231e-07 3.76734e-08 -2.34891e-07 3.84197e-06)
(5.92596e-08 -2.19408e-09 5.72743e-08 9.52655e-09 -1.80947e-08 1.10616e-06)
(3.37716e-08 -1.06232e-09 -5.20005e-08 2.15035e-09 -1.123e-08 9.81775e-07)
(2.06761e-08 -4.93831e-10 1.78504e-08 9.0411e-10 -2.43953e-08 1.09202e-06)
(2.70745e-08 -9.02169e-10 6.06318e-08 5.54781e-10 -1.29054e-08 9.20307e-07)
(6.99316e-08 -2.22409e-09 8.09866e-08 4.07736e-10 -8.21382e-09 8.20008e-07)
(1.06544e-07 4.81572e-09 -4.93498e-08 4.0158e-10 2.18391e-09 5.73198e-07)
(8.84226e-08 6.96077e-09 -1.33255e-07 8.45765e-10 -3.18737e-09 7.37753e-07)
(8.43485e-08 8.09807e-09 -1.5919e-07 1.03072e-09 -1.11104e-08 9.89698e-07)
(7.52064e-08 7.52698e-09 -9.47048e-08 1.09886e-09 -1.79121e-08 1.11123e-06)
(8.41769e-08 6.88512e-09 -1.09684e-07 2.88403e-09 -3.58623e-08 1.24566e-06)
(5.64587e-08 -4.1923e-09 1.39027e-08 3.5511e-09 -5.65263e-08 1.75326e-06)
(1.00469e-07 -3.86598e-08 6.17606e-07 2.71396e-08 -3.90337e-07 7.28859e-06)
(1.12299e-06 -5.18098e-09 -1.2615e-06 9.13855e-09 -2.95512e-08 2.66581e-06)
(2.27911e-07 2.04716e-08 -6.5746e-07 1.37298e-07 -2.16915e-06 4.39697e-05)
(7.69556e-07 -1.54148e-08 1.44757e-06 1.89963e-08 -3.56552e-08 4.78977e-06)
(1.07054e-07 2.09801e-08 -3.22958e-07 4.07906e-08 -2.49464e-07 3.88611e-06)
(5.96701e-08 -2.22572e-09 5.3657e-08 1.02217e-08 -1.93979e-08 1.08799e-06)
(3.31305e-08 -1.10468e-09 -5.38578e-08 2.34627e-09 -1.24224e-08 1.03074e-06)
(2.08587e-08 -5.24538e-10 1.77145e-08 9.93541e-10 -2.6916e-08 1.16494e-06)
(2.77972e-08 -1.04213e-09 6.43317e-08 6.22667e-10 -1.48593e-08 9.98033e-07)
(7.19248e-08 -2.42158e-09 8.85918e-08 4.61517e-10 -9.59596e-09 8.88797e-07)
(1.09669e-07 5.27676e-09 -4.29254e-08 4.66527e-10 2.80912e-09 6.05153e-07)
(9.11148e-08 7.68652e-09 -1.30287e-07 9.90923e-10 -2.80706e-09 7.60068e-07)
(8.66566e-08 8.93587e-09 -1.58334e-07 1.20602e-09 -1.15995e-08 1.01968e-06)
(7.67876e-08 8.3369e-09 -9.498e-08 1.28434e-09 -1.93475e-08 1.1588e-06)
(8.56623e-08 7.52241e-09 -1.13693e-07 3.29517e-09 -4.05566e-08 1.31475e-06)
(5.76304e-08 -4.49337e-09 1.75395e-08 4.08802e-09 -6.3491e-08 1.82503e-06)
(1.02388e-07 -4.14202e-08 6.35212e-07 3.01588e-08 -4.21013e-07 7.54821e-06)
(1.06389e-06 -3.89674e-09 -1.19055e-06 9.87322e-09 -3.39963e-08 2.55606e-06)
(2.28161e-07 2.24491e-08 -6.6747e-07 1.5154e-07 -2.2644e-06 4.3154e-05)
(7.15606e-07 -1.73703e-08 1.36709e-06 1.99991e-08 -4.19427e-08 4.68744e-06)