/*--------------------------------*- C++ -*----------------------------------*\
| =========                 |                                                 |
| \\      /  F ield         | OpenFOAM: The Open Source CFD Toolbox           |
|  \\    /   O peration     | Version:  v1912                                 |
|   \\  /    A nd           | Website:  www.openfoam.com                      |
|    \\/     M anipulation  |                                                 |
\*---------------------------------------------------------------------------*/
FoamFile
{
    version     2.0;
    format      ascii;
    class       volVectorField;
    location    "199.2";
    object      wallShearStress;
}
// * * * * * * * * * * * * * * * * * * * * * * * * * * * * * * * * * * * * * //

dimensions      [1 -1 -2 0 0 0 0];


internalField   uniform (0 0 0);

boundaryField
{
    leftWall
    {
        type            calculated;
        value           nonuniform List<vector> 
128
(
(-1.35564e-05 -8.00105e-05 -0.280478)
(-4.30908e-06 0.000107371 -0.381732)
(-4.10331e-05 -0.000132333 -0.284237)
(-3.85591e-05 0.000161862 -0.37211)
(-3.34383e-05 -0.000246066 -0.304889)
(-3.93741e-05 0.000212709 -0.303047)
(6.01448e-05 -0.000839583 -0.331797)
(5.74312e-05 -0.000905175 0.152279)
(0.0097713 -1.2376e-05 -0.32143)
(-0.0103567 2.13797e-05 -0.335898)
(0.012554 -2.43705e-05 -0.329323)
(-0.0133968 2.10364e-05 -0.329082)
(0.0143075 -6.1368e-05 -0.339029)
(-0.0172062 -3.82235e-06 -0.299557)
(0.00524723 -0.000355141 -0.342711)
(-0.0310803 -0.0010429 -0.0709898)
(0.00352463 3.39631e-05 -0.351294)
(-0.00241058 -2.50687e-05 -0.303975)
(0.0039069 3.69532e-05 -0.362548)
(-0.0029688 -4.25572e-05 -0.29319)
(0.0043685 2.5028e-05 -0.370733)
(-0.00301707 -8.64107e-05 -0.265743)
(0.00924676 -0.000250667 -0.362953)
(0.00550291 -0.00113249 -0.0411764)
(0.00126122 1.12789e-05 -0.34253)
(-0.000812065 6.54434e-06 -0.318141)
(0.00153342 -3.95752e-06 -0.351848)
(-0.00123642 2.07769e-06 -0.306271)
(0.00170496 -4.39715e-05 -0.360843)
(-0.00180539 -3.55558e-05 -0.271278)
(0.00239928 -0.000367637 -0.355155)
(0.000753699 -0.00114234 -0.00876389)
(0.000634249 2.28338e-06 -0.338742)
(-0.00028499 1.15089e-05 -0.320711)
(0.000895625 -1.1549e-05 -0.348665)
(-0.000752784 6.99025e-06 -0.308128)
(0.00163719 -4.39799e-05 -0.358345)
(-0.000983737 -2.97005e-05 -0.271359)
(0.00498559 -0.000344937 -0.353023)
(0.00250676 -0.00116278 -0.0121409)
(0.000326674 -2.10189e-06 -0.338878)
(7.10338e-06 1.68633e-05 -0.322156)
(0.000469316 -1.90324e-05 -0.349544)
(-0.000298065 1.07765e-05 -0.306892)
(0.000752221 -5.43913e-05 -0.360112)
(-0.000560683 -3.67919e-05 -0.267079)
(0.00246749 -0.000347894 -0.352296)
(0.00215901 -0.00118335 -0.00515755)
(0.000101565 -4.062e-06 -0.338041)
(2.56038e-05 1.71199e-05 -0.322637)
(0.000228875 -1.99386e-05 -0.34886)
(-0.000183255 1.12116e-05 -0.306625)
(0.000545127 -5.29205e-05 -0.359217)
(-0.000220967 -3.36121e-05 -0.266044)
(0.0019768 -0.000345348 -0.350559)
(0.00150772 -0.00117993 -0.00523178)
(3.83848e-05 -5.39947e-06 -0.337813)
(3.52073e-05 1.92164e-05 -0.322915)
(9.85845e-05 -2.30617e-05 -0.348886)
(-4.72194e-05 1.22688e-05 -0.306319)
(0.000184123 -5.88494e-05 -0.359462)
(-0.000116124 -3.74777e-05 -0.265028)
(0.000753313 -0.000350508 -0.350027)
(0.000669858 -0.00119075 -0.00380305)
(-1.51564e-05 -5.55961e-06 -0.337603)
(1.99074e-06 1.79913e-05 -0.32287)
(1.21265e-05 -2.17462e-05 -0.348627)
(2.21821e-05 1.17592e-05 -0.306262)
(1.65509e-05 -5.57538e-05 -0.359012)
(9.48606e-06 -3.47251e-05 -0.264995)
(-2.08047e-05 -0.000346851 -0.349602)
(-5.13686e-05 -0.00118507 -0.00425555)
(-6.54818e-05 -5.46883e-06 -0.337872)
(-3.05098e-05 1.92524e-05 -0.322998)
(-7.79511e-05 -2.29075e-05 -0.348953)
(9.0018e-05 1.23687e-05 -0.306426)
(-0.000158311 -5.86719e-05 -0.359554)
(0.000136059 -3.7434e-05 -0.265153)
(-0.000802817 -0.000350514 -0.350158)
(-0.000772703 -0.00119074 -0.00386322)
(-0.000123234 -4.16524e-06 -0.33812)
(-2.71362e-05 1.72757e-05 -0.322815)
(-0.000216937 -1.97584e-05 -0.348948)
(0.000215496 1.15178e-05 -0.306877)
(-0.000528821 -5.27631e-05 -0.359347)
(0.000234669 -3.33158e-05 -0.266342)
(-0.002033 -0.000345659 -0.350809)
(-0.00160452 -0.00117981 -0.00536158)
(-0.000335878 -2.21421e-06 -0.338981)
(-2.50497e-05 1.70625e-05 -0.322382)
(-0.000464457 -1.87726e-05 -0.349653)
(0.000306998 1.12416e-05 -0.307211)
(-0.000741352 -5.41717e-05 -0.360281)
(0.000565428 -3.63812e-05 -0.267465)
(-0.00251768 -0.000348364 -0.352626)
(-0.00220292 -0.00118316 -0.0053613)
(-0.00063591 2.26719e-06 -0.338833)
(0.00025578 1.13522e-05 -0.320932)
(-0.000905313 -1.11488e-05 -0.348738)
(0.000735866 7.38299e-06 -0.308472)
(-0.00163903 -4.35017e-05 -0.35846)
(0.000974938 -2.93503e-05 -0.271842)
(-0.00502748 -0.000345694 -0.3533)
(-0.00252255 -0.00116236 -0.0124212)
(-0.00125844 1.13191e-05 -0.342637)
(0.000790582 6.02235e-06 -0.318357)
(-0.00155122 -3.58459e-06 -0.351918)
(0.00119995 2.23366e-06 -0.306583)
(-0.0017192 -4.31379e-05 -0.360947)
(0.0017914 -3.54114e-05 -0.271722)
(-0.00239916 -0.000368631 -0.355413)
(-0.000678577 -0.00114212 -0.00900931)
(-0.00352332 3.39132e-05 -0.35149)
(0.00240688 -2.55742e-05 -0.304125)
(-0.00393105 3.72428e-05 -0.362722)
(0.0029316 -4.26228e-05 -0.293371)
(-0.00441446 2.5973e-05 -0.370927)
(0.00300134 -8.62309e-05 -0.266009)
(-0.00922446 -0.000251526 -0.363206)
(-0.00542714 -0.0011318 -0.0413506)
(-0.00977519 -1.22058e-05 -0.32169)
(0.0103654 2.12033e-05 -0.335987)
(-0.012606 -2.36405e-05 -0.329543)
(0.0133533 2.11398e-05 -0.329246)
(-0.0143824 -6.10182e-05 -0.339209)
(0.0171736 -3.45006e-06 -0.299842)
(-0.00521693 -0.00035582 -0.342908)
(0.0311844 -0.00104154 -0.0713069)
)
;
    }
    rightWall
    {
        type            calculated;
        value           nonuniform 0();
    }
    leftSides_periodic0
    {
        type            cyclic;
    }
    leftSides_periodic1
    {
        type            cyclic;
    }
    rightSides_periodic0
    {
        type            cyclic;
    }
    rightSides_periodic1
    {
        type            cyclic;
    }
    leftInOut_periodic0
    {
        type            cyclic;
    }
    leftInOut_periodic1
    {
        type            cyclic;
    }
    rightInOut_periodic0
    {
        type            cyclic;
    }
    rightInOut_periodic1
    {
        type            cyclic;
    }
    procBoundary2to0
    {
        type            processor;
        value           uniform (0 0 0);
    }
    procBoundary2to0throughleftSides_periodic1
    {
        type            processorCyclic;
        value           uniform (0 0 0);
    }
    procBoundary2to1throughleftSides_periodic1
    {
        type            processorCyclic;
        value           uniform (0 0 0);
    }
    procBoundary2to1throughrightSides_periodic1
    {
        type            processorCyclic;
        value           uniform (0 0 0);
    }
    procBoundary2to3
    {
        type            processor;
        value           uniform (0 0 0);
    }
    procBoundary2to3throughrightInOut_periodic1
    {
        type            processorCyclic;
        value           uniform (0 0 0);
    }
}


// ************************************************************************* //
