0 	0 	0 	0
0 	0 	0 	0
0.00752508 	0.000642164 	-6.62897e-05 	-0.297124
0.00752508 	0.000642164 	-6.62897e-05 	-0.297124
0.00757525 	0.000673595 	-5.66248e-05 	-0.297128
0.00762542 	0.000705026 	-4.696e-05 	-0.297131
0.00762542 	0.000705026 	-4.696e-05 	-0.297131
0.00767559 	0.000736493 	-3.72978e-05 	-0.297133
0.00772575 	0.000771897 	-2.79261e-05 	-0.297073
0.00777592 	0.000807301 	-1.85543e-05 	-0.297012
0.00782609 	0.000842704 	-9.1826e-06 	-0.296951
0.00782609 	0.000842704 	-9.1826e-06 	-0.296951
0.00787625 	0.000880576 	2.83769e-06 	-0.296848
0.00792642 	0.000920238 	1.67792e-05 	-0.296714
0.00797659 	0.000959899 	3.07206e-05 	-0.296581
0.00802676 	0.00100135 	4.35409e-05 	-0.296428
0.00802676 	0.00100135 	4.35409e-05 	-0.296428
0.00807692 	0.00104949 	5.21571e-05 	-0.296202
0.00812709 	0.00109763 	6.07732e-05 	-0.295976
0.00812709 	0.00109763 	6.07732e-05 	-0.295976
0.00817726 	0.00114577 	6.93894e-05 	-0.295749
0.00822742 	0.00121085 	6.70965e-05 	-0.295379
0.00822742 	0.00121085 	6.70965e-05 	-0.295379
0.00827759 	0.00127779 	6.36029e-05 	-0.294993
0.00832776 	0.00134473 	6.01093e-05 	-0.294607
0.00832776 	0.00134473 	6.01093e-05 	-0.294607
0.00837793 	0.00142969 	6.42398e-05 	-0.294043
0.00842809 	0.00152438 	7.24855e-05 	-0.293384
0.00842809 	0.00152438 	7.24855e-05 	-0.293384
0.00847826 	0.00161907 	8.07313e-05 	-0.292724
0.00847826 	0.00161907 	8.07313e-05 	-0.292724
0.00852843 	0.0017281 	0.00010413 	-0.291899
0.00852843 	0.0017281 	0.00010413 	-0.291899
0.0085786 	0.00185428 	0.000145656 	-0.290877
0.0085786 	0.00185428 	0.000145656 	-0.290877
0.00862876 	0.00198046 	0.000187182 	-0.289855
0.00867893 	0.00210348 	0.000226046 	-0.288831
0.00867893 	0.00210348 	0.000226046 	-0.288831
0.0087291 	0.0022197 	0.000259187 	-0.287803
0.00877926 	0.00233592 	0.000292327 	-0.286774
0.00877926 	0.00233592 	0.000292327 	-0.286774
0.00882943 	0.00244014 	0.000315669 	-0.28581
0.0088796 	0.00250529 	0.000307094 	-0.285058
0.0088796 	0.00250529 	0.000307094 	-0.285058
0.00897993 	0.00262937 	0.000283957 	-0.283549
0.00897993 	0.00262937 	0.000283957 	-0.283549
0.0090301 	0.00266441 	0.000246411 	-0.282771
0.00908027 	0.00269945 	0.000208866 	-0.281993
0.00908027 	0.00269945 	0.000208866 	-0.281993
0.00913043 	0.00273479 	0.000168717 	-0.281162
0.0091806 	0.00277117 	0.000119939 	-0.280155
0.0091806 	0.00277117 	0.000119939 	-0.280155
0.00923077 	0.00280754 	7.11619e-05 	-0.279148
0.00928094 	0.00284522 	3.6418e-05 	-0.278163
0.00928094 	0.00284522 	3.6418e-05 	-0.278163
0.0093311 	0.00288583 	3.30285e-05 	-0.277226
0.00938127 	0.00292644 	2.9639e-05 	-0.276289
0.00938127 	0.00292644 	2.9639e-05 	-0.276289
0.00943144 	0.00296123 	4.43979e-05 	-0.275489
0.00943144 	0.00296123 	4.43979e-05 	-0.275489
0.00948161 	0.00298857 	8.24282e-05 	-0.274867
0.00948161 	0.00298857 	8.24282e-05 	-0.274867
0.00953177 	0.00301591 	0.000120459 	-0.274244
0.00953177 	0.00301591 	0.000120459 	-0.274244
0.00958194 	0.00303157 	0.00016593 	-0.273694
0.00958194 	0.00303157 	0.00016593 	-0.273694
0.00963211 	0.00304 	0.000216008 	-0.273189
0.00963211 	0.00304 	0.000216008 	-0.273189
0.00968227 	0.00304843 	0.000266085 	-0.272684
0.00968227 	0.00304843 	0.000266085 	-0.272684
0.00973244 	0.0030443 	0.000306682 	-0.272078
0.00978261 	0.00303788 	0.000345566 	-0.271453
0.00983278 	0.00303024 	0.000375297 	-0.270797
0.00988294 	0.00301396 	0.000340937 	-0.269926
0.00988294 	0.00301396 	0.000340937 	-0.269926
0.00993311 	0.00299769 	0.000306576 	-0.269055
0.00998328 	0.00297912 	0.000267185 	-0.268114
0.00998328 	0.00297912 	0.000267185 	-0.268114
0.0100334 	0.00295777 	0.000221668 	-0.26709
0.0100334 	0.00295777 	0.000221668 	-0.26709
0.0100836 	0.00293642 	0.000176152 	-0.266066
0.0101338 	0.00291013 	0.000187075 	-0.265057
0.0101338 	0.00291013 	0.000187075 	-0.265057
0.0102341 	0.00285364 	0.000231015 	-0.263089
0.0102341 	0.00285364 	0.000231015 	-0.263089
0.0102843 	0.00281893 	0.000245726 	-0.262261
0.0103344 	0.00278423 	0.000260437 	-0.261433
0.0103344 	0.00278423 	0.000260437 	-0.261433
0.0103846 	0.00274722 	0.000240231 	-0.260749
0.0103846 	0.00274722 	0.000240231 	-0.260749
0.0104348 	0.00270927 	0.00020564 	-0.260126
0.0104849 	0.00267146 	0.000172875 	-0.259512
0.0104849 	0.00267146 	0.000172875 	-0.259512
0.0105351 	0.00263419 	0.000146668 	-0.258935
0.0105853 	0.00259693 	0.000120462 	-0.258357
0.0105853 	0.00259693 	0.000120462 	-0.258357
0.0106355 	0.0025597 	0.000122439 	-0.257747
0.0106856 	0.00252248 	0.000132783 	-0.257127
0.0106856 	0.00252248 	0.000132783 	-0.257127
0.0107358 	0.00248448 	0.000147093 	-0.256494
0.0107358 	0.00248448 	0.000147093 	-0.256494
0.010786 	0.00244514 	0.000168228 	-0.255836
0.010786 	0.00244514 	0.000168228 	-0.255836
0.0108361 	0.00240578 	0.000189216 	-0.255179
0.0108361 	0.00240578 	0.000189216 	-0.255179
0.0108863 	0.00236412 	0.000187302 	-0.2545
0.0109365 	0.00232246 	0.000185389 	-0.253822
0.0109365 	0.00232246 	0.000185389 	-0.253822
0.0109866 	0.00227903 	0.000167955 	-0.253126
0.0109866 	0.00227903 	0.000167955 	-0.253126
0.0110368 	0.00223479 	0.00014344 	-0.252422
0.011087 	0.00218887 	0.000125336 	-0.251698
0.011087 	0.00218887 	0.000125336 	-0.251698
0.0111371 	0.00214053 	0.000116531 	-0.250946
0.0111873 	0.00209158 	0.000113296 	-0.250179
0.0111873 	0.00209158 	0.000113296 	-0.250179
0.0112375 	0.0020396 	0.000137371 	-0.249345
0.0112876 	0.00198763 	0.000161447 	-0.248511
0.0112876 	0.00198763 	0.000161447 	-0.248511
0.0113378 	0.00193459 	0.000188286 	-0.247595
0.011388 	0.00188152 	0.000215209 	-0.246677
0.011388 	0.00188152 	0.000215209 	-0.246677
0.0114883 	0.0017783 	0.000237296 	-0.244805
0.0114883 	0.0017783 	0.000237296 	-0.244805
0.0115385 	0.00172834 	0.000239049 	-0.243872
0.0115886 	0.00167907 	0.000237337 	-0.242941
0.0115886 	0.00167907 	0.000237337 	-0.242941
0.0116388 	0.00162819 	0.000218831 	-0.241952
0.011689 	0.00157627 	0.000189244 	-0.240923
0.011689 	0.00157627 	0.000189244 	-0.240923
0.0117391 	0.00152003 	0.00014501 	-0.239771
0.0117893 	0.00146033 	8.89956e-05 	-0.238519
0.0117893 	0.00146033 	8.89956e-05 	-0.238519
0.0118395 	0.00139832 	3.72623e-05 	-0.237172
0.0118896 	0.00133437 	-1.08536e-05 	-0.235745
0.0118896 	0.00133437 	-1.08536e-05 	-0.235745
0.0119398 	0.00127276 	-2.57723e-05 	-0.234378
0.0119398 	0.00127276 	-2.57723e-05 	-0.234378
0.01199 	0.00121297 	-1.51655e-05 	-0.233059
0.01199 	0.00121297 	-1.51655e-05 	-0.233059
0.0120401 	0.00115461 	3.15367e-05 	-0.231876
0.0120401 	0.00115461 	3.15367e-05 	-0.231876
0.0120903 	0.00109712 	0.000100042 	-0.230774
0.0120903 	0.00109712 	0.000100042 	-0.230774
0.0121405 	0.001035 	0.000149694 	-0.229689
0.0121405 	0.001035 	0.000149694 	-0.229689
0.0121906 	0.000971047 	0.000191858 	-0.228611
0.0121906 	0.000971047 	0.000191858 	-0.228611
0.0122408 	0.000900983 	0.000187859 	-0.227445
0.0122408 	0.000900983 	0.000187859 	-0.227445
0.012291 	0.00082977 	0.000175163 	-0.226261
0.012291 	0.00082977 	0.000175163 	-0.226261
0.0123411 	0.000758371 	0.000138923 	-0.224988
0.0123411 	0.000758371 	0.000138923 	-0.224988
0.0123913 	0.000688167 	0.000106604 	-0.223708
0.0123913 	0.000688167 	0.000106604 	-0.223708
0.0124415 	0.000622996 	9.0787e-05 	-0.2224
0.0124916 	0.000560215 	8.67201e-05 	-0.221079
0.0124916 	0.000560215 	8.67201e-05 	-0.221079
0.012592 	0.00044202 	0.000101859 	-0.218334
0.012592 	0.00044202 	0.000101859 	-0.218334
0.0126421 	0.000383551 	9.96634e-05 	-0.216899
0.0126923 	0.000322618 	6.59667e-05 	-0.215301
0.0126923 	0.000322618 	6.59667e-05 	-0.215301
0.0127425 	0.000261095 	2.73573e-05 	-0.213644
0.0127425 	0.000261095 	2.73573e-05 	-0.213644
0.0127926 	0.000198289 	-2.0497e-05 	-0.211854
0.0128428 	0.000137029 	-4.70684e-05 	-0.210042
0.0128428 	0.000137029 	-4.70684e-05 	-0.210042
0.012893 	7.67356e-05 	-6.0349e-05 	-0.208217
0.0129431 	2.04571e-05 	-2.24964e-05 	-0.206491
0.0129431 	2.04571e-05 	-2.24964e-05 	-0.206491
0.0129933 	-3.54438e-05 	1.43769e-05 	-0.204777
0.0130435 	-9.08248e-05 	4.89287e-05 	-0.203082
0.0130435 	-9.08248e-05 	4.89287e-05 	-0.203082
0.0130936 	-0.000147254 	4.47374e-05 	-0.201308
0.0131438 	-0.000203925 	2.64071e-05 	-0.199479
0.0131438 	-0.000203925 	2.64071e-05 	-0.199479
0.013194 	-0.000260643 	-6.7935e-06 	-0.197555
0.0132441 	-0.000316124 	-2.44924e-05 	-0.195538
0.0132441 	-0.000316124 	-2.44924e-05 	-0.195538
0.0132943 	-0.000370589 	-3.42399e-05 	-0.19346
0.0133445 	-0.000423404 	-3.55923e-05 	-0.191294
0.0133445 	-0.000423404 	-3.55923e-05 	-0.191294
0.0133946 	-0.00047389 	-3.96291e-05 	-0.189017
0.0134448 	-0.000522592 	-4.41578e-05 	-0.186658
0.0134448 	-0.000522592 	-4.41578e-05 	-0.186658
0.013495 	-0.000569255 	-4.85291e-05 	-0.184205
0.0135452 	-0.000612768 	-5.16969e-05 	-0.181587
0.0135452 	-0.000612768 	-5.16969e-05 	-0.181587
0.0136455 	-0.000695178 	-5.66716e-05 	-0.175989
0.0136455 	-0.000695178 	-5.66716e-05 	-0.175989
0.0136957 	-0.000734433 	-5.94996e-05 	-0.172959
0.0137458 	-0.000772827 	-6.34456e-05 	-0.169708
0.0137458 	-0.000772827 	-6.34456e-05 	-0.169708
0.013796 	-0.000810405 	-6.74671e-05 	-0.166265
0.0138462 	-0.000846817 	-7.10013e-05 	-0.162607
0.0138462 	-0.000846817 	-7.10013e-05 	-0.162607
0.0138963 	-0.000881548 	-7.34019e-05 	-0.158707
0.0138963 	-0.000881548 	-7.34019e-05 	-0.158707
0.0139465 	-0.000912686 	-7.40699e-05 	-0.154449
0.0139967 	-0.000940151 	-7.36814e-05 	-0.149887
0.0139967 	-0.000940151 	-7.36814e-05 	-0.149887
0.0140468 	-0.000963618 	-7.25671e-05 	-0.145005
0.0140468 	-0.000963618 	-7.25671e-05 	-0.145005
0.014097 	-0.000982387 	-7.08798e-05 	-0.139782
0.0141472 	-0.000995375 	-6.85068e-05 	-0.134191
0.0141973 	-0.00100101 	-6.48799e-05 	-0.128205
0.0141973 	-0.00100101 	-6.48799e-05 	-0.128205
0.0142475 	-0.000996031 	-6.00926e-05 	-0.121733
0.0142977 	-0.000980215 	-5.54371e-05 	-0.114822
0.0143478 	-0.000952694 	-5.12377e-05 	-0.107467
0.0143478 	-0.000952694 	-5.12377e-05 	-0.107467
0.014398 	-0.000912951 	-4.72362e-05 	-0.0996784
0.014398 	-0.000912951 	-4.72362e-05 	-0.0996784
0.0144482 	-0.000860642 	-4.29709e-05 	-0.0914992
0.0144983 	-0.000795827 	-3.83494e-05 	-0.0830058
0.0144983 	-0.000795827 	-3.83494e-05 	-0.0830058
0.0145485 	-0.000719399 	-3.35719e-05 	-0.074305
0.0145987 	-0.000633297 	-2.86835e-05 	-0.0655203
0.0145987 	-0.000633297 	-2.86835e-05 	-0.0655203
0.0146488 	-0.000540399 	-2.36235e-05 	-0.05677
0.014699 	-0.000444261 	-1.84643e-05 	-0.0481454
0.014699 	-0.000444261 	-1.84643e-05 	-0.0481454
0.0147492 	-0.00034881 	-1.33477e-05 	-0.0396995
0.0147993 	-0.000258429 	-8.54789e-06 	-0.0314478
0.0147993 	-0.000258429 	-8.54789e-06 	-0.0314478
0.0148495 	-0.000178813 	-3.99773e-06 	-0.0233632
0.0148495 	-0.000178813 	-3.99773e-06 	-0.0233632
0.0148997 	-0.00011529 	-9.96096e-07 	-0.0153964
0.0148997 	-0.00011529 	-9.96096e-07 	-0.0153964
0.0149498 	-6.20624e-05 	2.0573e-07 	-0.0075848
0.0149498 	-6.20624e-05 	2.0573e-07 	-0.0075848
0.015 	0 	0 	0
