/*--------------------------------*- C++ -*----------------------------------*\
| =========                 |                                                 |
| \\      /  F ield         | OpenFOAM: The Open Source CFD Toolbox           |
|  \\    /   O peration     | Version:  v1912                                 |
|   \\  /    A nd           | Website:  www.openfoam.com                      |
|    \\/     M anipulation  |                                                 |
\*---------------------------------------------------------------------------*/
FoamFile
{
    version     2.0;
    format      ascii;
    class       volScalarField;
    location    "196.8";
    object      k;
}
// * * * * * * * * * * * * * * * * * * * * * * * * * * * * * * * * * * * * * //

dimensions      [0 2 -2 0 0 0 0];


internalField   nonuniform List<scalar> 
10147
(
0.000323275
0.000275865
0.000237657
0.00023274
0.000235905
0.000237704
0.000238349
0.00023851
0.000238632
0.000238498
0.000238336
0.000237706
0.000235958
0.000232874
0.000237792
0.000275793
0.000241362
0.000239654
0.000239531
0.000239904
0.000240019
0.000239934
0.000239582
0.000239702
0.000241389
0.000245129
0.000249614
0.00024546
0.000241953
0.000241272
0.000239126
0.000235619
0.000240095
0.000280506
0.000244574
0.000314353
0.000272216
0.000239545
0.000235746
0.000238544
0.000239536
0.000239569
0.0002393
0.000239334
0.000239307
0.000239588
0.000239577
0.000238635
0.000235918
0.000239722
0.000272187
0.000306515
0.000269522
0.00024222
0.000239621
0.000242142
0.000242399
0.000241857
0.00024118
0.000241132
0.000241205
0.000241908
0.000242478
0.00024227
0.00023983
0.000242438
0.000269535
0.000299844
0.000267827
0.000245658
0.000244302
0.000246629
0.000246229
0.000245154
0.000244098
0.000243975
0.000244139
0.000245235
0.000246342
0.00024679
0.000244544
0.000245915
0.000267882
0.000294343
0.000267135
0.000249846
0.000249747
0.000251952
0.000250968
0.000249408
0.000248001
0.00024781
0.000248057
0.000249516
0.000251114
0.000252144
0.00025002
0.000250139
0.000267231
0.000290012
0.000267446
0.000254767
0.000255915
0.000258061
0.000256564
0.000254562
0.000252833
0.000252583
0.000252905
0.000254695
0.000256738
0.000258281
0.000256216
0.000255094
0.000267581
0.000286851
0.000268751
0.000260402
0.000262768
0.000264907
0.00026296
0.000260561
0.000258539
0.000258237
0.000258625
0.000260717
0.000263161
0.000265151
0.000263094
0.00026076
0.000268925
0.000284854
0.000271037
0.000266726
0.000270265
0.00027244
0.000270102
0.000267347
0.000265063
0.000264717
0.000265161
0.000267525
0.000270327
0.000272706
0.000270613
0.000267113
0.000271247
0.000284011
0.000274282
0.000273715
0.000278353
0.000280598
0.000277931
0.000274866
0.000272348
0.000271966
0.000272457
0.000275062
0.000278177
0.000280883
0.00027872
0.000274128
0.000274526
0.000284309
0.000278458
0.000281332
0.000286967
0.000289306
0.000286372
0.000283045
0.000280326
0.000279916
0.000280445
0.000283257
0.000286636
0.000289608
0.000287351
0.000281768
0.000278735
0.000285726
0.000283531
0.000289527
0.000296056
0.000298507
0.000295353
0.000291804
0.000288915
0.000288486
0.000289043
0.00029203
0.000295632
0.000298822
0.000296455
0.000289984
0.000283838
0.000288234
0.000289464
0.000298251
0.000305582
0.000308156
0.00030482
0.000301082
0.000298049
0.000297605
0.000298184
0.000301321
0.000305112
0.000308483
0.000305994
0.000298726
0.0002898
0.000291798
0.000296216
0.000307463
0.000315513
0.000318216
0.000314729
0.000310831
0.000307675
0.000307223
0.000307817
0.000311082
0.000315034
0.000318554
0.000315936
0.000307953
0.000296577
0.000296378
0.000303739
0.00031713
0.000325818
0.000328655
0.000325045
0.000321013
0.000317752
0.000317297
0.000317901
0.000321273
0.00032536
0.000329001
0.000326251
0.000317634
0.000304122
0.000301931
0.000311975
0.000327221
0.000336472
0.000339442
0.000335734
0.000331591
0.000328244
0.00032779
0.000328398
0.000331861
0.000336059
0.000339796
0.000336913
0.000327736
0.000312379
0.000308408
0.000320863
0.000337707
0.000347448
0.000350549
0.000346765
0.000342535
0.000339117
0.00033867
0.000339276
0.000342812
0.000347099
0.00035091
0.000347896
0.000338233
0.000321284
0.000315759
0.000330345
0.000348562
0.000358722
0.000361951
0.000358111
0.000353814
0.000350341
0.000349904
0.000350505
0.000354099
0.000358452
0.000362318
0.000359175
0.000349096
0.000330781
0.000323925
0.000340374
0.000359759
0.000370268
0.000373623
0.000369745
0.000365401
0.000361887
0.000361465
0.000362055
0.000365692
0.000370092
0.000373994
0.000370727
0.000360299
0.000340822
0.000332839
0.000350904
0.00037127
0.000382065
0.000385539
0.000381639
0.000377268
0.000373727
0.000373323
0.000373898
0.000377565
0.000381992
0.000385915
0.000382527
0.000371815
0.000351364
0.000342432
0.000361895
0.000383068
0.000394086
0.000397676
0.000393769
0.000389388
0.000385833
0.000385452
0.000386008
0.000389691
0.000394128
0.000398055
0.000394551
0.000383616
0.000362363
0.000352639
0.000373301
0.000395125
0.000406308
0.000410007
0.000406107
0.000401734
0.000398176
0.000397821
0.000398354
0.000402041
0.00040647
0.000410389
0.000406774
0.000395675
0.000373777
0.000363396
0.000385078
0.000407407
0.000418698
0.000422521
0.000418617
0.000414268
0.00041072
0.000410394
0.000410901
0.00041458
0.000418984
0.000422905
0.000419165
0.000407957
0.00038556
0.000374639
0.000397172
0.000419874
0.000431267
0.000435242
0.000431318
0.000426987
0.000423448
0.000423149
0.000423631
0.000427303
0.000431689
0.000435628
0.000431735
0.000420424
0.000397657
0.000386298
0.000409523
0.00043252
0.000444035
0.000448166
0.000444233
0.00043991
0.000436373
0.000436102
0.00043656
0.000440231
0.000444608
0.000448555
0.000444502
0.000433069
0.000410011
0.000398302
0.000422066
0.000445353
0.000456942
0.000461209
0.000457285
0.000452987
0.000449469
0.000449227
0.000449658
0.000453312
0.000457663
0.000461598
0.000457409
0.000445901
0.000422555
0.000410574
0.000434729
0.000458306
0.000469885
0.000474255
0.00047036
0.000466112
0.000462631
0.000462423
0.000462822
0.00046644
0.00047074
0.000474644
0.00047035
0.000458852
0.000435218
0.000423034
0.000447437
0.00047127
0.000482751
0.000487192
0.000483341
0.000479166
0.00047574
0.000475568
0.000475932
0.000479495
0.000483722
0.000487581
0.000483213
0.000471813
0.000447923
0.000435598
0.000460102
0.00048411
0.000495415
0.000499897
0.000496103
0.000492017
0.000488662
0.000488528
0.000488855
0.000492348
0.000496484
0.000500286
0.000495875
0.000484648
0.000460585
0.00044818
0.000472651
0.000496694
0.00050776
0.000512257
0.000508529
0.000504547
0.000501274
0.000501178
0.000501467
0.000504879
0.000508911
0.000512647
0.000508217
0.000497226
0.00047313
0.000460702
0.000485034
0.000508921
0.000519684
0.000524175
0.000520521
0.000516656
0.00051348
0.000513421
0.000513674
0.000516988
0.000520905
0.000524566
0.00052014
0.000509447
0.000485509
0.000473108
0.00049719
0.000520739
0.000531142
0.000535604
0.00053204
0.000528307
0.000525241
0.000525217
0.000525434
0.000528639
0.000532425
0.000535996
0.000531596
0.000521257
0.000497658
0.000485352
0.000509043
0.000532115
0.000542115
0.00054653
0.00054307
0.000539481
0.000536534
0.000536544
0.000536727
0.000539813
0.000543456
0.000546923
0.000542567
0.000532625
0.000509504
0.000497367
0.000520521
0.00054302
0.000552587
0.000556939
0.000553594
0.000550158
0.000547339
0.00054738
0.000547531
0.00055049
0.000553981
0.000557335
0.000553036
0.000543522
0.000520973
0.000509069
0.000531557
0.000553419
0.000562531
0.000566811
0.000563588
0.000560312
0.000557626
0.000557696
0.000557817
0.000560643
0.000563976
0.000567208
0.000562978
0.000553912
0.000532
0.000520376
0.000542088
0.000563267
0.000571913
0.000576111
0.000573018
0.000569905
0.000567356
0.000567454
0.000567547
0.000570237
0.000573407
0.00057651
0.000572357
0.000563751
0.00054252
0.000531205
0.000552052
0.000572514
0.000580694
0.000584807
0.000581848
0.000578902
0.00057649
0.000576613
0.00057668
0.000579233
0.000582238
0.000585208
0.000581137
0.000572989
0.000552473
0.000541477
0.000561395
0.000581109
0.000588835
0.000592857
0.000590037
0.000587261
0.000584988
0.000585134
0.000585177
0.000587592
0.00059043
0.000593262
0.000589277
0.000581575
0.000561805
0.000551116
0.000570064
0.000589006
0.00059628
0.0006002
0.000597527
0.000594924
0.000592795
0.000592962
0.000592984
0.000595255
0.000597921
0.000600607
0.00059672
0.000589463
0.000570461
0.000560053
0.000577991
0.000596148
0.000602958
0.000606764
0.000604247
0.000601819
0.00059984
0.000600024
0.000600028
0.00060215
0.000604642
0.000607174
0.000603394
0.000596596
0.000578376
0.000568226
0.0005851
0.000602457
0.000608791
0.000612474
0.00061012
0.000607871
0.000606046
0.000606244
0.000606232
0.000608201
0.000610516
0.000612886
0.000609226
0.000602895
0.000585471
0.000575562
0.000591306
0.000607851
0.000613703
0.000617252
0.000615069
0.000613
0.000611332
0.000611543
0.000611518
0.000613329
0.000615465
0.000617666
0.000614135
0.000608279
0.000591663
0.000581971
0.000596524
0.000612244
0.000617611
0.000621017
0.000619012
0.000617125
0.000615618
0.000615837
0.000615803
0.000617453
0.00061941
0.000621433
0.00061804
0.000612661
0.000596867
0.000587359
0.000600668
0.00061555
0.000620434
0.000623686
0.000621869
0.000620163
0.00061882
0.000619043
0.000619002
0.000620489
0.000622266
0.000624104
0.00062086
0.000615957
0.000600996
0.00059163
0.00060365
0.000617684
0.000622088
0.000625179
0.000623555
0.00062203
0.000620852
0.000621077
0.000621033
0.000622354
0.000623953
0.000625599
0.000622511
0.00061808
0.000603962
0.000594693
0.000605383
0.000618562
0.000622492
0.000625413
0.000623991
0.000622645
0.000621634
0.000621856
0.000621813
0.000622967
0.000624389
0.000625835
0.000622912
0.000618946
0.000605679
0.000596454
0.000605785
0.000618101
0.000621567
0.000624311
0.000623097
0.000621927
0.000621084
0.0006213
0.000621261
0.000622247
0.000623495
0.000624734
0.000621984
0.000618474
0.000606064
0.000596825
0.000604773
0.000616223
0.000619239
0.000621798
0.000620798
0.0006198
0.000619125
0.000619331
0.000619301
0.000620118
0.000621195
0.000622223
0.000619651
0.000616584
0.000605037
0.000595723
0.000602274
0.000612856
0.000615436
0.000617804
0.000617023
0.000616194
0.000615686
0.000615879
0.000615859
0.000616509
0.000617419
0.00061823
0.000615844
0.000613206
0.00060252
0.000593068
0.000598216
0.000607932
0.000610093
0.000612266
0.000611707
0.000611042
0.0006107
0.000610875
0.000610871
0.000611354
0.000612103
0.000612693
0.000610497
0.00060827
0.000598446
0.000588788
0.000592536
0.000601392
0.000603152
0.000605126
0.000604792
0.000604285
0.000604107
0.000604261
0.000604275
0.000604594
0.000605187
0.000605553
0.000603551
0.000601718
0.000592749
0.000582815
0.000585178
0.000593182
0.000594562
0.000596334
0.000596227
0.00059587
0.000595853
0.000595984
0.000596019
0.000596176
0.000596621
0.000596762
0.000594957
0.000593496
0.000585374
0.000575092
0.000576091
0.000583259
0.00058428
0.00058585
0.000585969
0.000585755
0.000585895
0.000585999
0.000586058
0.000586057
0.00058636
0.000586277
0.000584669
0.00058356
0.00057627
0.000565568
0.000565236
0.000571585
0.00057227
0.000573639
0.000573982
0.000573902
0.000574195
0.00057427
0.000574355
0.000574201
0.000574371
0.000574065
0.000572655
0.000571874
0.000565399
0.000554198
0.00055258
0.000558133
0.000558508
0.000559677
0.00056024
0.000560285
0.000560725
0.00056077
0.000560883
0.00056058
0.000560626
0.000560102
0.000558886
0.00055841
0.000552726
0.000540948
0.000538096
0.000542884
0.000542974
0.00054395
0.000544726
0.000544886
0.000545466
0.000545478
0.00054562
0.000545176
0.000545108
0.000544372
0.000543346
0.000543149
0.000538227
0.000525789
0.00052177
0.000525828
0.000525659
0.000526451
0.000527429
0.000527693
0.000528405
0.000528385
0.000528557
0.000527978
0.000527807
0.000526869
0.000526024
0.000526081
0.000521885
0.000508699
0.000503588
0.000506961
0.00050656
0.000507179
0.000508346
0.000508703
0.000509539
0.000509485
0.000509687
0.000508983
0.000508719
0.000507592
0.000506917
0.000507202
0.000503688
0.000489657
0.000483541
0.000486281
0.000485673
0.000486133
0.000487474
0.000487912
0.000488862
0.000488775
0.000489005
0.000488185
0.000487841
0.000486541
0.000486021
0.000486509
0.000483627
0.000468637
0.00046161
0.000463776
0.000462986
0.000463306
0.000464801
0.000465309
0.000466361
0.000466242
0.0004665
0.000465575
0.000465161
0.000463706
0.000463324
0.000463993
0.000461683
0.000445598
0.000437761
0.00043942
0.000438472
0.000438671
0.000440298
0.000440865
0.000442005
0.000441857
0.000442139
0.000441123
0.000440649
0.000439062
0.000438799
0.000439625
0.000437822
0.000420475
0.000411937
0.000413165
0.000412077
0.00041218
0.000413914
0.000414528
0.000415741
0.000415567
0.00041587
0.000414777
0.000414254
0.00041256
0.000412392
0.000413357
0.000411987
0.000393179
0.00038406
0.000384935
0.000383729
0.00038376
0.000385571
0.000386223
0.00038749
0.000387295
0.000387612
0.000386462
0.000385899
0.000384127
0.000384031
0.000385115
0.000384099
0.000363599
0.000354033
0.000354642
0.000353336
0.000353321
0.000355175
0.000355855
0.000357152
0.000356942
0.000357268
0.000356082
0.000355488
0.000353672
0.000353622
0.000354809
0.000354063
0.000331626
0.00032177
0.000322196
0.000320814
0.000320777
0.000322636
0.000323332
0.000324633
0.000324415
0.000324741
0.000323545
0.000322931
0.000321109
0.000321082
0.000322351
0.000321792
0.000297178
0.000287211
0.000287541
0.000286107
0.000286065
0.00028789
0.00028859
0.000289862
0.000289643
0.000289961
0.000288788
0.000288166
0.000286375
0.000286356
0.000287682
0.000287226
0.000260327
0.000250485
0.000250786
0.000249337
0.000249304
0.000251049
0.000251737
0.000252943
0.000252732
0.000253033
0.000251917
0.000251301
0.000249588
0.000249564
0.000250913
0.000250494
0.000221509
0.000212097
0.000212411
0.000210996
0.000210983
0.000212596
0.000213252
0.000214355
0.000214162
0.000214434
0.000213412
0.00021282
0.000211236
0.000211197
0.000212522
0.000212102
0.000181687
0.000173063
0.000173405
0.000172085
0.000172097
0.000173526
0.000174127
0.000175092
0.000174924
0.000175159
0.000174264
0.000173719
0.000172315
0.000172258
0.0001735
0.000173065
0.000142421
0.000134945
0.000135304
0.000134143
0.000134179
0.000135379
0.000135902
0.000136699
0.000136564
0.000136754
0.000136014
0.000135537
0.000134359
0.000134285
0.000135382
0.000134945
0.000105723
9.96734e-05
0.000100024
9.90745e-05
9.91272e-05
0.00010007
0.000100496
0.000101113
0.000101011
0.000101155
0.000100583
0.000100193
9.92663e-05
9.91838e-05
0.000100084
9.96729e-05
7.36523e-05
6.91457e-05
6.94548e-05
6.87421e-05
6.87999e-05
6.94867e-05
6.98072e-05
7.02481e-05
7.01783e-05
7.02782e-05
6.987e-05
6.95758e-05
6.89005e-05
6.8821e-05
6.94981e-05
6.91452e-05
4.77514e-05
4.46961e-05
4.49378e-05
4.44531e-05
4.45048e-05
4.4964e-05
4.51837e-05
4.54731e-05
4.54294e-05
4.54932e-05
4.52257e-05
4.50235e-05
4.4572e-05
4.45059e-05
4.4967e-05
4.46959e-05
2.85808e-05
2.67124e-05
2.68782e-05
2.65823e-05
2.66209e-05
2.69008e-05
2.70367e-05
2.721e-05
2.7185e-05
2.72223e-05
2.70624e-05
2.69372e-05
2.6662e-05
2.66146e-05
2.68962e-05
2.67125e-05
1.56371e-05
1.46138e-05
1.47128e-05
1.45519e-05
1.45763e-05
1.47307e-05
1.48061e-05
1.49003e-05
1.48871e-05
1.49071e-05
1.48203e-05
1.47509e-05
1.45991e-05
1.45699e-05
1.4723e-05
1.46141e-05
7.69129e-06
7.19517e-06
7.24611e-06
7.1692e-06
7.18223e-06
7.25836e-06
7.29526e-06
7.3412e-06
7.33492e-06
7.3446e-06
7.30233e-06
7.26835e-06
7.19349e-06
7.17812e-06
7.25122e-06
7.19538e-06
3.29716e-06
3.08987e-06
3.112e-06
3.08052e-06
3.08633e-06
3.11891e-06
3.13448e-06
3.154e-06
3.15134e-06
3.15547e-06
3.13753e-06
3.12321e-06
3.09117e-06
3.08436e-06
3.11422e-06
3.09e-06
1.16878e-06
1.09817e-06
1.10594e-06
1.09549e-06
1.09762e-06
1.109e-06
1.11438e-06
1.12116e-06
1.12025e-06
1.12169e-06
1.11546e-06
1.11051e-06
1.09932e-06
1.09684e-06
1.10673e-06
1.09823e-06
3.39984e-07
3.21773e-07
3.23989e-07
3.21291e-07
3.22065e-07
3.24923e-07
3.2644e-07
3.28125e-07
3.27961e-07
3.28261e-07
3.26718e-07
3.25311e-07
3.22499e-07
3.21637e-07
3.24189e-07
3.21787e-07
2.22284e-07
2.15458e-07
2.16951e-07
2.156e-07
2.16611e-07
2.17074e-07
2.18052e-07
2.18257e-07
2.18491e-07
2.18293e-07
2.18123e-07
2.17168e-07
2.16712e-07
2.15672e-07
2.16983e-07
2.15445e-07
1.24398e-06
1.21159e-06
1.22016e-06
1.21279e-06
1.21916e-06
1.21983e-06
1.22536e-06
1.22527e-06
1.22706e-06
1.22539e-06
1.22561e-06
1.22013e-06
1.21947e-06
1.21298e-06
1.22019e-06
1.21148e-06
0.00025908
0.000250509
0.000251955
0.000247458
0.00024412
0.000242821
0.000242902
0.000243376
0.000243511
0.000243418
0.000242973
0.000242893
0.000244168
0.000247476
0.000251919
0.000250424
0.000265804
0.000256198
0.000255286
0.000250838
0.00024791
0.000247005
0.000247281
0.00024785
0.000248004
0.000247903
0.000247372
0.000247099
0.000247978
0.000250867
0.000255252
0.000256111
0.00027297
0.000262518
0.000259565
0.000255185
0.00025265
0.00025212
0.000252579
0.000253234
0.000253405
0.000253298
0.000252688
0.000252235
0.000252736
0.000255225
0.000259533
0.00026243
0.000280548
0.000269422
0.000264729
0.000260444
0.000258284
0.000258106
0.000258734
0.000259468
0.000259653
0.000259541
0.000258859
0.00025824
0.000258387
0.000260494
0.0002647
0.000269333
0.000288512
0.00027687
0.00027072
0.000266559
0.000264756
0.000264906
0.000265687
0.00026649
0.000266688
0.000266573
0.000265828
0.000265058
0.000264874
0.000266617
0.000270693
0.00027678
0.000296844
0.000284824
0.000277483
0.000273474
0.00027201
0.000272463
0.000273382
0.000274245
0.000274454
0.000274336
0.000273536
0.000272631
0.000272142
0.000273541
0.000277458
0.000284734
0.000305524
0.000293254
0.000284961
0.000281133
0.000279984
0.000280711
0.000281753
0.000282669
0.000282885
0.000282767
0.000281919
0.000280893
0.000280128
0.000281207
0.000284938
0.000293163
0.000314539
0.000302125
0.000293093
0.00028946
0.000288595
0.000289567
0.000290715
0.000291678
0.000291901
0.000291783
0.000290892
0.000289761
0.00028875
0.000289541
0.000293072
0.000302034
0.000323871
0.000311398
0.000301806
0.000298371
0.000297762
0.000298952
0.000300194
0.000301198
0.000301426
0.000301309
0.00030038
0.000299156
0.000297927
0.000298458
0.000301787
0.000311307
0.000333505
0.000321033
0.000311031
0.000307802
0.000307428
0.000308813
0.000310137
0.000311176
0.000311407
0.000311292
0.000310332
0.000309027
0.0003076
0.000307894
0.000311014
0.000320942
0.00034342
0.000330994
0.000320716
0.000317702
0.000317545
0.000319107
0.000320502
0.000321571
0.000321805
0.000321692
0.000320704
0.00031933
0.000317725
0.000317799
0.0003207
0.000330903
0.000353596
0.000341255
0.000330816
0.000328025
0.000328072
0.000329794
0.00033125
0.000332345
0.00033258
0.00033247
0.000331459
0.000330025
0.000328259
0.000328127
0.000330802
0.000341165
0.000364009
0.000351791
0.00034129
0.000338731
0.000338967
0.000340835
0.000342342
0.000343459
0.000343694
0.000343588
0.000342559
0.000341072
0.00033916
0.000338837
0.000341278
0.000351701
0.000374639
0.000362576
0.000352097
0.000349776
0.00035019
0.000352189
0.000353741
0.000354876
0.000355111
0.000355008
0.000353963
0.000352433
0.000350389
0.000349886
0.000352087
0.000362487
0.000385461
0.000373584
0.000363197
0.00036112
0.000361701
0.000363817
0.000365407
0.000366556
0.00036679
0.000366692
0.000365634
0.000364067
0.000361906
0.000361234
0.000363189
0.000373497
0.000396452
0.000384784
0.000374548
0.000372719
0.000373457
0.000375679
0.000377298
0.000378459
0.000378691
0.000378598
0.000377531
0.000375935
0.000373667
0.000372838
0.000374542
0.000384697
0.000407581
0.00039614
0.000386107
0.000384531
0.000385416
0.000387731
0.000389374
0.000390544
0.000390774
0.000390686
0.000389611
0.000387992
0.000385632
0.000384654
0.000386104
0.000396055
0.000418815
0.000407613
0.00039783
0.000396511
0.000397534
0.000399929
0.000401589
0.000402765
0.000402991
0.000402909
0.00040183
0.000400195
0.000397754
0.000396638
0.000397829
0.000407531
0.000430115
0.00041916
0.000409668
0.000408608
0.000409761
0.000412225
0.000413896
0.000415074
0.000415297
0.000415221
0.000414141
0.000412495
0.000409986
0.00040874
0.000409671
0.000419081
0.000441437
0.000430732
0.000421569
0.000420772
0.000422045
0.000424566
0.00042624
0.000427419
0.000427637
0.000427568
0.000426489
0.00042484
0.000422275
0.000420909
0.000421576
0.000430656
0.000452731
0.000442276
0.000433477
0.000432943
0.000434327
0.000436894
0.000438566
0.000439741
0.000439955
0.000439892
0.000438818
0.000437172
0.000434562
0.000433085
0.000433489
0.000442203
0.000463951
0.00045374
0.000445332
0.000445059
0.000446544
0.000449145
0.00045081
0.00045198
0.000452188
0.000452133
0.000451064
0.000449427
0.000446784
0.000445207
0.00044535
0.000453671
0.000475044
0.000465071
0.000457074
0.000457054
0.000458626
0.000461254
0.000462908
0.000464073
0.000464275
0.000464227
0.000463166
0.00046154
0.000458872
0.000457209
0.000457098
0.000465006
0.000485959
0.000476216
0.000468643
0.000468862
0.000470507
0.000473156
0.000474798
0.000475957
0.000476154
0.000476113
0.000475058
0.000473445
0.000470758
0.000469024
0.000468674
0.000476155
0.000496645
0.000487122
0.000479978
0.000480418
0.000482121
0.000484788
0.000486417
0.000487571
0.000487762
0.000487728
0.000486678
0.00048508
0.000482378
0.000480588
0.000480017
0.000487067
0.000507047
0.000497737
0.000491017
0.00049166
0.000493405
0.000496086
0.000497702
0.000498853
0.000499038
0.000499011
0.000497965
0.000496382
0.000493668
0.000491837
0.000491063
0.000497687
0.000517106
0.000507998
0.000501684
0.000502511
0.000504283
0.000506976
0.000508579
0.000509729
0.000509907
0.000509887
0.000508844
0.000507276
0.000504552
0.000502696
0.000501739
0.000507953
0.000526757
0.000517835
0.000511901
0.00051289
0.000514675
0.000517379
0.000518969
0.00052012
0.000520291
0.000520278
0.000519237
0.000517682
0.000514951
0.000513084
0.000511964
0.000517796
0.000535937
0.000527191
0.000521607
0.000522733
0.000524516
0.000527227
0.000528806
0.000529956
0.000530122
0.000530115
0.000529075
0.000527535
0.0005248
0.000522937
0.00052168
0.000527158
0.000544603
0.000536023
0.000530761
0.000532005
0.000533774
0.000536488
0.000538054
0.000539205
0.000539363
0.000539364
0.000538324
0.0005368
0.000534065
0.000532219
0.000530844
0.000535997
0.000552711
0.000544293
0.000539329
0.000540677
0.000542423
0.000545138
0.000546689
0.000547839
0.000547991
0.000547999
0.000546961
0.000545453
0.000542722
0.000540901
0.000539421
0.000544273
0.000560219
0.000551958
0.000547276
0.00054872
0.000550437
0.00055315
0.000554686
0.000555835
0.000555978
0.000555995
0.000554958
0.00055347
0.000550744
0.000548954
0.000547379
0.000551946
0.00056708
0.000558978
0.000554565
0.000556103
0.000557786
0.000560497
0.000562013
0.00056316
0.000563294
0.00056332
0.000562287
0.000560821
0.000558101
0.000556348
0.000554679
0.000558973
0.000573248
0.00056531
0.000561161
0.000562791
0.000564437
0.000567144
0.000568638
0.000569782
0.000569906
0.000569942
0.000568914
0.000567472
0.00056476
0.000563047
0.000561286
0.000565313
0.00057868
0.000570914
0.000567026
0.00056875
0.000570356
0.000573058
0.000574527
0.000575666
0.000575779
0.000575827
0.000574804
0.000573391
0.000570688
0.000569017
0.000567163
0.000570926
0.000583335
0.000575754
0.000572128
0.000573946
0.000575511
0.000578207
0.000579648
0.000580781
0.000580881
0.000580942
0.000579926
0.000578545
0.000575851
0.000574225
0.000572278
0.000575774
0.000587175
0.000579794
0.000576436
0.000578348
0.000579869
0.000582559
0.000583968
0.000585094
0.000585181
0.000585255
0.000584247
0.000582902
0.000580219
0.000578639
0.000576598
0.000579823
0.000590168
0.000583003
0.000579919
0.000581925
0.000583402
0.000586084
0.000587457
0.000588575
0.000588647
0.000588736
0.000587738
0.000586432
0.00058376
0.000582228
0.000580094
0.000583041
0.000592284
0.000585351
0.000582551
0.000584649
0.00058608
0.000588754
0.000590088
0.000591197
0.000591253
0.000591357
0.00059037
0.000589106
0.000586448
0.000584963
0.000582739
0.000585399
0.000593496
0.000586812
0.000584305
0.000586494
0.000587879
0.000590543
0.000591835
0.000592932
0.000592972
0.000593093
0.000592118
0.000590899
0.000588255
0.00058682
0.000584506
0.00058687
0.000593781
0.000587363
0.000585159
0.000587436
0.000588776
0.000591428
0.000592674
0.00059376
0.000593782
0.00059392
0.000592958
0.000591789
0.000589161
0.000587773
0.000585374
0.00058743
0.00059312
0.000586984
0.000585093
0.000587455
0.00058875
0.000591389
0.000592585
0.000593658
0.000593662
0.000593819
0.00059287
0.000591754
0.000589143
0.000587804
0.000585322
0.000587061
0.000591495
0.000585657
0.000584091
0.000586533
0.000587784
0.000590409
0.000591552
0.00059261
0.000592595
0.000592771
0.000591838
0.000590777
0.000588185
0.000586893
0.000584332
0.000585744
0.000588893
0.00058337
0.000582137
0.000584656
0.000585864
0.000588472
0.000589561
0.000590602
0.000590568
0.000590763
0.000589846
0.000588844
0.000586273
0.000585027
0.000582392
0.000583468
0.000585304
0.000580111
0.000579221
0.000581811
0.000582978
0.000585568
0.000586598
0.000587622
0.000587567
0.000587782
0.000586884
0.000585943
0.000583394
0.000582192
0.000579488
0.000580219
0.00058072
0.000575871
0.00057533
0.000577987
0.000579115
0.000581684
0.000582654
0.000583659
0.000583584
0.000583818
0.000582941
0.000582062
0.000579538
0.000578378
0.00057561
0.00057599
0.000575133
0.000570642
0.000570456
0.000573172
0.000574265
0.00057681
0.000577719
0.000578703
0.000578607
0.000578861
0.000578006
0.000577191
0.000574694
0.000573573
0.000570748
0.000570771
0.000568535
0.000564413
0.000564586
0.000567356
0.000568415
0.000570935
0.000571782
0.000572742
0.000572627
0.0005729
0.000572068
0.000571318
0.00056885
0.000567766
0.00056489
0.000564553
0.000560917
0.000557174
0.000557707
0.000560523
0.000561552
0.000564044
0.000564828
0.000565762
0.000565628
0.000565919
0.000565113
0.000564429
0.000561992
0.000560941
0.000558023
0.000557323
0.000552265
0.000548909
0.000549801
0.000552653
0.000553656
0.000556117
0.000556838
0.000557744
0.000557592
0.000557901
0.000557123
0.000556503
0.0005541
0.000553079
0.000550128
0.000549067
0.00054256
0.000539594
0.000540841
0.000543722
0.000544701
0.000547128
0.000547789
0.000548664
0.000548495
0.00054882
0.000548072
0.000547515
0.000545149
0.000544154
0.000541178
0.000539762
0.000531771
0.000529197
0.000530793
0.00053369
0.000534649
0.00053704
0.000537641
0.000538483
0.000538299
0.000538637
0.000537923
0.000537427
0.0005351
0.000534129
0.000531139
0.000529374
0.00051985
0.000517667
0.0005196
0.000522504
0.000523445
0.000525796
0.000526342
0.000527146
0.00052695
0.0005273
0.000526623
0.000526184
0.000523898
0.000522948
0.000519955
0.000517852
0.000506724
0.000504927
0.000507185
0.000510083
0.00051101
0.000513318
0.000513812
0.000514576
0.000514368
0.000514728
0.000514091
0.000513705
0.000511464
0.000510531
0.000507548
0.000505121
0.000492288
0.000490869
0.000493415
0.000496267
0.000497181
0.000499448
0.000499906
0.000500621
0.000500411
0.000500773
0.000500183
0.000499834
0.000497637
0.000496719
0.000493785
0.00049107
0.000476316
0.000475217
0.000478003
0.000480777
0.000481679
0.000483905
0.000484342
0.000485
0.000484794
0.000485151
0.000484617
0.00048429
0.000482136
0.000481233
0.000478379
0.000475424
0.000458491
0.000457667
0.000460649
0.000463324
0.000464212
0.000466395
0.000466821
0.000467416
0.000467219
0.000467566
0.000467095
0.000466781
0.00046467
0.000463783
0.000461029
0.000457878
0.000438513
0.000437936
0.000441071
0.000443634
0.000444502
0.000446642
0.000447062
0.000447589
0.000447404
0.000447738
0.000447335
0.000447026
0.00044496
0.000444094
0.000441454
0.000438151
0.000416116
0.000415767
0.000419008
0.000421448
0.000422291
0.000424383
0.000424802
0.000425255
0.000425087
0.000425403
0.000425072
0.000424764
0.000422748
0.000421908
0.000419393
0.000415985
0.000391081
0.000390939
0.000394236
0.000396542
0.000397355
0.00039939
0.000399812
0.000400187
0.000400039
0.000400334
0.000400079
0.000399767
0.000397808
0.000396999
0.00039462
0.000391157
0.000363256
0.000363299
0.000366597
0.000368759
0.000369535
0.000371502
0.000371929
0.000372225
0.000372099
0.000372369
0.00037219
0.000371873
0.000369981
0.000369209
0.000366977
0.000363516
0.000332601
0.000332804
0.000336046
0.000338051
0.000338785
0.000340668
0.000341099
0.000341315
0.000341214
0.000341455
0.000341352
0.000341029
0.00033922
0.00033849
0.000336418
0.000333016
0.000299237
0.000299571
0.000302698
0.000304532
0.000305221
0.000306999
0.000307429
0.000307571
0.000307495
0.000307705
0.000307672
0.000307345
0.000305638
0.000304954
0.000303056
0.000299776
0.000263499
0.000263936
0.000266886
0.000268536
0.000269177
0.000270824
0.000271248
0.000271322
0.000271272
0.000271449
0.000271477
0.000271151
0.00026957
0.000268934
0.000267225
0.00026413
0.000225946
0.000226449
0.000229169
0.00023062
0.000231209
0.000232699
0.00023311
0.000233124
0.000233099
0.000233241
0.00023332
0.000233
0.000231572
0.000230987
0.000229482
0.000226628
0.000187231
0.000187765
0.00019022
0.00019146
0.000191995
0.000193302
0.000193689
0.000193653
0.000193651
0.000193758
0.000193878
0.000193572
0.000192321
0.000191789
0.000190502
0.000187926
0.000148782
0.000149287
0.000151403
0.000152419
0.000152885
0.000153985
0.000154336
0.000154268
0.000154283
0.000154358
0.000154498
0.000154217
0.000153165
0.000152701
0.000151645
0.000149426
0.000112544
0.000112968
0.000114683
0.000115472
0.000115857
0.000116737
0.000117037
0.000116956
0.000116981
0.000117029
0.000117168
0.000116926
0.000116084
0.000115701
0.000114879
0.00011308
8.05088e-05
8.08277e-05
8.21197e-05
8.26978e-05
8.29932e-05
8.36552e-05
8.38933e-05
8.38182e-05
8.38451e-05
8.38738e-05
8.39932e-05
8.37987e-05
8.31657e-05
8.28713e-05
8.22685e-05
8.09124e-05
5.41923e-05
5.44081e-05
5.53053e-05
5.57014e-05
5.59112e-05
5.63751e-05
5.65491e-05
5.64902e-05
5.65136e-05
5.65294e-05
5.66196e-05
5.64762e-05
5.60326e-05
5.58232e-05
5.54097e-05
5.44672e-05
3.41955e-05
3.43288e-05
3.49004e-05
3.51539e-05
3.5291e-05
3.55919e-05
3.57082e-05
3.56684e-05
3.56857e-05
3.56939e-05
3.5754e-05
3.56576e-05
3.53696e-05
3.52327e-05
3.49679e-05
3.43669e-05
2.01359e-05
2.02123e-05
2.0546e-05
2.06971e-05
2.07793e-05
2.09594e-05
2.10302e-05
2.10068e-05
2.10178e-05
2.10221e-05
2.10576e-05
2.09986e-05
2.08262e-05
2.0744e-05
2.0586e-05
2.02349e-05