/*--------------------------------*- C++ -*----------------------------------*\
| =========                 |                                                 |
| \\      /  F ield         | OpenFOAM: The Open Source CFD Toolbox           |
|  \\    /   O peration     | Version:  v1912                                 |
|   \\  /    A nd           | Website:  www.openfoam.com                      |
|    \\/     M anipulation  |                                                 |
\*---------------------------------------------------------------------------*/
FoamFile
{
    version     2.0;
    format      ascii;
    class       volScalarField;
    location    "196.8";
    object      pPrime2Mean;
}
// * * * * * * * * * * * * * * * * * * * * * * * * * * * * * * * * * * * * * //

dimensions      [2 -2 -4 0 0 0 0];


internalField   nonuniform List<scalar> 
10147
(
1680.58
1584.84
1351.69
1393.35
1409.44
1398.18
1400.3
1404.63
1405.83
1405.12
1401.84
1401.04
1412.5
1395.36
1353.24
1585.12
1415.9
1427.57
1430.37
1433.35
1434.9
1433.91
1431.73
1429.08
1415.98
1398.27
1385.67
1306.68
1487.96
1488.54
1491.57
1489.07
1488.07
1558.65
1527.32
1665.41
1586.37
1357.29
1392.49
1409.99
1398.77
1400.39
1404.7
1405.9
1405.19
1401.94
1401.62
1413.01
1394.51
1358.8
1586.64
1652.18
1586.96
1362.7
1391.74
1410.51
1399.37
1400.49
1404.78
1405.97
1405.25
1402.05
1402.17
1413.46
1393.75
1364.17
1587.21
1640.51
1586.82
1367.94
1391.04
1410.97
1399.95
1400.6
1404.86
1406.05
1405.33
1402.16
1402.71
1413.84
1393.05
1369.35
1587.05
1630.15
1586.06
1372.99
1390.4
1411.37
1400.52
1400.7
1404.95
1406.12
1405.39
1402.27
1403.23
1414.15
1392.4
1374.35
1586.28
1620.96
1584.81
1377.82
1389.81
1411.71
1401.06
1400.81
1405.02
1406.19
1405.46
1402.37
1403.71
1414.41
1391.79
1379.12
1585.02
1612.8
1583.16
1382.42
1389.27
1411.99
1401.56
1400.91
1405.1
1406.24
1405.51
1402.47
1404.17
1414.6
1391.24
1383.68
1583.37
1605.51
1581.19
1386.8
1388.76
1412.21
1402.04
1401
1405.16
1406.29
1405.57
1402.57
1404.6
1414.73
1390.73
1388
1581.39
1598.97
1578.95
1390.95
1388.3
1412.37
1402.48
1401.09
1405.22
1406.34
1405.61
1402.66
1405
1414.81
1390.26
1392.1
1579.15
1593.08
1576.51
1394.88
1387.88
1412.48
1402.9
1401.19
1405.28
1406.37
1405.65
1402.75
1405.38
1414.83
1389.83
1395.97
1576.7
1587.74
1573.91
1398.58
1387.49
1412.53
1403.28
1401.27
1405.33
1406.4
1405.69
1402.84
1405.73
1414.81
1389.44
1399.62
1574.09
1582.85
1571.17
1402.07
1387.14
1412.54
1403.64
1401.36
1405.37
1406.42
1405.72
1402.92
1406.05
1414.73
1389.1
1403.06
1571.35
1578.37
1568.34
1405.37
1386.83
1412.5
1403.96
1401.45
1405.41
1406.43
1405.74
1403
1406.34
1414.61
1388.79
1406.3
1568.51
1574.21
1565.43
1408.47
1386.55
1412.41
1404.26
1401.54
1405.44
1406.43
1405.76
1403.08
1406.62
1414.44
1388.52
1409.34
1565.6
1570.34
1562.46
1411.39
1386.3
1412.28
1404.54
1401.62
1405.47
1406.43
1405.77
1403.16
1406.87
1414.23
1388.28
1412.21
1562.63
1566.71
1559.45
1414.13
1386.08
1412.1
1404.79
1401.71
1405.49
1406.42
1405.78
1403.24
1407.1
1413.98
1388.08
1414.9
1559.62
1563.29
1556.4
1416.72
1385.9
1411.87
1405.01
1401.8
1405.5
1406.4
1405.78
1403.32
1407.31
1413.69
1387.92
1417.43
1556.57
1560.05
1553.32
1419.14
1385.75
1411.61
1405.22
1401.9
1405.5
1406.37
1405.78
1403.4
1407.5
1413.35
1387.79
1419.81
1553.5
1556.95
1550.23
1421.43
1385.64
1411.3
1405.4
1401.99
1405.5
1406.34
1405.77
1403.48
1407.67
1412.98
1387.7
1422.04
1550.41
1553.99
1547.12
1423.57
1385.56
1410.94
1405.57
1402.09
1405.49
1406.3
1405.75
1403.57
1407.82
1412.56
1387.65
1424.13
1547.31
1551.14
1544
1425.58
1385.51
1410.54
1405.72
1402.2
1405.47
1406.26
1405.73
1403.65
1407.96
1412.11
1387.63
1426.09
1544.2
1548.38
1540.88
1427.46
1385.51
1410.1
1405.85
1402.31
1405.44
1406.21
1405.71
1403.74
1408.08
1411.62
1387.65
1427.93
1541.09
1545.7
1537.76
1429.22
1385.53
1409.63
1405.97
1402.42
1405.41
1406.16
1405.67
1403.83
1408.19
1411.09
1387.71
1429.64
1537.98
1543.1
1534.64
1430.86
1385.6
1409.12
1406.07
1402.53
1405.37
1406.1
1405.64
1403.92
1408.29
1410.54
1387.8
1431.23
1534.88
1540.56
1531.53
1432.36
1385.7
1408.58
1406.15
1402.65
1405.32
1406.04
1405.59
1404.01
1408.37
1409.96
1387.92
1432.7
1531.78
1538.08
1528.43
1433.74
1385.84
1408
1406.23
1402.77
1405.27
1405.98
1405.55
1404.11
1408.45
1409.35
1388.08
1434.04
1528.7
1535.65
1525.35
1435.01
1386.02
1407.39
1406.3
1402.9
1405.21
1405.91
1405.49
1404.21
1408.51
1408.7
1388.27
1435.27
1525.65
1533.27
1522.3
1436.18
1386.23
1406.74
1406.35
1403.03
1405.14
1405.84
1405.44
1404.31
1408.56
1408.03
1388.48
1436.4
1522.61
1530.94
1519.28
1437.25
1386.49
1406.05
1406.41
1403.16
1405.07
1405.77
1405.37
1404.41
1408.61
1407.31
1388.73
1437.44
1519.61
1528.65
1516.3
1438.24
1386.78
1405.33
1406.45
1403.3
1404.99
1405.7
1405.31
1404.52
1408.64
1406.57
1389
1438.4
1516.64
1526.4
1513.36
1439.15
1387.12
1404.57
1406.49
1403.44
1404.9
1405.63
1405.23
1404.63
1408.67
1405.79
1389.3
1439.28
1513.73
1524.2
1510.48
1439.98
1387.49
1403.78
1406.53
1403.59
1404.81
1405.55
1405.16
1404.74
1408.69
1404.99
1389.62
1440.08
1510.86
1522.04
1507.64
1440.74
1387.89
1402.96
1406.57
1403.75
1404.71
1405.47
1405.08
1404.86
1408.7
1404.16
1389.96
1440.81
1508.04
1519.93
1504.86
1441.43
1388.34
1402.11
1406.6
1403.9
1404.6
1405.39
1404.99
1404.98
1408.7
1403.3
1390.32
1441.47
1505.27
1517.87
1502.13
1442.06
1388.82
1401.24
1406.62
1404.06
1404.49
1405.31
1404.91
1405.11
1408.7
1402.43
1390.7
1442.07
1502.55
1515.84
1499.44
1442.62
1389.33
1400.35
1406.65
1404.23
1404.38
1405.23
1404.82
1405.23
1408.68
1401.54
1391.1
1442.6
1499.87
1513.85
1496.82
1443.11
1389.86
1399.46
1406.67
1404.39
1404.27
1405.15
1404.73
1405.36
1408.65
1400.64
1391.52
1443.07
1497.25
1511.89
1494.26
1443.55
1390.42
1398.55
1406.69
1404.55
1404.15
1405.07
1404.64
1405.49
1408.62
1399.75
1391.95
1443.49
1494.68
1509.97
1491.76
1443.93
1391
1397.65
1406.7
1404.72
1404.03
1404.99
1404.54
1405.63
1408.58
1398.86
1392.39
1443.85
1492.19
1508.08
1489.35
1444.25
1391.59
1396.75
1406.71
1404.89
1403.92
1404.91
1404.45
1405.76
1408.53
1397.99
1392.85
1444.16
1489.76
1506.23
1487.02
1444.53
1392.2
1395.85
1406.72
1405.05
1403.8
1404.83
1404.36
1405.89
1408.47
1397.13
1393.32
1444.42
1487.42
1504.43
1484.77
1444.75
1392.82
1394.97
1406.73
1405.21
1403.68
1404.75
1404.28
1406.03
1408.41
1396.29
1393.8
1444.64
1485.15
1502.67
1482.6
1444.93
1393.44
1394.1
1406.73
1405.37
1403.57
1404.68
1404.19
1406.17
1408.34
1395.48
1394.3
1444.83
1482.97
1500.96
1480.53
1445.07
1394.06
1393.25
1406.72
1405.53
1403.46
1404.6
1404.11
1406.3
1408.27
1394.69
1394.81
1444.98
1480.88
1499.31
1478.55
1445.17
1394.68
1392.43
1406.71
1405.69
1403.35
1404.53
1404.03
1406.43
1408.2
1393.94
1395.32
1445.1
1478.88
1497.7
1476.66
1445.23
1395.29
1391.63
1406.7
1405.84
1403.24
1404.46
1403.95
1406.57
1408.12
1393.23
1395.84
1445.2
1476.96
1496.15
1474.87
1445.26
1395.89
1390.86
1406.69
1405.99
1403.14
1404.39
1403.88
1406.7
1408.05
1392.55
1396.37
1445.27
1475.15
1494.66
1473.17
1445.27
1396.48
1390.13
1406.67
1406.13
1403.04
1404.32
1403.82
1406.82
1407.97
1391.92
1396.91
1445.33
1473.43
1493.23
1471.57
1445.25
1397.06
1389.42
1406.64
1406.27
1402.95
1404.25
1403.76
1406.95
1407.89
1391.33
1397.44
1445.37
1471.81
1491.85
1470.07
1445.21
1397.61
1388.76
1406.61
1406.4
1402.86
1404.19
1403.7
1407.07
1407.81
1390.78
1397.97
1445.39
1470.28
1490.54
1468.66
1445.15
1398.14
1388.14
1406.58
1406.53
1402.77
1404.13
1403.65
1407.19
1407.74
1390.27
1398.49
1445.4
1468.86
1489.3
1467.35
1445.08
1398.65
1387.56
1406.55
1406.65
1402.7
1404.08
1403.6
1407.3
1407.66
1389.8
1399
1445.39
1467.53
1488.12
1466.13
1444.99
1399.13
1387.02
1406.51
1406.76
1402.63
1404.02
1403.55
1407.4
1407.59
1389.38
1399.5
1445.38
1466.29
1487.01
1465.01
1444.89
1399.58
1386.52
1406.47
1406.87
1402.56
1403.97
1403.51
1407.5
1407.52
1388.99
1399.97
1445.36
1465.16
1485.97
1463.98
1444.79
1400
1386.06
1406.43
1406.97
1402.5
1403.92
1403.48
1407.6
1407.45
1388.64
1400.43
1445.33
1464.12
1485
1463.04
1444.68
1400.39
1385.65
1406.39
1407.06
1402.45
1403.88
1403.45
1407.68
1407.38
1388.33
1400.86
1445.29
1463.16
1484.1
1462.19
1444.56
1400.75
1385.28
1406.34
1407.14
1402.4
1403.84
1403.42
1407.76
1407.32
1388.06
1401.26
1445.24
1462.3
1483.27
1461.42
1444.45
1401.08
1384.95
1406.3
1407.22
1402.36
1403.8
1403.4
1407.84
1407.26
1387.81
1401.63
1445.19
1461.53
1482.52
1460.73
1444.33
1401.37
1384.66
1406.26
1407.29
1402.32
1403.77
1403.38
1407.9
1407.2
1387.6
1401.97
1445.13
1460.83
1481.83
1460.12
1444.22
1401.64
1384.41
1406.21
1407.35
1402.29
1403.74
1403.36
1407.96
1407.14
1387.42
1402.27
1445.07
1460.21
1481.21
1459.58
1444.11
1401.88
1384.19
1406.17
1407.4
1402.26
1403.71
1403.35
1408.01
1407.09
1387.26
1402.55
1445.01
1459.67
1480.65
1459.1
1444
1402.09
1384.01
1406.13
1407.45
1402.24
1403.68
1403.33
1408.06
1407.04
1387.12
1402.79
1444.94
1459.19
1480.16
1458.69
1443.9
1402.27
1383.85
1406.09
1407.49
1402.22
1403.66
1403.32
1408.1
1407
1387.01
1403
1444.87
1458.77
1479.72
1458.33
1443.8
1402.43
1383.72
1406.05
1407.52
1402.2
1403.64
1403.32
1408.13
1406.95
1386.92
1403.19
1444.81
1458.41
1479.33
1458.02
1443.71
1402.57
1383.61
1406.02
1407.55
1402.19
1403.63
1403.31
1408.16
1406.92
1386.84
1403.34
1444.74
1458.1
1478.99
1457.75
1443.63
1402.69
1383.52
1405.99
1407.58
1402.18
1403.61
1403.31
1408.19
1406.88
1386.78
1403.48
1444.68
1457.83
1478.7
1457.53
1443.55
1402.79
1383.45
1405.96
1407.6
1402.17
1403.6
1403.3
1408.21
1406.85
1386.72
1403.59
1444.62
1457.61
1478.45
1457.34
1443.49
1402.87
1383.39
1405.94
1407.62
1402.16
1403.59
1403.3
1408.23
1406.82
1386.68
1403.69
1444.56
1457.41
1478.23
1457.17
1443.42
1402.95
1383.34
1405.91
1407.63
1402.16
1403.58
1403.3
1408.24
1406.79
1386.64
1403.77
1444.51
1457.25
1478.04
1457.03
1443.37
1403.01
1383.3
1405.89
1407.65
1402.15
1403.57
1403.29
1408.26
1406.77
1386.61
1403.84
1444.47
1457.11
1477.88
1456.91
1443.32
1403.06
1383.26
1405.87
1407.66
1402.15
1403.56
1403.29
1408.27
1406.75
1386.59
1403.9
1444.43
1456.99
1477.73
1456.81
1443.28
1403.11
1383.23
1405.86
1407.67
1402.14
1403.56
1403.29
1408.28
1406.74
1386.56
1403.96
1444.39
1456.89
1477.61
1456.72
1443.24
1403.15
1383.2
1405.85
1407.68
1402.14
1403.55
1403.29
1408.29
1406.72
1386.54
1404
1444.36
1456.8
1477.51
1456.64
1443.21
1403.18
1383.17
1405.83
1407.69
1402.14
1403.55
1403.29
1408.29
1406.71
1386.52
1404.04
1444.34
1456.72
1477.42
1456.57
1443.19
1403.21
1383.14
1405.83
1407.69
1402.13
1403.54
1403.28
1408.3
1406.7
1386.5
1404.07
1444.32
1456.65
1477.35
1456.51
1443.17
1403.24
1383.12
1405.82
1407.7
1402.13
1403.54
1403.28
1408.31
1406.69
1386.49
1404.1
1444.31
1456.59
1477.29
1456.46
1443.16
1403.26
1383.1
1405.81
1407.7
1402.13
1403.53
1403.28
1408.31
1406.68
1386.47
1404.13
1444.3
1456.54
1477.24
1456.43
1443.15
1403.28
1383.08
1405.81
1407.71
1402.13
1403.53
1403.28
1408.32
1406.68
1386.46
1404.15
1444.29
1456.5
1477.21
1456.4
1443.15
1403.29
1383.07
1405.8
1407.71
1402.13
1403.53
1403.28
1408.32
1406.68
1386.45
1404.16
1444.29
1456.48
1477.19
1456.39
1443.15
1403.3
1383.06
1405.8
1407.71
1402.12
1403.53
1403.28
1408.32
1406.67
1386.44
1404.17
1444.3
1456.46
1248.44
1310.46
1388.19
1401.2
1415.91
1427.58
1430.56
1433.48
1435
1434.03
1431.91
1429.05
1415.97
1398.8
1384.27
1306.93
1253.51
1310.9
1386.92
1401.69
1416
1427.64
1430.78
1433.63
1435.11
1434.16
1432.11
1429.05
1416.02
1399.33
1383.07
1307.46
1258.31
1311.54
1385.81
1402.17
1416.15
1427.73
1431.01
1433.79
1435.23
1434.3
1432.31
1429.08
1416.12
1399.85
1382.03
1308.2
1262.88
1312.36
1384.83
1402.63
1416.34
1427.85
1431.25
1433.95
1435.36
1434.44
1432.52
1429.12
1416.26
1400.36
1381.12
1309.12
1267.26
1313.33
1383.99
1403.09
1416.57
1427.98
1431.49
1434.13
1435.49
1434.59
1432.74
1429.18
1416.44
1400.87
1380.35
1310.19
1271.46
1314.43
1383.27
1403.54
1416.83
1428.12
1431.74
1434.31
1435.63
1434.74
1432.96
1429.26
1416.66
1401.36
1379.69
1311.39
1275.51
1315.65
1382.67
1403.99
1417.12
1428.28
1431.99
1434.49
1435.77
1434.9
1433.18
1429.36
1416.9
1401.86
1379.16
1312.72
1279.44
1316.99
1382.18
1404.43
1417.43
1428.45
1432.24
1434.67
1435.91
1435.06
1433.4
1429.47
1417.17
1402.35
1378.73
1314.15
1283.26
1318.42
1381.8
1404.86
1417.77
1428.64
1432.5
1434.86
1436.06
1435.23
1433.63
1429.6
1417.46
1402.83
1378.4
1315.67
1286.98
1319.94
1381.51
1405.3
1418.14
1428.83
1432.76
1435.05
1436.21
1435.39
1433.86
1429.75
1417.78
1403.32
1378.16
1317.29
1290.62
1321.54
1381.32
1405.74
1418.52
1429.04
1433.02
1435.24
1436.36
1435.56
1434.1
1429.91
1418.11
1403.81
1378.02
1318.97
1294.19
1323.22
1381.21
1406.18
1418.92
1429.26
1433.28
1435.43
1436.52
1435.73
1434.34
1430.08
1418.47
1404.31
1377.95
1320.73
1297.69
1324.95
1381.19
1406.62
1419.33
1429.49
1433.54
1435.63
1436.68
1435.91
1434.58
1430.27
1418.84
1404.81
1377.97
1322.55
1301.14
1326.74
1381.23
1407.07
1419.76
1429.73
1433.81
1435.82
1436.84
1436.09
1434.82
1430.48
1419.23
1405.31
1378.06
1324.42
1304.53
1328.59
1381.35
1407.52
1420.21
1429.99
1434.08
1436.02
1437.01
1436.27
1435.06
1430.7
1419.63
1405.82
1378.21
1326.34
1307.88
1330.47
1381.53
1407.97
1420.67
1430.26
1434.35
1436.22
1437.18
1436.45
1435.31
1430.94
1420.05
1406.33
1378.43
1328.31
1311.18
1332.4
1381.78
1408.42
1421.14
1430.53
1434.62
1436.42
1437.35
1436.63
1435.56
1431.18
1420.48
1406.84
1378.71
1330.31
1314.44
1334.36
1382.08
1408.88
1421.61
1430.82
1434.9
1436.61
1437.53
1436.82
1435.8
1431.45
1420.92
1407.36
1379.04
1332.34
1317.66
1336.34
1382.43
1409.33
1422.1
1431.11
1435.17
1436.81
1437.71
1437.01
1436.05
1431.72
1421.37
1407.88
1379.42
1334.41
1320.84
1338.35
1382.82
1409.79
1422.59
1431.42
1435.44
1437.01
1437.89
1437.2
1436.3
1432
1421.83
1408.4
1379.85
1336.49
1323.99
1340.38
1383.26
1410.25
1423.09
1431.73
1435.72
1437.21
1438.07
1437.39
1436.54
1432.29
1422.3
1408.92
1380.32
1338.59
1327.09
1342.43
1383.74
1410.71
1423.59
1432.05
1435.99
1437.4
1438.25
1437.58
1436.78
1432.6
1422.77
1409.44
1380.83
1340.71
1330.16
1344.48
1384.26
1411.17
1424.1
1432.38
1436.26
1437.6
1438.44
1437.77
1437.02
1432.91
1423.25
1409.95
1381.38
1342.83
1333.18
1346.54
1384.8
1411.63
1424.6
1432.72
1436.52
1437.79
1438.62
1437.96
1437.26
1433.23
1423.73
1410.45
1381.96
1344.96
1336.17
1348.6
1385.37
1412.08
1425.11
1433.06
1436.79
1437.99
1438.8
1438.15
1437.49
1433.55
1424.22
1410.95
1382.56
1347.08
1339.11
1350.66
1385.97
1412.53
1425.61
1433.4
1437.05
1438.18
1438.99
1438.34
1437.72
1433.88
1424.71
1411.44
1383.19
1349.21
1342
1352.71
1386.59
1412.98
1426.11
1433.75
1437.31
1438.36
1439.17
1438.53
1437.94
1434.22
1425.19
1411.91
1383.85
1351.32
1344.85
1354.75
1387.22
1413.42
1426.6
1434.1
1437.56
1438.55
1439.35
1438.72
1438.16
1434.55
1425.68
1412.37
1384.52
1353.42
1347.65
1356.78
1387.88
1413.85
1427.09
1434.46
1437.81
1438.73
1439.53
1438.9
1438.37
1434.89
1426.16
1412.82
1385.21
1355.5
1350.4
1358.79
1388.54
1414.28
1427.58
1434.82
1438.06
1438.91
1439.7
1439.09
1438.57
1435.23
1426.64
1413.25
1385.91
1357.56
1353.09
1360.78
1389.21
1414.7
1428.05
1435.17
1438.3
1439.09
1439.87
1439.27
1438.77
1435.56
1427.12
1413.66
1386.62
1359.59
1355.73
1362.74
1389.89
1415.11
1428.52
1435.53
1438.53
1439.27
1440.04
1439.45
1438.96
1435.9
1427.59
1414.05
1387.34
1361.59
1358.3
1364.68
1390.57
1415.51
1428.98
1435.88
1438.76
1439.44
1440.2
1439.63
1439.15
1436.23
1428.05
1414.42
1388.06
1363.56
1360.82
1366.58
1391.25
1415.9
1429.43
1436.24
1438.98
1439.61
1440.36
1439.81
1439.33
1436.55
1428.51
1414.78
1388.78
1365.49
1363.27
1368.44
1391.94
1416.29
1429.87
1436.59
1439.19
1439.77
1440.52
1439.98
1439.51
1436.88
1428.96
1415.12
1389.51
1367.38
1365.65
1370.27
1392.62
1416.66
1430.3
1436.93
1439.4
1439.93
1440.67
1440.16
1439.68
1437.19
1429.4
1415.44
1390.24
1369.22
1367.96
1372.05
1393.29
1417.02
1430.71
1437.27
1439.61
1440.09
1440.82
1440.32
1439.84
1437.5
1429.84
1415.75
1390.96
1371.02
1370.2
1373.79
1393.95
1417.37
1431.11
1437.61
1439.8
1440.24
1440.96
1440.49
1440
1437.8
1430.26
1416.04
1391.68
1372.77
1372.36
1375.48
1394.61
1417.71
1431.5
1437.93
1439.99
1440.38
1441.09
1440.65
1440.15
1438.09
1430.68
1416.32
1392.39
1374.47
1374.45
1377.12
1395.26
1418.03
1431.87
1438.25
1440.17
1440.52
1441.22
1440.81
1440.3
1438.37
1431.09
1416.58
1393.09
1376.11
1376.46
1378.71
1395.89
1418.34
1432.23
1438.56
1440.34
1440.66
1441.35
1440.96
1440.44
1438.65
1431.48
1416.83
1393.78
1377.7
1378.39
1380.24
1396.5
1418.64
1432.57
1438.86
1440.51
1440.79
1441.47
1441.11
1440.58
1438.91
1431.86
1417.08
1394.47
1379.23
1380.24
1381.71
1397.1
1418.93
1432.9
1439.15
1440.67
1440.91
1441.59
1441.26
1440.71
1439.17
1432.24
1417.31
1395.13
1380.7
1382.01
1383.13
1397.69
1419.2
1433.21
1439.44
1440.82
1441.03
1441.7
1441.4
1440.84
1439.42
1432.59
1417.54
1395.79
1382.11
1383.7
1384.48
1398.25
1419.46
1433.51
1439.7
1440.96
1441.15
1441.8
1441.54
1440.96
1439.65
1432.94
1417.75
1396.42
1383.46
1385.3
1385.77
1398.79
1419.71
1433.78
1439.96
1441.1
1441.26
1441.9
1441.67
1441.08
1439.88
1433.27
1417.97
1397.04
1384.75
1386.82
1387
1399.31
1419.94
1434.05
1440.21
1441.23
1441.36
1442
1441.79
1441.19
1440.09
1433.58
1418.17
1397.64
1385.97
1388.25
1388.16
1399.81
1420.16
1434.29
1440.44
1441.35
1441.46
1442.09
1441.91
1441.3
1440.3
1433.88
1418.36
1398.21
1387.13
1389.59
1389.25
1400.29
1420.36
1434.52
1440.66
1441.46
1441.55
1442.17
1442.03
1441.4
1440.49
1434.16
1418.55
1398.76
1388.22
1390.84
1390.28
1400.74
1420.56
1434.74
1440.86
1441.57
1441.63
1442.25
1442.13
1441.49
1440.67
1434.43
1418.73
1399.28
1389.24
1392.01
1391.24
1401.16
1420.74
1434.94
1441.05
1441.67
1441.71
1442.33
1442.23
1441.58
1440.84
1434.67
1418.89
1399.78
1390.2
1393.09
1392.13
1401.56
1420.9
1435.12
1441.23
1441.76
1441.78
1442.39
1442.32
1441.67
1441
1434.9
1419.05
1400.24
1391.08
1394.09
1392.96
1401.93
1421.06
1435.28
1441.39
1441.85
1441.85
1442.46
1442.41
1441.74
1441.14
1435.11
1419.21
1400.68
1391.91
1395
1393.72
1402.28
1421.2
1435.44
1441.54
1441.93
1441.91
1442.51
1442.49
1441.82
1441.28
1435.3
1419.35
1401.09
1392.66
1395.83
1394.41
1402.6
1421.33
1435.57
1441.68
1442
1441.96
1442.57
1442.56
1441.88
1441.4
1435.47
1419.48
1401.46
1393.36
1396.58
1395.03
1402.9
1421.44
1435.69
1441.8
1442.06
1442.01
1442.61
1442.62
1441.94
1441.51
1435.62
1419.6
1401.8
1393.98
1397.25
1395.59
1403.16
1421.55
1435.8
1441.91
1442.12
1442.06
1442.66
1442.67
1441.99
1441.61
1435.76
1419.7
1402.11
1394.54
1397.83
1396.09
1403.4
1421.64
1435.89
1442
1442.17
1442.1
1442.69
1442.72
1442.04
1441.69
1435.88
1419.8
1402.39
1395.04
1398.35
1396.53
1403.62
1421.72
1435.98
1442.09
1442.21
1442.13
1442.73
1442.77
1442.08
1441.77
1435.98
1419.89
1402.64
1395.48
1398.8
1396.92
1403.81
1421.8
1436.05
1442.16
1442.25
1442.16
1442.75
1442.8
1442.12
1441.84
1436.07
1419.97
1402.86
1395.87
1399.2
1397.26
1403.99
1421.86
1436.11
1442.23
1442.29
1442.19
1442.78
1442.83
1442.15
1441.9
1436.15
1420.04
1403.06
1396.21
1399.56
1397.57
1404.14
1421.92
1436.17
1442.28
1442.32
1442.21
1442.8
1442.86
1442.18
1441.95
1436.22
1420.1
1403.24
1396.52
1399.86
1397.83
1404.28
1421.98
1436.21
1442.33
1442.35
1442.23
1442.82
1442.89
1442.21
1441.99
1436.28
1420.15
1403.4
1396.78
1400.13
1398.07
1404.41
1422.02
1436.26
1442.38
1442.37
1442.25
1442.84
1442.91
1442.23
1442.03
1436.33
1420.2
1403.54
1397.02
1400.37
1398.28
1404.52
1422.06
1436.29
1442.42
1442.39
1442.26
1442.85
1442.93
1442.25
1442.07
1436.38
1420.24
1403.66
1397.23
1400.58
1398.46
1404.61
1422.1
1436.33
1442.45
1442.41
1442.28
1442.87
1442.94
1442.27
1442.1
1436.42
1420.28
1403.77
1397.41
1400.75
1398.62
1404.7
1422.13
1436.36
1442.48
1442.43
1442.29
1442.88
1442.96
1442.28
1442.13
1436.45
1420.32
1403.87
1397.57
1400.91
1398.76
1404.77
1422.16
1436.38
1442.51
1442.44
1442.3
1442.89
1442.97
1442.3
1442.15
1436.48
1420.35
1403.95
1397.71
1401.05
1398.88
1404.84
1422.19
1436.4
1442.53
1442.45
1442.31
1442.9
1442.98
1442.31
1442.17
1436.51
1420.37
1404.02
1397.83
1401.17
1398.98
1404.9
1422.21
1436.42
1442.55
1442.47
1442.32
1442.9
1442.99
1442.32
1442.19
1436.53
1420.39
1404.09
1397.94
1401.27
1399.08
1404.95
1422.23
1436.44
1442.57
1442.47
1442.32
1442.91
1443
1442.33
1442.21
1436.56
1420.41
1404.14
1398.03
1401.37
1399.16
1404.99
1422.24
1436.46
1442.58
1442.48
1442.33
1442.92
1443.01
1442.34
1442.22
1436.58
1420.43
1404.19
1398.11
1401.45
1399.23
1405.02
1422.26
1436.47
1442.6
1442.49
1442.33
1442.92
1443.01
1442.34
1442.23
1436.6
1420.45
1404.23
1398.18
1401.52
1399.29
1405.06
1422.27
1436.48
1442.61
1442.5
1442.34
1442.93
1443.02
1442.35
1442.24
1436.61
1420.46
1404.27
1398.25
1401.59
1399.35
1405.08
1422.28
1436.5
1442.62
1442.5
1442.34
1442.93
1443.02
1442.35
1442.25
1436.63
1420.47
1404.3
1398.3
1401.64
1399.39
1405.1
1422.29
1436.5
1442.63
1442.51
1442.35
1442.93
1443.03
1442.36
1442.26
1436.64
1420.48
1404.32
1398.35
1401.68
1399.42
1405.12
1422.29
1436.51
1442.64
1442.51
1442.35
1442.94
1443.03
1442.36
1442.27
1436.64
1420.48
1404.34
1398.38
1401.71
1399.45
1405.13
1422.29
1436.51
1442.64
1442.51
1442.35
1442.94
1443.03
1442.36
1442.27
1436.65
1420.49
1404.35
1398.4
1401.73
1399.46
1405.13
1422.3
1436.52
1442.64
1442.51
1442.35
1442.94
1443.04
1442.36
1442.27
1436.65
1420.49
1404.36
1398.42
1584.5
1564.32
1498.87
1498.5
1499.31
1494.23
1491.12
1490.08
1489.47
1488.6
1487.93
1488.57
1491.49
1488.76
1489.41
1558.12
1580.13
1563.46
1500.02
1498.14
1499.18
1494.23
1491.09
1490.06
1489.45
1488.58
1487.9
1488.6
1491.39
1488.48
1490.66
1557.36
1576.14
1562.42
1501.07
1497.76
1499.02
1494.2
1491.06
1490.05
1489.44
1488.56
1487.88
1488.62
1491.27
1488.21
1491.84
1556.42
1572.46
1561.22
1502.03
1497.37
1498.83
1494.17
1491.04
1490.04
1489.43
1488.55
1487.84
1488.63
1491.14
1487.95
1492.92
1555.33
1569.07
1559.9
1502.89
1496.99
1498.63
1494.12
1491
1490.03
1489.42
1488.53
1487.81
1488.63
1490.98
1487.68
1493.92
1554.11
1565.92
1558.48
1503.66
1496.6
1498.41
1494.06
1490.97
1490.01
1489.41
1488.51
1487.77
1488.61
1490.8
1487.42
1494.82
1552.78
1562.98
1556.97
1504.34
1496.22
1498.16
1493.99
1490.93
1490
1489.4
1488.48
1487.73
1488.59
1490.61
1487.15
1495.62
1551.37
1560.24
1555.4
1504.93
1495.83
1497.91
1493.91
1490.88
1489.97
1489.38
1488.45
1487.69
1488.55
1490.4
1486.89
1496.34
1549.89
1557.65
1553.77
1505.44
1495.45
1497.63
1493.82
1490.83
1489.95
1489.36
1488.42
1487.64
1488.5
1490.17
1486.62
1496.96
1548.36
1555.21
1552.1
1505.87
1495.07
1497.34
1493.72
1490.77
1489.92
1489.33
1488.39
1487.59
1488.43
1489.93
1486.35
1497.5
1546.78
1552.88
1550.4
1506.23
1494.7
1497.04
1493.61
1490.72
1489.88
1489.31
1488.35
1487.53
1488.36
1489.67
1486.09
1497.96
1545.16
1550.66
1548.67
1506.5
1494.32
1496.72
1493.49
1490.65
1489.84
1489.28
1488.3
1487.48
1488.27
1489.39
1485.82
1498.34
1543.52
1548.53
1546.91
1506.71
1493.95
1496.39
1493.35
1490.59
1489.8
1489.24
1488.26
1487.41
1488.18
1489.1
1485.55
1498.64
1541.85
1546.47
1545.15
1506.86
1493.58
1496.04
1493.21
1490.52
1489.76
1489.2
1488.21
1487.35
1488.07
1488.8
1485.28
1498.88
1540.16
1544.48
1543.37
1506.94
1493.21
1495.69
1493.06
1490.45
1489.71
1489.16
1488.15
1487.28
1487.96
1488.49
1485.01
1499.04
1538.46
1542.55
1541.58
1506.96
1492.85
1495.32
1492.9
1490.37
1489.65
1489.12
1488.1
1487.22
1487.83
1488.16
1484.75
1499.15
1536.75
1540.66
1539.79
1506.92
1492.49
1494.94
1492.73
1490.29
1489.6
1489.07
1488.04
1487.14
1487.7
1487.82
1484.48
1499.19
1535.03
1538.82
1537.99
1506.83
1492.14
1494.55
1492.56
1490.21
1489.54
1489.02
1487.98
1487.07
1487.56
1487.47
1484.22
1499.18
1533.31
1537.02
1536.2
1506.69
1491.79
1494.16
1492.38
1490.13
1489.48
1488.97
1487.91
1487
1487.41
1487.11
1483.96
1499.11
1531.58
1535.25
1534.4
1506.5
1491.45
1493.75
1492.19
1490.05
1489.42
1488.91
1487.85
1486.92
1487.25
1486.74
1483.71
1498.99
1529.86
1533.51
1532.62
1506.26
1491.12
1493.34
1492
1489.97
1489.35
1488.85
1487.78
1486.84
1487.09
1486.37
1483.46
1498.83
1528.14
1531.79
1530.84
1505.99
1490.79
1492.92
1491.8
1489.88
1489.28
1488.79
1487.72
1486.76
1486.92
1485.99
1483.21
1498.62
1526.43
1530.11
1529.08
1505.67
1490.47
1492.5
1491.59
1489.8
1489.21
1488.73
1487.65
1486.68
1486.74
1485.6
1482.97
1498.38
1524.73
1528.45
1527.33
1505.33
1490.17
1492.07
1491.39
1489.72
1489.14
1488.66
1487.58
1486.6
1486.56
1485.21
1482.74
1498.09
1523.05
1526.81
1525.6
1504.95
1489.87
1491.64
1491.18
1489.63
1489.07
1488.6
1487.51
1486.52
1486.38
1484.82
1482.51
1497.78
1521.37
1525.19
1523.89
1504.54
1489.58
1491.2
1490.96
1489.55
1488.99
1488.53
1487.44
1486.44
1486.19
1484.42
1482.28
1497.43
1519.72
1523.6
1522.2
1504.1
1489.3
1490.77
1490.75
1489.47
1488.92
1488.46
1487.36
1486.36
1486
1484.02
1482.06
1497.06
1518.08
1522.03
1520.53
1503.64
1489.03
1490.33
1490.53
1489.38
1488.85
1488.38
1487.29
1486.28
1485.8
1483.63
1481.85
1496.66
1516.47
1520.49
1518.89
1503.16
1488.78
1489.89
1490.32
1489.3
1488.77
1488.31
1487.22
1486.2
1485.61
1483.23
1481.64
1496.24
1514.88
1518.97
1517.29
1502.67
1488.53
1489.46
1490.1
1489.22
1488.7
1488.23
1487.15
1486.12
1485.41
1482.84
1481.44
1495.81
1513.32
1517.47
1515.71
1502.16
1488.3
1489.03
1489.88
1489.14
1488.62
1488.16
1487.08
1486.04
1485.21
1482.45
1481.25
1495.35
1511.78
1516.01
1514.17
1501.63
1488.07
1488.6
1489.67
1489.07
1488.55
1488.08
1487.01
1485.96
1485.01
1482.07
1481.06
1494.89
1510.28
1514.57
1512.67
1501.1
1487.86
1488.18
1489.45
1488.99
1488.48
1488.01
1486.95
1485.88
1484.81
1481.69
1480.88
1494.42
1508.82
1513.16
1511.2
1500.56
1487.66
1487.77
1489.24
1488.92
1488.4
1487.93
1486.88
1485.81
1484.61
1481.32
1480.7
1493.93
1507.38
1511.79
1509.77
1500.02
1487.47
1487.36
1489.04
1488.85
1488.33
1487.85
1486.82
1485.74
1484.41
1480.96
1480.53
1493.45
1505.99
1510.45
1508.39
1499.47
1487.28
1486.96
1488.83
1488.78
1488.26
1487.78
1486.75
1485.67
1484.22
1480.6
1480.37
1492.96
1504.64
1509.14
1507.05
1498.93
1487.11
1486.57
1488.63
1488.71
1488.19
1487.7
1486.69
1485.6
1484.02
1480.26
1480.21
1492.47
1503.33
1507.86
1505.76
1498.39
1486.95
1486.2
1488.43
1488.64
1488.13
1487.63
1486.63
1485.53
1483.83
1479.93
1480.06
1491.99
1502.06
1506.63
1504.51
1497.85
1486.8
1485.83
1488.24
1488.58
1488.06
1487.56
1486.58
1485.47
1483.64
1479.61
1479.92
1491.51
1500.83
1505.43
1503.31
1497.32
1486.65
1485.48
1488.05
1488.52
1488
1487.49
1486.52
1485.4
1483.46
1479.3
1479.79
1491.04
1499.65
1504.27
1502.16
1496.8
1486.52
1485.14
1487.87
1488.46
1487.94
1487.42
1486.47
1485.35
1483.28
1479
1479.66
1490.57
1498.52
1503.15
1501.06
1496.3
1486.39
1484.81
1487.69
1488.4
1487.88
1487.35
1486.42
1485.29
1483.11
1478.72
1479.53
1490.12
1497.44
1502.08
1500.01
1495.8
1486.27
1484.5
1487.52
1488.35
1487.83
1487.29
1486.37
1485.23
1482.94
1478.45
1479.42
1489.68
1496.41
1501.05
1499.01
1495.33
1486.15
1484.2
1487.36
1488.3
1487.77
1487.23
1486.33
1485.18
1482.78
1478.2
1479.31
1489.25
1495.43
1500.07
1498.07
1494.87
1486.05
1483.92
1487.2
1488.25
1487.72
1487.17
1486.28
1485.13
1482.63
1477.96
1479.21
1488.84
1494.5
1499.14
1497.18
1494.42
1485.95
1483.66
1487.05
1488.2
1487.67
1487.11
1486.24
1485.09
1482.48
1477.73
1479.11
1488.45
1493.62
1498.26
1496.35
1494
1485.86
1483.41
1486.91
1488.16
1487.63
1487.06
1486.2
1485.04
1482.34
1477.52
1479.02
1488.07
1492.8
1497.42
1495.56
1493.6
1485.77
1483.18
1486.78
1488.11
1487.58
1487.01
1486.17
1485
1482.2
1477.32
1478.94
1487.71
1492.03
1496.64
1494.83
1493.21
1485.69
1482.96
1486.65
1488.08
1487.54
1486.96
1486.13
1484.96
1482.08
1477.14
1478.86
1487.36
1491.31
1495.91
1494.15
1492.85
1485.61
1482.76
1486.53
1488.04
1487.51
1486.91
1486.1
1484.93
1481.96
1476.97
1478.79
1487.04
1490.64
1495.23
1493.53
1492.51
1485.54
1482.58
1486.42
1488
1487.47
1486.87
1486.07
1484.89
1481.85
1476.82
1478.72
1486.74
1490.02
1494.61
1492.96
1492.2
1485.48
1482.42
1486.32
1487.97
1487.44
1486.83
1486.05
1484.86
1481.75
1476.68
1478.66
1486.46
1489.47
1494.04
1492.45
1491.91
1485.42
1482.27
1486.22
1487.94
1487.41
1486.8
1486.02
1484.83
1481.66
1476.55
1478.61
1486.2
1488.96
1493.52
1491.99
1491.65
1485.36
1482.13
1486.14
1487.92
1487.38
1486.77
1486
1484.81
1481.57
1476.44
1478.56
1485.96
1488.5
1493.05
1491.57
1491.41
1485.31
1482.01
1486.06
1487.89
1487.36
1486.74
1485.98
1484.78
1481.49
1476.34
1478.51
1485.75
1488.09
1492.62
1491.19
1491.19
1485.27
1481.91
1485.99
1487.87
1487.34
1486.71
1485.96
1484.76
1481.42
1476.25
1478.47
1485.55
1487.71
1492.24
1490.85
1490.98
1485.22
1481.81
1485.92
1487.85
1487.32
1486.69
1485.94
1484.74
1481.36
1476.17
1478.43
1485.37
1487.38
1491.89
1490.54
1490.8
1485.19
1481.73
1485.86
1487.83
1487.3
1486.67
1485.93
1484.72
1481.3
1476.1
1478.39
1485.2
1487.08
1491.57
1490.27
1490.64
1485.15
1481.65
1485.81
1487.81
1487.28
1486.65
1485.91
1484.71
1481.25
1476.04
1478.36
1485.05
1486.81
1491.29
1490.03
1490.49
1485.12
1481.59
1485.76
1487.79
1487.27
1486.63
1485.9
1484.69
1481.2
1475.99
1478.33
1484.92
1486.57
1491.03
1489.81
1490.35
1485.09
1481.53
1485.72
1487.78
1487.26
1486.61
1485.89
1484.68
1481.16
1475.94
1478.31
1484.79
1486.36
1490.81
1489.62
1490.23
1485.06
1481.48
1485.68
1487.77
1487.25
1486.6
1485.88
1484.66
1481.12
1475.89
1478.28
1484.68
1486.17
1490.6
1489.44
1490.12
1485.04
1481.43
1485.65
1487.76
1487.24
1486.59
1485.87
1484.65
1481.09
1475.86
1478.26
1484.58
1486
1490.42
1489.29
1490.02
1485.02
1481.39
1485.62
1487.75
1487.23
1486.58
1485.86
1484.64
1481.06
1475.82
1478.24
1484.5
1485.85
1490.26
1489.16
1489.93
1485
1481.35
1485.59
1487.74
1487.22
1486.57
1485.86
1484.64
1481.03
1475.79
1478.23
1484.42
1485.72
1490.12
1489.04
1489.86
1484.98
1481.32
1485.56
1487.73
1487.21
1486.56
1485.85
1484.63
1481.01
1475.77
1478.21
1484.35
1485.6
1489.99
1488.93
1489.79
1484.97
1481.3
1485.54
1487.72
1487.21
1486.55
1485.85
1484.62
1480.98
1475.74
1478.2
1484.28
1485.5
1489.88
1488.84
1489.73
1484.95
1481.27
1485.52
1487.72
1487.2
1486.54
1485.84
1484.62
1480.97
1475.72
1478.19
1484.23
1485.41
1489.79
1488.76
1489.68
1484.94
1481.25
1485.51
1487.71
1487.2
1486.54
1485.84
1484.61
1480.95
1475.71
1478.18
1484.18
1485.33
1489.71
1488.7
1489.63
1484.93
1481.23
1485.49
1487.71
1487.19
1486.53
1485.83
1484.61
1480.93
1475.69
1478.17
1484.14
1485.27
1489.63
1488.63
1489.59
1484.92
1481.22
1485.48
1487.7
1487.19
1486.53
1485.83
1484.6
1480.92
1475.68
1478.16
1484.1
1485.21
1489.56
1488.58