0 	0 	0 	0
5.01672e-05 	-2.39696e-05 	-4.70546e-06 	0.0203972
0.000100334 	-4.79393e-05 	-9.41093e-06 	0.0407944
0.000150502 	-7.19089e-05 	-1.41164e-05 	0.0611917
0.000200669 	-9.58786e-05 	-1.88219e-05 	0.0815889
0.000250836 	-0.000119848 	-2.35273e-05 	0.101986
0.000301003 	-0.000143818 	-2.82328e-05 	0.122383
0.000351171 	-0.000165509 	-3.36669e-05 	0.14066
0.000401338 	-0.000178585 	-4.18563e-05 	0.150915
0.000451505 	-0.000191661 	-5.00458e-05 	0.161171
0.000501672 	-0.000204737 	-5.82352e-05 	0.171427
0.000551839 	-0.000217814 	-6.64246e-05 	0.181683
0.000602007 	-0.00023089 	-7.46141e-05 	0.191939
0.000652174 	-0.000243966 	-8.28035e-05 	0.202195
0.000702341 	-0.000257042 	-9.0993e-05 	0.21245
0.000752508 	-0.000267196 	-9.9399e-05 	0.221284
0.000802676 	-0.000270107 	-0.000108342 	0.226592
0.000852843 	-0.000273017 	-0.000117285 	0.2319
0.00090301 	-0.000275928 	-0.000126228 	0.237207
0.000953177 	-0.000278838 	-0.000135171 	0.242515
0.00100334 	-0.000281748 	-0.000144115 	0.247823
0.00105351 	-0.000284659 	-0.000153058 	0.25313
0.00110368 	-0.000287569 	-0.000162001 	0.258438
0.00115385 	-0.00029048 	-0.000170944 	0.263745
0.00120401 	-0.000293182 	-0.000179841 	0.268947
0.00125418 	-0.000291606 	-0.000187788 	0.27198
0.00130435 	-0.00029003 	-0.000195736 	0.275013
0.00135452 	-0.000288454 	-0.000203683 	0.278045
0.00140468 	-0.000286878 	-0.00021163 	0.281078
0.00145485 	-0.000285302 	-0.000219578 	0.28411
0.00150502 	-0.000283726 	-0.000227525 	0.287143
0.00155518 	-0.00028215 	-0.000235473 	0.290175
0.00160535 	-0.000280574 	-0.00024342 	0.293208
0.00165552 	-0.000278998 	-0.000251368 	0.29624
0.00170569 	-0.000277422 	-0.000259315 	0.299273
0.00175585 	-0.000275586 	-0.000266834 	0.302015
0.00180602 	-0.000273036 	-0.000273175 	0.303959
0.00185619 	-0.000270486 	-0.000279516 	0.305903
0.00190635 	-0.000267936 	-0.000285857 	0.307847
0.00195652 	-0.000265386 	-0.000292198 	0.30979
0.00200669 	-0.000262836 	-0.000298539 	0.311734
0.00205686 	-0.000260285 	-0.00030488 	0.313678
0.00210702 	-0.000257735 	-0.000311221 	0.315622
0.00215719 	-0.000255185 	-0.000317562 	0.317566
0.00220736 	-0.000252635 	-0.000323903 	0.319509
0.00225753 	-0.000250085 	-0.000330243 	0.321453
0.00230769 	-0.000247535 	-0.000336584 	0.323397
0.00235786 	-0.000244985 	-0.000342925 	0.325341
0.00240803 	-0.000242706 	-0.000348056 	0.326848
0.00245819 	-0.000240547 	-0.000352647 	0.328161
0.00250836 	-0.000238389 	-0.000357238 	0.329473
0.00255853 	-0.000236231 	-0.000361829 	0.330786
0.0026087 	-0.000234072 	-0.00036642 	0.332099
0.00265886 	-0.000231914 	-0.000371012 	0.333411
0.00270903 	-0.000229755 	-0.000375603 	0.334724
0.0027592 	-0.000227597 	-0.000380194 	0.336037
0.00280936 	-0.000225439 	-0.000384785 	0.337349
0.00285953 	-0.00022328 	-0.000389376 	0.338662
0.0029097 	-0.000221122 	-0.000393967 	0.339975
0.00295987 	-0.000218964 	-0.000398558 	0.341287
0.00301003 	-0.000216805 	-0.000403149 	0.3426
0.0030602 	-0.000214647 	-0.00040774 	0.343913
0.00311037 	-0.000212503 	-0.000412301 	0.345215
0.00316054 	-0.000211011 	-0.000415519 	0.346095
0.0032107 	-0.000209518 	-0.000418738 	0.346975
0.00326087 	-0.000208025 	-0.000421957 	0.347855
0.00331104 	-0.000206532 	-0.000425175 	0.348735
0.0033612 	-0.00020504 	-0.000428394 	0.349615
0.00341137 	-0.000203547 	-0.000431613 	0.350495
0.00346154 	-0.000202054 	-0.000434832 	0.351375
0.00351171 	-0.000200561 	-0.00043805 	0.352255
0.00356187 	-0.000199068 	-0.000441269 	0.353135
0.00361204 	-0.000197576 	-0.000444488 	0.354014
0.00366221 	-0.000196083 	-0.000447706 	0.354894
0.00371237 	-0.00019459 	-0.000450925 	0.355774
0.00376254 	-0.000193097 	-0.000454144 	0.356654
0.00381271 	-0.000191605 	-0.000457363 	0.357534
0.00386288 	-0.000190112 	-0.000460581 	0.358414
0.00391304 	-0.000188619 	-0.0004638 	0.359294
0.00396321 	-0.000187126 	-0.000467019 	0.360174
0.00401338 	-0.000186059 	-0.000469389 	0.360753
0.00406355 	-0.000185034 	-0.000471675 	0.361303
0.00411371 	-0.000184009 	-0.000473962 	0.361852
0.00416388 	-0.000182984 	-0.000476249 	0.362402
0.00421405 	-0.000181958 	-0.000478535 	0.362952
0.00426421 	-0.000180933 	-0.000480822 	0.363501
0.00431438 	-0.000179908 	-0.000483109 	0.364051
0.00436455 	-0.000178883 	-0.000485396 	0.364601
0.00441472 	-0.000177857 	-0.000487682 	0.36515
0.00446488 	-0.000176832 	-0.000489969 	0.3657
0.00451505 	-0.000175807 	-0.000492256 	0.366249
0.00456522 	-0.000174782 	-0.000494542 	0.366799
0.00461538 	-0.000173757 	-0.000496829 	0.367349
0.00466555 	-0.000172731 	-0.000499116 	0.367898
0.00471572 	-0.000171706 	-0.000501403 	0.368448
0.00476589 	-0.000170681 	-0.000503689 	0.368998
0.00481605 	-0.000169656 	-0.000505976 	0.369547
0.00486622 	-0.00016863 	-0.000508263 	0.370097
0.00491639 	-0.000167605 	-0.000510549 	0.370647
0.00496656 	-0.00016658 	-0.000512836 	0.371196
0.00501672 	-0.000165768 	-0.000514394 	0.371495
0.00506689 	-0.000164968 	-0.000515912 	0.37178
0.00511706 	-0.000164168 	-0.000517431 	0.372065
0.00516722 	-0.000163368 	-0.00051895 	0.372351
0.00521739 	-0.000162567 	-0.000520469 	0.372636
0.00526756 	-0.000161767 	-0.000521987 	0.372921
0.00531773 	-0.000160967 	-0.000523506 	0.373206
0.00536789 	-0.000160167 	-0.000525025 	0.373491
0.00541806 	-0.000159366 	-0.000526543 	0.373776
0.00546823 	-0.000158566 	-0.000528062 	0.374062
0.00551839 	-0.000157766 	-0.000529581 	0.374347
0.00556856 	-0.000156966 	-0.0005311 	0.374632
0.00561873 	-0.000156165 	-0.000532618 	0.374917
0.0056689 	-0.000155365 	-0.000534137 	0.375202
0.00571906 	-0.000154565 	-0.000535656 	0.375487
0.00576923 	-0.000153765 	-0.000537174 	0.375773
0.0058194 	-0.000152964 	-0.000538693 	0.376058
0.00586957 	-0.000152164 	-0.000540212 	0.376343
0.00591973 	-0.000151364 	-0.00054173 	0.376628
0.0059699 	-0.000150564 	-0.000543249 	0.376913
0.00602007 	-0.000149763 	-0.000544768 	0.377198
0.00607023 	-0.000148963 	-0.000546287 	0.377484
0.0061204 	-0.000148163 	-0.000547805 	0.377769
0.00617057 	-0.000147462 	-0.000548798 	0.377907
0.00622074 	-0.00014681 	-0.000549523 	0.377972
0.0062709 	-0.000146159 	-0.000550248 	0.378036
0.00632107 	-0.000145508 	-0.000550973 	0.3781
0.00637124 	-0.000144857 	-0.000551699 	0.378165
0.0064214 	-0.000144206 	-0.000552424 	0.378229
0.00647157 	-0.000143555 	-0.000553149 	0.378293
0.00652174 	-0.000142903 	-0.000553874 	0.378358
0.00657191 	-0.000142252 	-0.0005546 	0.378422
0.00662207 	-0.000141601 	-0.000555325 	0.378486
0.00667224 	-0.00014095 	-0.00055605 	0.378551
0.00672241 	-0.000140299 	-0.000556775 	0.378615
0.00677258 	-0.000139648 	-0.000557501 	0.378679
0.00682274 	-0.000138997 	-0.000558226 	0.378744
0.00687291 	-0.000138345 	-0.000558951 	0.378808
0.00692308 	-0.000137694 	-0.000559676 	0.378872
0.00697324 	-0.000137043 	-0.000560402 	0.378937
0.00702341 	-0.000136392 	-0.000561127 	0.379001
0.00707358 	-0.000135741 	-0.000561852 	0.379065
0.00712375 	-0.00013509 	-0.000562577 	0.37913
0.00717391 	-0.000134438 	-0.000563303 	0.379194
0.00722408 	-0.000133787 	-0.000564028 	0.379258
0.00727425 	-0.000133136 	-0.000564753 	0.379323
0.00732441 	-0.000132485 	-0.000565478 	0.379387
0.00737458 	-0.000131834 	-0.000566203 	0.379451
0.00742475 	-0.000131183 	-0.000566929 	0.379516
0.00747492 	-0.000130531 	-0.000567654 	0.37958
0.00752508 	-0.000129939 	-0.000567983 	0.379545
0.00757525 	-0.000129404 	-0.000567916 	0.37941
0.00762542 	-0.00012887 	-0.000567849 	0.379276
0.00767559 	-0.000128336 	-0.000567781 	0.379141
0.00772575 	-0.000127801 	-0.000567714 	0.379007
0.00777592 	-0.000127267 	-0.000567647 	0.378872
0.00782609 	-0.000126733 	-0.00056758 	0.378738
0.00787625 	-0.000126198 	-0.000567512 	0.378603
0.00792642 	-0.000125664 	-0.000567445 	0.378469
0.00797659 	-0.00012513 	-0.000567378 	0.378334
0.00802676 	-0.000124595 	-0.000567311 	0.3782
0.00807692 	-0.000124061 	-0.000567244 	0.378065
0.00812709 	-0.000123527 	-0.000567176 	0.377931
0.00817726 	-0.000122992 	-0.000567109 	0.377796
0.00822742 	-0.000122458 	-0.000567042 	0.377662
0.00827759 	-0.000121924 	-0.000566975 	0.377527
0.00832776 	-0.000121389 	-0.000566908 	0.377393
0.00837793 	-0.000120855 	-0.00056684 	0.377258
0.00842809 	-0.000120321 	-0.000566773 	0.377124
0.00847826 	-0.000119786 	-0.000566706 	0.376989
0.00852843 	-0.000119252 	-0.000566639 	0.376855
0.0085786 	-0.000118718 	-0.000566571 	0.37672
0.00862876 	-0.000118183 	-0.000566504 	0.376586
0.00867893 	-0.000117649 	-0.000566437 	0.376451
0.0087291 	-0.000117115 	-0.00056637 	0.376317
0.00877926 	-0.00011658 	-0.000566303 	0.376182
0.00882943 	-0.000116046 	-0.000566235 	0.376048
0.0088796 	-0.000115567 	-0.000565841 	0.375832
0.00892977 	-0.000115199 	-0.000564801 	0.375456
0.00897993 	-0.000114831 	-0.000563761 	0.37508
0.0090301 	-0.000114462 	-0.000562722 	0.374704
0.00908027 	-0.000114094 	-0.000561682 	0.374328
0.00913043 	-0.000113725 	-0.000560642 	0.373952
0.0091806 	-0.000113357 	-0.000559602 	0.373576
0.00923077 	-0.000112988 	-0.000558563 	0.3732
0.00928094 	-0.00011262 	-0.000557523 	0.372824
0.0093311 	-0.000112252 	-0.000556483 	0.372449
0.00938127 	-0.000111883 	-0.000555443 	0.372073
0.00943144 	-0.000111515 	-0.000554404 	0.371697
0.00948161 	-0.000111146 	-0.000553364 	0.371321
0.00953177 	-0.000110778 	-0.000552324 	0.370945
0.00958194 	-0.000110409 	-0.000551284 	0.370569
0.00963211 	-0.000110041 	-0.000550245 	0.370193
0.00968227 	-0.000109672 	-0.000549205 	0.369817
0.00973244 	-0.000109304 	-0.000548165 	0.369441
0.00978261 	-0.000108936 	-0.000547125 	0.369065
0.00983278 	-0.000108567 	-0.000546086 	0.368689
0.00988294 	-0.000108199 	-0.000545046 	0.368314
0.00993311 	-0.00010783 	-0.000544006 	0.367938
0.00998328 	-0.000107462 	-0.000542966 	0.367562
0.0100334 	-0.000107112 	-0.00054187 	0.367171
0.0100836 	-0.00010711 	-0.000539717 	0.36651
0.0101338 	-0.000107109 	-0.000537565 	0.365849
0.0101839 	-0.000107107 	-0.000535412 	0.365187
0.0102341 	-0.000107105 	-0.000533259 	0.364526
0.0102843 	-0.000107104 	-0.000531106 	0.363864
0.0103344 	-0.000107102 	-0.000528954 	0.363203
0.0103846 	-0.0001071 	-0.000526801 	0.362542
0.0104348 	-0.000107099 	-0.000524648 	0.36188
0.0104849 	-0.000107097 	-0.000522495 	0.361219
0.0105351 	-0.000107095 	-0.000520343 	0.360557
0.0105853 	-0.000107094 	-0.00051819 	0.359896
0.0106355 	-0.000107092 	-0.000516037 	0.359235
0.0106856 	-0.00010709 	-0.000513885 	0.358573
0.0107358 	-0.000107089 	-0.000511732 	0.357912
0.010786 	-0.000107087 	-0.000509579 	0.35725
0.0108361 	-0.000107085 	-0.000507426 	0.356589
0.0108863 	-0.000107084 	-0.000505274 	0.355928
0.0109365 	-0.000107082 	-0.000503121 	0.355266
0.0109866 	-0.00010708 	-0.000500968 	0.354605
0.0110368 	-0.000107138 	-0.000498674 	0.35391
0.011087 	-0.000107802 	-0.000494939 	0.352879
0.0111371 	-0.000108465 	-0.000491203 	0.351848
0.0111873 	-0.000109129 	-0.000487467 	0.350817
0.0112375 	-0.000109792 	-0.000483732 	0.349786
0.0112876 	-0.000110456 	-0.000479996 	0.348755
0.0113378 	-0.000111119 	-0.000476261 	0.347724
0.011388 	-0.000111783 	-0.000472525 	0.346693
0.0114381 	-0.000112446 	-0.00046879 	0.345662
0.0114883 	-0.00011311 	-0.000465054 	0.344631
0.0115385 	-0.000113773 	-0.000461319 	0.3436
0.0115886 	-0.000114437 	-0.000457583 	0.342569
0.0116388 	-0.0001151 	-0.000453847 	0.341538
0.011689 	-0.000115764 	-0.000450112 	0.340507
0.0117391 	-0.000116427 	-0.000446376 	0.339476
0.0117893 	-0.000117091 	-0.000442641 	0.338445
0.0118395 	-0.000117754 	-0.000438905 	0.337414
0.0118896 	-0.000118418 	-0.00043517 	0.336383
0.0119398 	-0.000120025 	-0.000428973 	0.334811
0.01199 	-0.000121654 	-0.00042272 	0.333227
0.0120401 	-0.000123284 	-0.000416467 	0.331642
0.0120903 	-0.000124913 	-0.000410214 	0.330058
0.0121405 	-0.000126542 	-0.000403961 	0.328474
0.0121906 	-0.000128171 	-0.000397708 	0.32689
0.0122408 	-0.000129801 	-0.000391455 	0.325306
0.012291 	-0.00013143 	-0.000385201 	0.323721
0.0123411 	-0.000133059 	-0.000378948 	0.322137
0.0123913 	-0.000134688 	-0.000372695 	0.320553
0.0124415 	-0.000136317 	-0.000366442 	0.318969
0.0124916 	-0.000137947 	-0.000360189 	0.317385
0.0125418 	-0.000139576 	-0.000353936 	0.3158
0.012592 	-0.000141205 	-0.000347682 	0.314216
0.0126421 	-0.000143104 	-0.000340477 	0.312346
0.0126923 	-0.000145609 	-0.000331135 	0.309833
0.0127425 	-0.000148113 	-0.000321793 	0.307321
0.0127926 	-0.000150618 	-0.000312452 	0.304808
0.0128428 	-0.000153123 	-0.00030311 	0.302296
0.012893 	-0.000155627 	-0.000293768 	0.299784
0.0129431 	-0.000158132 	-0.000284427 	0.297271
0.0129933 	-0.000160637 	-0.000275085 	0.294759
0.0130435 	-0.000163141 	-0.000265743 	0.292246
0.0130936 	-0.000165646 	-0.000256401 	0.289734
0.0131438 	-0.000168151 	-0.00024706 	0.287221
0.013194 	-0.000170655 	-0.000237718 	0.284709
0.0132441 	-0.00017316 	-0.000228376 	0.282197
0.0132943 	-0.000175312 	-0.000217478 	0.278462
0.0133445 	-0.000177337 	-0.000206014 	0.274284
0.0133946 	-0.000179361 	-0.00019455 	0.270105
0.0134448 	-0.000181386 	-0.000183086 	0.265927
0.013495 	-0.00018341 	-0.000171622 	0.261748
0.0135452 	-0.000185435 	-0.000160158 	0.25757
0.0135953 	-0.000187459 	-0.000148694 	0.253391
0.0136455 	-0.000189483 	-0.00013723 	0.249212
0.0136957 	-0.000191508 	-0.000125766 	0.245034
0.0137458 	-0.000193532 	-0.000114302 	0.240855
0.013796 	-0.000195557 	-0.000102838 	0.236677
0.0138462 	-0.000193282 	-9.31022e-05 	0.229218
0.0138963 	-0.000190797 	-8.34508e-05 	0.221598
0.0139465 	-0.000188313 	-7.37993e-05 	0.213979
0.0139967 	-0.000185829 	-6.41479e-05 	0.20636
0.0140468 	-0.000183344 	-5.44965e-05 	0.198741
0.014097 	-0.00018086 	-4.4845e-05 	0.191122
0.0141472 	-0.000178376 	-3.51936e-05 	0.183503
0.0141973 	-0.000175891 	-2.55422e-05 	0.175883
0.0142475 	-0.000173407 	-1.58908e-05 	0.168264
0.0142977 	-0.00016517 	-1.09813e-05 	0.157757
0.0143478 	-0.000154612 	-7.98422e-06 	0.146085
0.014398 	-0.000144054 	-4.98719e-06 	0.134413
0.0144482 	-0.000133497 	-1.99016e-06 	0.122742
0.0144983 	-0.000122939 	1.00687e-06 	0.11107
0.0145485 	-0.000112382 	4.0039e-06 	0.0993979
0.0145987 	-0.000101824 	7.00093e-06 	0.0877261
0.0146488 	-9.12663e-05 	9.99796e-06 	0.0760542
0.014699 	-7.86866e-05 	9.3874e-06 	0.0650402
0.0147492 	-6.55722e-05 	7.82283e-06 	0.0542002
0.0147993 	-5.24577e-05 	6.25826e-06 	0.0433602
0.0148495 	-3.93433e-05 	4.6937e-06 	0.0325201
0.0148997 	-2.62289e-05 	3.12913e-06 	0.0216801
0.0149498 	-1.31144e-05 	1.56457e-06 	0.01084
0.015 	0 	0 	0
