0 	0 	0 	0
5.01672e-05 	0.0003516 	4.5054e-07 	0.0176291
0.000100334 	0.000569454 	2.86869e-07 	0.0327927
0.000150502 	0.000745833 	-1.70378e-06 	0.0465866
0.000200669 	0.000924558 	-6.08818e-06 	0.0595082
0.000250836 	0.00110029 	-1.12508e-05 	0.0715828
0.000301003 	0.00126382 	-1.76762e-05 	0.0828146
0.000351171 	0.00141185 	-2.50631e-05 	0.0932508
0.000401338 	0.00154328 	-3.32995e-05 	0.102934
0.000451505 	0.00165808 	-4.22634e-05 	0.111897
0.000501672 	0.00175697 	-5.1837e-05 	0.120172
0.000551839 	0.0018414 	-6.19401e-05 	0.127798
0.000602007 	0.00191317 	-7.25207e-05 	0.134824
0.000652174 	0.00197398 	-8.35408e-05 	0.141309
0.000702341 	0.00202512 	-9.49808e-05 	0.147307
0.000752508 	0.00206754 	-0.000106803 	0.152871
0.000802676 	0.00210187 	-0.000118948 	0.158038
0.000852843 	0.00212778 	-0.000131413 	0.162791
0.00090301 	0.00214735 	-0.000144099 	0.167225
0.000953177 	0.00216133 	-0.000156966 	0.171368
0.00100334 	0.00217043 	-0.000169981 	0.175248
0.00105351 	0.00217526 	-0.00018311 	0.178889
0.00110368 	0.00217627 	-0.000196327 	0.182307
0.00115385 	0.00217315 	-0.000209605 	0.185468
0.00120401 	0.00216737 	-0.000222913 	0.188456
0.00125418 	0.00215921 	-0.000236231 	0.191286
0.00130435 	0.00214891 	-0.000249534 	0.193972
0.00135452 	0.00213606 	-0.000262732 	0.196492
0.00140468 	0.00212126 	-0.000275792 	0.198883
0.00145485 	0.00210502 	-0.000288742 	0.201176
0.00150502 	0.00208749 	-0.000301591 	0.203378
0.00155518 	0.0020683 	-0.000314311 	0.205451
0.00160535 	0.00204828 	-0.000326934 	0.207449
0.00165552 	0.00202753 	-0.000339453 	0.209382
0.00170569 	0.00200589 	-0.000351765 	0.211224
0.00175585 	0.00198362 	-0.000363856 	0.212995
0.00180602 	0.00196097 	-0.000375779 	0.214717
0.00185619 	0.00193784 	-0.000387433 	0.21637
0.00190635 	0.00191432 	-0.000398793 	0.217965
0.00195652 	0.00189056 	-0.000409959 	0.219524
0.00200669 	0.00186634 	-0.000420754 	0.221021
0.00205686 	0.00184173 	-0.000431276 	0.222477
0.00210702 	0.00181686 	-0.00044162 	0.223905
0.00215719 	0.0017913 	-0.000451578 	0.225271
0.00220736 	0.00176544 	-0.000461409 	0.226615
0.00225753 	0.00173911 	-0.000471035 	0.227923
0.00230769 	0.00171214 	-0.000480457 	0.229192
0.00235786 	0.0016849 	-0.00048979 	0.230444
0.00240803 	0.00165677 	-0.000498871 	0.231649
0.00245819 	0.00162833 	-0.000507847 	0.232838
0.00250836 	0.00159927 	-0.000516609 	0.233996
0.00255853 	0.0015697 	-0.000525146 	0.235128
0.0026087 	0.00153976 	-0.000533525 	0.236242
0.00265886 	0.0015092 	-0.000541562 	0.237323
0.00270903 	0.00147848 	-0.000549518 	0.238397
0.0027592 	0.00144704 	-0.000556968 	0.239432
0.00280936 	0.0014155 	-0.00056433 	0.240462
0.00285953 	0.00138338 	-0.000571224 	0.24146
0.0029097 	0.0013511 	-0.000577985 	0.242448
0.00295987 	0.00131841 	-0.000584413 	0.243409
0.00301003 	0.00128561 	-0.000590683 	0.244356
0.0030602 	0.00125265 	-0.000596692 	0.245279
0.00311037 	0.0012197 	-0.000602436 	0.246184
0.00316054 	0.00118677 	-0.000607833 	0.247067
0.0032107 	0.00115387 	-0.000613014 	0.247931
0.00326087 	0.001121 	-0.000617938 	0.248773
0.00331104 	0.00108809 	-0.00062298 	0.2496
0.0033612 	0.00105511 	-0.000628169 	0.250407
0.00341137 	0.00102198 	-0.000633311 	0.251209
0.00346154 	0.000988594 	-0.000638381 	0.252001
0.00351171 	0.000954802 	-0.000642861 	0.252796
0.00356187 	0.000920107 	-0.000646045 	0.253597
0.00361204 	0.000884986 	-0.000648952 	0.254397
0.00366221 	0.000848051 	-0.00065068 	0.255197
0.00371237 	0.00081108 	-0.000652459 	0.255994
0.00376254 	0.000772941 	-0.000655867 	0.256726
0.00381271 	0.000734802 	-0.000659275 	0.257459
0.00386288 	0.000697221 	-0.00066399 	0.258104
0.00391304 	0.000659753 	-0.000668971 	0.258731
0.00396321 	0.000622855 	-0.00067319 	0.259319
0.00401338 	0.000586348 	-0.000676884 	0.259879
0.00406355 	0.000549967 	-0.000680128 	0.26043
0.00411371 	0.000513865 	-0.000682384 	0.260961
0.00416388 	0.000477762 	-0.00068464 	0.261492
0.00421405 	0.000441973 	-0.000686935 	0.261997
0.00426421 	0.000406186 	-0.000689231 	0.262501
0.00431438 	0.000370708 	-0.000691781 	0.262983
0.00436455 	0.000335411 	-0.000694477 	0.263451
0.00441472 	0.000300243 	-0.000697178 	0.263911
0.00446488 	0.000265512 	-0.000699891 	0.26434
0.00451505 	0.000230781 	-0.000702603 	0.26477
0.00456522 	0.000196496 	-0.000705252 	0.26517
0.00461538 	0.000162335 	-0.000707882 	0.265562
0.00466555 	0.000128332 	-0.000710501 	0.265944
0.00471572 	9.47142e-05 	-0.000713092 	0.266299
0.00476589 	6.10959e-05 	-0.000715683 	0.266654
0.00481605 	2.79151e-05 	-0.000718252 	0.266981
0.00486622 	-5.12501e-06 	-0.000720813 	0.2673
0.00491639 	-3.80403e-05 	-0.00072337 	0.267612
0.00496656 	-7.03712e-05 	-0.000725905 	0.267895
0.00501672 	-0.000102702 	-0.00072844 	0.268178
0.00506689 	-0.000134552 	-0.000730957 	0.268442
0.00511706 	-0.000166006 	-0.00073346 	0.26869
0.00516722 	-0.00019746 	-0.000735963 	0.268938
0.00521739 	-0.000228013 	-0.000738435 	0.269156
0.00526756 	-0.000258438 	-0.000740902 	0.269371
0.00531773 	-0.000288683 	-0.000743364 	0.26958
0.00536789 	-0.000317934 	-0.000745795 	0.269762
0.00541806 	-0.000347185 	-0.000748226 	0.269944
0.00546823 	-0.000375933 	-0.000750639 	0.270114
0.00551839 	-0.000403867 	-0.000753023 	0.270265
0.00556856 	-0.000431802 	-0.000755406 	0.270416
0.00561873 	-0.000458913 	-0.000757747 	0.27055
0.0056689 	-0.000485382 	-0.000760054 	0.270671
0.00571906 	-0.000511851 	-0.000762362 	0.270793
0.00576923 	-0.000537209 	-0.00076459 	0.270894
0.0058194 	-0.00056207 	-0.000766782 	0.270986
0.00586957 	-0.000586931 	-0.000768975 	0.271079
0.00591973 	-0.000610477 	-0.000771047 	0.27115
0.0059699 	-0.000633625 	-0.000773083 	0.271215
0.00602007 	-0.000656774 	-0.00077512 	0.27128
0.00607023 	-0.000678492 	-0.000777001 	0.271324
0.0061204 	-0.000699838 	-0.000778842 	0.271363
0.00617057 	-0.000721184 	-0.000780684 	0.271401
0.00622074 	-0.00074105 	-0.000782342 	0.27142
0.0062709 	-0.000760462 	-0.000783943 	0.271432
0.00632107 	-0.000779874 	-0.000785545 	0.271445
0.00637124 	-0.000797842 	-0.000786948 	0.27144
0.0064214 	-0.000815138 	-0.000788257 	0.271428
0.00647157 	-0.000832435 	-0.000789567 	0.271415
0.00652174 	-0.000848475 	-0.000790685 	0.271389
0.00657191 	-0.000863465 	-0.000791643 	0.271352
0.00662207 	-0.000878455 	-0.000792601 	0.271314
0.00667224 	-0.000892577 	-0.000793415 	0.271269
0.00672241 	-0.000905093 	-0.000793963 	0.271207
0.00677258 	-0.000917609 	-0.00079451 	0.271146
0.00682274 	-0.000929864 	-0.000795012 	0.271082
0.00687291 	-0.000939758 	-0.000795106 	0.270997
0.00692308 	-0.000949652 	-0.0007952 	0.270912
0.00697324 	-0.000959547 	-0.000795294 	0.270826
0.00702341 	-0.000967269 	-0.000794984 	0.270722
0.00707358 	-0.000974412 	-0.000794566 	0.270613
0.00712375 	-0.000981555 	-0.000794147 	0.270505
0.00717391 	-0.000987556 	-0.000793516 	0.270384
0.00722408 	-0.000991985 	-0.000792592 	0.270247
0.00727425 	-0.000996413 	-0.000791667 	0.27011
0.00732441 	-0.00100084 	-0.000790742 	0.269973
0.00737458 	-0.00100282 	-0.000789393 	0.269801
0.00742475 	-0.00100478 	-0.00078804 	0.269628
0.00747492 	-0.00100674 	-0.000786687 	0.269455
0.00752508 	-0.00100756 	-0.000785145 	0.269261
0.00757525 	-0.00100726 	-0.000783415 	0.269046
0.00762542 	-0.00100695 	-0.000781685 	0.268832
0.00767559 	-0.00100662 	-0.000779952 	0.268617
0.00772575 	-0.00100399 	-0.000777967 	0.268365
0.00777592 	-0.00100136 	-0.000775982 	0.268112
0.00782609 	-0.000998724 	-0.000773997 	0.267859
0.00787625 	-0.000994697 	-0.000771913 	0.26759
0.00792642 	-0.000989659 	-0.000769757 	0.267308
0.00797659 	-0.000984622 	-0.000767601 	0.267026
0.00802676 	-0.000979109 	-0.000765409 	0.266739
0.00807692 	-0.000971811 	-0.000763085 	0.266432
0.00812709 	-0.000964513 	-0.000760761 	0.266125
0.00817726 	-0.000957216 	-0.000758437 	0.265819
0.00822742 	-0.000948122 	-0.000755996 	0.265489
0.00827759 	-0.000938831 	-0.000753542 	0.265157
0.00832776 	-0.000929539 	-0.000751089 	0.264825
0.00837793 	-0.000919114 	-0.000748569 	0.264477
0.00842809 	-0.000908075 	-0.000746012 	0.264121
0.00847826 	-0.000897037 	-0.000743456 	0.263764
0.00852843 	-0.000885303 	-0.000740862 	0.263397
0.0085786 	-0.000872736 	-0.000738221 	0.263016
0.00862876 	-0.00086017 	-0.000735581 	0.262636
0.00867893 	-0.000847178 	-0.000732903 	0.262248
0.0087291 	-0.000833271 	-0.000730144 	0.261845
0.00877926 	-0.000819365 	-0.000727386 	0.261442
0.00882943 	-0.000805179 	-0.000724611 	0.261034
0.0088796 	-0.000790086 	-0.000721785 	0.260609
0.00892977 	-0.000774992 	-0.000718959 	0.260184
0.00897993 	-0.00075968 	-0.00071613 	0.259754
0.0090301 	-0.000743534 	-0.00071329 	0.259309
0.00908027 	-0.000727388 	-0.00071045 	0.258863
0.00913043 	-0.000711035 	-0.000707551 	0.258413
0.0091806 	-0.000693994 	-0.000704457 	0.257949
0.00923077 	-0.000676953 	-0.000701364 	0.257485
0.00928094 	-0.000659702 	-0.000698103 	0.257015
0.0093311 	-0.00064198 	-0.000694467 	0.256533
0.00938127 	-0.000624259 	-0.000690831 	0.256051
0.00943144 	-0.000606324 	-0.000687015 	0.25556
0.00948161 	-0.000588115 	-0.000682968 	0.255058
0.00953177 	-0.000569907 	-0.000678921 	0.254557
0.00958194 	-0.000551454 	-0.00067488 	0.254042
0.00963211 	-0.00053285 	-0.000670843 	0.253519
0.00968227 	-0.000514246 	-0.000666805 	0.252996
0.00973244 	-0.000495354 	-0.00066296 	0.252454
0.00978261 	-0.00047641 	-0.00065915 	0.251908
0.00983278 	-0.000457433 	-0.000655363 	0.25136
0.00988294 	-0.000438226 	-0.000651742 	0.250793
0.00993311 	-0.000419019 	-0.000648121 	0.250226
0.00998328 	-0.000399731 	-0.000644561 	0.249649
0.0100334 	-0.000380345 	-0.000641075 	0.24906
0.0100836 	-0.00036096 	-0.000637589 	0.248471
0.0101338 	-0.000341442 	-0.000634174 	0.247864
0.0101839 	-0.000321897 	-0.000630773 	0.247253
0.0102341 	-0.0003023 	-0.000627378 	0.246637
0.0102843 	-0.000282543 	-0.000624001 	0.246004
0.0103344 	-0.000262787 	-0.000620623 	0.24537
0.0103846 	-0.000242877 	-0.000617274 	0.244721
0.0104348 	-0.000222903 	-0.000613937 	0.244064
0.0104849 	-0.000202893 	-0.000610606 	0.243403
0.0105351 	-0.00018275 	-0.0006073 	0.242723
0.0105853 	-0.000162608 	-0.000603993 	0.242043
0.0106355 	-0.00014238 	-0.000600634 	0.241343
0.0106856 	-0.000122127 	-0.000597259 	0.240639
0.0107358 	-0.000101857 	-0.000593834 	0.239924
0.010786 	-8.15599e-05 	-0.000590321 	0.239193
0.0108361 	-6.12629e-05 	-0.000586808 	0.238461
0.0108863 	-4.10023e-05 	-0.000583124 	0.2377
0.0109365 	-2.07416e-05 	-0.000579441 	0.23694
0.0109866 	-5.78044e-07 	-0.000575659 	0.236157
0.0110368 	1.95413e-05 	-0.000571831 	0.235364
0.011087 	3.9547e-05 	-0.000567949 	0.234556
0.0111371 	5.93881e-05 	-0.00056399 	0.233727
0.0111873 	7.91552e-05 	-0.00055999 	0.232892
0.0112375 	9.85599e-05 	-0.000555794 	0.232023
0.0112876 	0.000117965 	-0.000551597 	0.231154
0.0113378 	0.000136792 	-0.000547043 	0.230243
0.011388 	0.000155603 	-0.000542478 	0.229331
0.0114381 	0.000173825 	-0.000537572 	0.228382
0.0114883 	0.00019191 	-0.000532584 	0.227424
0.0115385 	0.000209438 	-0.000527326 	0.226434
0.0115886 	0.000226712 	-0.000521945 	0.225431
0.0116388 	0.000243464 	-0.000516355 	0.224399
0.011689 	0.000259872 	-0.000510627 	0.223348
0.0117391 	0.000275758 	-0.000504722 	0.222271
0.0117893 	0.000291222 	-0.000498674 	0.221172
0.0118395 	0.0003061 	-0.000492461 	0.220045
0.0118896 	0.000320482 	-0.000486111 	0.218896
0.0119398 	0.000334125 	-0.000479603 	0.217715
0.01199 	0.000347201 	-0.000472973 	0.216512
0.0120401 	0.000359266 	-0.000466156 	0.215272
0.0120903 	0.00037072 	-0.000459225 	0.214011
0.0121405 	0.000380811 	-0.000452005 	0.212708
0.0121906 	0.000390359 	-0.00044467 	0.211387
0.0122408 	0.0003983 	-0.000436877 	0.210013
0.012291 	0.000405936 	-0.000428998 	0.208628
0.0123411 	0.000412019 	-0.000420465 	0.207172
0.0123913 	0.000417894 	-0.000411825 	0.205699
0.0124415 	0.0004229 	-0.000402732 	0.204162
0.0124916 	0.000427576 	-0.000393548 	0.202588
0.0125418 	0.000431787 	-0.000384236 	0.200962
0.012592 	0.000435392 	-0.000374928 	0.199273
0.0126421 	0.000438699 	-0.000365621 	0.197552
0.0126923 	0.000440659 	-0.00035616 	0.195729
0.0127425 	0.000442037 	-0.000346559 	0.193869
0.0127926 	0.000442013 	-0.000336598 	0.191923
0.0128428 	0.000440675 	-0.000326292 	0.189902
0.012893 	0.000438516 	-0.00031577 	0.187834
0.0129431 	0.000434162 	-0.000304936 	0.18565
0.0129933 	0.000428864 	-0.00029406 	0.183419
0.0130435 	0.000422141 	-0.000283121 	0.18112
0.0130936 	0.000413356 	-0.000272138 	0.178726
0.0131438 	0.000403389 	-0.000261118 	0.176276
0.013194 	0.000391546 	-0.000250029 	0.173737
0.0132441 	0.000377692 	-0.000238828 	0.171094
0.0132943 	0.000362521 	-0.000227567 	0.168377
0.0133445 	0.000345534 	-0.000216239 	0.165553
0.0133946 	0.000326561 	-0.000204922 	0.162594
0.0134448 	0.000306237 	-0.000193632 	0.159537
0.013495 	0.000284448 	-0.00018238 	0.15637
0.0135452 	0.000260362 	-0.000171187 	0.153015
0.0135953 	0.000234883 	-0.000160054 	0.149534
0.0136455 	0.000207999 	-0.000149004 	0.14592
0.0136957 	0.000179501 	-0.000138102 	0.142139
0.0137458 	0.000149334 	-0.000127462 	0.138157
0.013796 	0.00011805 	-0.000117053 	0.134013
0.0138462 	8.57511e-05 	-0.000106905 	0.129698
0.0138963 	5.25796e-05 	-9.70528e-05 	0.1252
0.0139465 	1.87032e-05 	-8.76669e-05 	0.120448
0.0139967 	-1.52996e-05 	-7.86354e-05 	0.115487
0.0140468 	-4.91314e-05 	-6.99583e-05 	0.11031
0.014097 	-8.24641e-05 	-6.16487e-05 	0.104903
0.0141472 	-0.000114891 	-5.37289e-05 	0.0992505
0.0141973 	-0.000145857 	-4.6241e-05 	0.0933369
0.0142475 	-0.000173976 	-3.93635e-05 	0.0871068
0.0142977 	-0.000198354 	-3.299e-05 	0.0806095
0.0143478 	-0.000217822 	-2.71075e-05 	0.0738735
0.014398 	-0.000231247 	-2.17629e-05 	0.0669495
0.0144482 	-0.00023777 	-1.69963e-05 	0.0599134
0.0144983 	-0.000237016 	-1.28375e-05 	0.0528636
0.0145485 	-0.000229234 	-9.31783e-06 	0.0459104
0.0145987 	-0.000215318 	-6.4674e-06 	0.0391623
0.0146488 	-0.000196703 	-4.30417e-06 	0.0327116
0.014699 	-0.000175216 	-2.81855e-06 	0.0266279
0.0147492 	-0.000153061 	-1.95467e-06 	0.0209625
0.0147993 	-0.000133131 	-1.58629e-06 	0.0157631
0.0148495 	-0.000119803 	-1.50077e-06 	0.0111
0.0148997 	-0.000109839 	-1.27999e-06 	0.00703352
0.0149498 	-7.74431e-05 	-7.59452e-07 	0.0034407
0.015 	0 	0 	0
