0 	0 	0 	0
5.01672e-05 	-2.18493e-05 	-4.45338e-06 	0.0203401
0.000100334 	-4.36986e-05 	-8.90676e-06 	0.0406802
0.000150502 	-6.55478e-05 	-1.33601e-05 	0.0610204
0.000200669 	-8.73971e-05 	-1.78135e-05 	0.0813605
0.000250836 	-0.000109246 	-2.22669e-05 	0.101701
0.000301003 	-0.000131096 	-2.67203e-05 	0.122041
0.000351171 	-0.000150953 	-3.1881e-05 	0.140274
0.000401338 	-0.000163278 	-3.97164e-05 	0.15054
0.000451505 	-0.000175603 	-4.75519e-05 	0.160805
0.000501672 	-0.000187928 	-5.53874e-05 	0.171071
0.000551839 	-0.000200253 	-6.32229e-05 	0.181337
0.000602007 	-0.000212578 	-7.10583e-05 	0.191603
0.000652174 	-0.000224903 	-7.88938e-05 	0.201868
0.000702341 	-0.000237228 	-8.67293e-05 	0.212134
0.000752508 	-0.000246819 	-9.47923e-05 	0.220969
0.000802676 	-0.000249629 	-0.00010342 	0.226256
0.000852843 	-0.000252439 	-0.000112047 	0.231543
0.00090301 	-0.000255249 	-0.000120674 	0.23683
0.000953177 	-0.000258059 	-0.000129302 	0.242117
0.00100334 	-0.000260869 	-0.000137929 	0.247404
0.00105351 	-0.00026368 	-0.000146557 	0.252692
0.00110368 	-0.00026649 	-0.000155184 	0.257979
0.00115385 	-0.0002693 	-0.000163811 	0.263266
0.00120401 	-0.000271913 	-0.000172398 	0.268447
0.00125418 	-0.000270474 	-0.000180144 	0.271462
0.00130435 	-0.000269036 	-0.00018789 	0.274476
0.00135452 	-0.000267597 	-0.000195636 	0.27749
0.00140468 	-0.000266159 	-0.000203382 	0.280505
0.00145485 	-0.00026472 	-0.000211128 	0.283519
0.00150502 	-0.000263282 	-0.000218874 	0.286533
0.00155518 	-0.000261843 	-0.00022662 	0.289548
0.00160535 	-0.000260405 	-0.000234366 	0.292562
0.00165552 	-0.000258966 	-0.000242112 	0.295577
0.00170569 	-0.000257528 	-0.000249858 	0.298591
0.00175585 	-0.000255836 	-0.000257204 	0.301316
0.00180602 	-0.000253449 	-0.000263451 	0.303247
0.00185619 	-0.000251061 	-0.000269697 	0.305178
0.00190635 	-0.000248674 	-0.000275944 	0.307109
0.00195652 	-0.000246286 	-0.000282191 	0.309039
0.00200669 	-0.000243899 	-0.000288438 	0.31097
0.00205686 	-0.000241511 	-0.000294685 	0.312901
0.00210702 	-0.000239124 	-0.000300931 	0.314832
0.00215719 	-0.000236736 	-0.000307178 	0.316762
0.00220736 	-0.000234349 	-0.000313425 	0.318693
0.00225753 	-0.000231961 	-0.000319672 	0.320624
0.00230769 	-0.000229574 	-0.000325918 	0.322555
0.00235786 	-0.000227186 	-0.000332165 	0.324486
0.00240803 	-0.000225035 	-0.000337258 	0.325983
0.00245819 	-0.000222989 	-0.000341836 	0.327288
0.00250836 	-0.000220943 	-0.000346414 	0.328593
0.00255853 	-0.000218898 	-0.000350992 	0.329898
0.0026087 	-0.000216852 	-0.00035557 	0.331203
0.00265886 	-0.000214806 	-0.000360149 	0.332508
0.00270903 	-0.00021276 	-0.000364727 	0.333813
0.0027592 	-0.000210714 	-0.000369305 	0.335118
0.00280936 	-0.000208668 	-0.000373883 	0.336423
0.00285953 	-0.000206623 	-0.000378461 	0.337728
0.0029097 	-0.000204577 	-0.000383039 	0.339033
0.00295987 	-0.000202531 	-0.000387618 	0.340337
0.00301003 	-0.000200485 	-0.000392196 	0.341642
0.0030602 	-0.000198439 	-0.000396774 	0.342947
0.00311037 	-0.000196407 	-0.000401322 	0.344242
0.00316054 	-0.000194974 	-0.000404562 	0.345119
0.0032107 	-0.000193541 	-0.000407802 	0.345996
0.00326087 	-0.000192108 	-0.000411041 	0.346872
0.00331104 	-0.000190675 	-0.000414281 	0.347749
0.0033612 	-0.000189243 	-0.000417521 	0.348626
0.00341137 	-0.00018781 	-0.000420761 	0.349502
0.00346154 	-0.000186377 	-0.000424001 	0.350379
0.00351171 	-0.000184944 	-0.000427241 	0.351255
0.00356187 	-0.000183511 	-0.000430481 	0.352132
0.00361204 	-0.000182078 	-0.000433721 	0.353009
0.00366221 	-0.000180645 	-0.000436961 	0.353885
0.00371237 	-0.000179212 	-0.0004402 	0.354762
0.00376254 	-0.000177779 	-0.00044344 	0.355639
0.00381271 	-0.000176346 	-0.00044668 	0.356515
0.00386288 	-0.000174913 	-0.00044992 	0.357392
0.00391304 	-0.000173481 	-0.00045316 	0.358269
0.00396321 	-0.000172048 	-0.0004564 	0.359145
0.00401338 	-0.000171015 	-0.000458797 	0.359724
0.00406355 	-0.000170022 	-0.000461112 	0.360274
0.00411371 	-0.000169028 	-0.000463426 	0.360824
0.00416388 	-0.000168035 	-0.000465741 	0.361373
0.00421405 	-0.000167041 	-0.000468056 	0.361923
0.00426421 	-0.000166048 	-0.00047037 	0.362473
0.00431438 	-0.000165055 	-0.000472685 	0.363023
0.00436455 	-0.000164061 	-0.000475 	0.363572
0.00441472 	-0.000163068 	-0.000477314 	0.364122
0.00446488 	-0.000162074 	-0.000479629 	0.364672
0.00451505 	-0.000161081 	-0.000481943 	0.365222
0.00456522 	-0.000160088 	-0.000484258 	0.365772
0.00461538 	-0.000159094 	-0.000486573 	0.366321
0.00466555 	-0.000158101 	-0.000488887 	0.366871
0.00471572 	-0.000157107 	-0.000491202 	0.367421
0.00476589 	-0.000156114 	-0.000493517 	0.367971
0.00481605 	-0.000155121 	-0.000495831 	0.36852
0.00486622 	-0.000154127 	-0.000498146 	0.36907
0.00491639 	-0.000153134 	-0.000500461 	0.36962
0.00496656 	-0.00015214 	-0.000502775 	0.37017
0.00501672 	-0.000151352 	-0.000504372 	0.37047
0.00506689 	-0.000150575 	-0.000505931 	0.370757
0.00511706 	-0.000149798 	-0.00050749 	0.371045
0.00516722 	-0.000149021 	-0.000509049 	0.371332
0.00521739 	-0.000148244 	-0.000510608 	0.371619
0.00526756 	-0.000147467 	-0.000512166 	0.371906
0.00531773 	-0.00014669 	-0.000513725 	0.372194
0.00536789 	-0.000145913 	-0.000515284 	0.372481
0.00541806 	-0.000145136 	-0.000516843 	0.372768
0.00546823 	-0.000144359 	-0.000518402 	0.373055
0.00551839 	-0.000143582 	-0.00051996 	0.373342
0.00556856 	-0.000142805 	-0.000521519 	0.37363
0.00561873 	-0.000142028 	-0.000523078 	0.373917
0.0056689 	-0.000141251 	-0.000524637 	0.374204
0.00571906 	-0.000140474 	-0.000526196 	0.374491
0.00576923 	-0.000139697 	-0.000527754 	0.374779
0.0058194 	-0.00013892 	-0.000529313 	0.375066
0.00586957 	-0.000138142 	-0.000530872 	0.375353
0.00591973 	-0.000137365 	-0.000532431 	0.37564
0.0059699 	-0.000136588 	-0.00053399 	0.375927
0.00602007 	-0.000135811 	-0.000535549 	0.376215
0.00607023 	-0.000135034 	-0.000537107 	0.376502
0.0061204 	-0.000134257 	-0.000538666 	0.376789
0.00617057 	-0.000133577 	-0.00053971 	0.37693
0.00622074 	-0.000132946 	-0.000540494 	0.376997
0.0062709 	-0.000132315 	-0.000541277 	0.377064
0.00632107 	-0.000131684 	-0.00054206 	0.377131
0.00637124 	-0.000131054 	-0.000542844 	0.377198
0.0064214 	-0.000130423 	-0.000543627 	0.377265
0.00647157 	-0.000129792 	-0.00054441 	0.377332
0.00652174 	-0.000129161 	-0.000545194 	0.377399
0.00657191 	-0.00012853 	-0.000545977 	0.377466
0.00662207 	-0.000127899 	-0.00054676 	0.377533
0.00667224 	-0.000127268 	-0.000547544 	0.377599
0.00672241 	-0.000126637 	-0.000548327 	0.377666
0.00677258 	-0.000126006 	-0.00054911 	0.377733
0.00682274 	-0.000125375 	-0.000549893 	0.3778
0.00687291 	-0.000124745 	-0.000550677 	0.377867
0.00692308 	-0.000124114 	-0.00055146 	0.377934
0.00697324 	-0.000123483 	-0.000552243 	0.378001
0.00702341 	-0.000122852 	-0.000553027 	0.378068
0.00707358 	-0.000122221 	-0.00055381 	0.378135
0.00712375 	-0.00012159 	-0.000554593 	0.378202
0.00717391 	-0.000120959 	-0.000555377 	0.378269
0.00722408 	-0.000120328 	-0.00055616 	0.378336
0.00727425 	-0.000119697 	-0.000556943 	0.378403
0.00732441 	-0.000119067 	-0.000557727 	0.37847
0.00737458 	-0.000118436 	-0.00055851 	0.378537
0.00742475 	-0.000117805 	-0.000559293 	0.378603
0.00747492 	-0.000117174 	-0.000560076 	0.37867
0.00752508 	-0.0001166 	-0.000560475 	0.378638
0.00757525 	-0.000116084 	-0.00056049 	0.378507
0.00762542 	-0.000115568 	-0.000560504 	0.378376
0.00767559 	-0.000115052 	-0.000560518 	0.378244
0.00772575 	-0.000114536 	-0.000560532 	0.378113
0.00777592 	-0.00011402 	-0.000560547 	0.377982
0.00782609 	-0.000113504 	-0.000560561 	0.377851
0.00787625 	-0.000112988 	-0.000560575 	0.377719
0.00792642 	-0.000112472 	-0.000560589 	0.377588
0.00797659 	-0.000111956 	-0.000560604 	0.377457
0.00802676 	-0.00011144 	-0.000560618 	0.377326
0.00807692 	-0.000110924 	-0.000560632 	0.377194
0.00812709 	-0.000110408 	-0.000560647 	0.377063
0.00817726 	-0.000109892 	-0.000560661 	0.376932
0.00822742 	-0.000109375 	-0.000560675 	0.3768
0.00827759 	-0.000108859 	-0.000560689 	0.376669
0.00832776 	-0.000108343 	-0.000560704 	0.376538
0.00837793 	-0.000107827 	-0.000560718 	0.376407
0.00842809 	-0.000107311 	-0.000560732 	0.376275
0.00847826 	-0.000106795 	-0.000560746 	0.376144
0.00852843 	-0.000106279 	-0.000560761 	0.376013
0.0085786 	-0.000105763 	-0.000560775 	0.375882
0.00862876 	-0.000105247 	-0.000560789 	0.37575
0.00867893 	-0.000104731 	-0.000560803 	0.375619
0.0087291 	-0.000104215 	-0.000560818 	0.375488
0.00877926 	-0.000103699 	-0.000560832 	0.375357
0.00882943 	-0.000103183 	-0.000560846 	0.375225
0.0088796 	-0.00010272 	-0.000560544 	0.375013
0.00892977 	-0.000102364 	-0.000559618 	0.374642
0.00897993 	-0.000102007 	-0.000558692 	0.374271
0.0090301 	-0.00010165 	-0.000557766 	0.3739
0.00908027 	-0.000101294 	-0.00055684 	0.373529
0.00913043 	-0.000100937 	-0.000555914 	0.373158
0.0091806 	-0.00010058 	-0.000554988 	0.372787
0.00923077 	-0.000100224 	-0.000554062 	0.372415
0.00928094 	-9.98669e-05 	-0.000553136 	0.372044
0.0093311 	-9.95102e-05 	-0.00055221 	0.371673
0.00938127 	-9.91535e-05 	-0.000551283 	0.371302
0.00943144 	-9.87969e-05 	-0.000550357 	0.370931
0.00948161 	-9.84402e-05 	-0.000549431 	0.37056
0.00953177 	-9.80835e-05 	-0.000548505 	0.370189
0.00958194 	-9.77269e-05 	-0.000547579 	0.369818
0.00963211 	-9.73702e-05 	-0.000546653 	0.369446
0.00968227 	-9.70135e-05 	-0.000545727 	0.369075
0.00973244 	-9.66568e-05 	-0.000544801 	0.368704
0.00978261 	-9.63002e-05 	-0.000543875 	0.368333
0.00983278 	-9.59435e-05 	-0.000542949 	0.367962
0.00988294 	-9.55868e-05 	-0.000542023 	0.367591
0.00993311 	-9.52302e-05 	-0.000541097 	0.36722
0.00998328 	-9.48735e-05 	-0.000540171 	0.366849
0.0100334 	-9.45343e-05 	-0.000539189 	0.366463
0.0100836 	-9.45214e-05 	-0.000537161 	0.365808
0.0101338 	-9.45086e-05 	-0.000535134 	0.365154
0.0101839 	-9.44957e-05 	-0.000533107 	0.364499
0.0102341 	-9.44828e-05 	-0.00053108 	0.363844
0.0102843 	-9.447e-05 	-0.000529053 	0.36319
0.0103344 	-9.44571e-05 	-0.000527025 	0.362535
0.0103846 	-9.44442e-05 	-0.000524998 	0.36188
0.0104348 	-9.44313e-05 	-0.000522971 	0.361226
0.0104849 	-9.44185e-05 	-0.000520944 	0.360571
0.0105351 	-9.44056e-05 	-0.000518916 	0.359916
0.0105853 	-9.43927e-05 	-0.000516889 	0.359262
0.0106355 	-9.43799e-05 	-0.000514862 	0.358607
0.0106856 	-9.4367e-05 	-0.000512835 	0.357953
0.0107358 	-9.43541e-05 	-0.000510808 	0.357298
0.010786 	-9.43412e-05 	-0.00050878 	0.356643
0.0108361 	-9.43284e-05 	-0.000506753 	0.355989
0.0108863 	-9.43155e-05 	-0.000504726 	0.355334
0.0109365 	-9.43026e-05 	-0.000502699 	0.354679
0.0109866 	-9.42898e-05 	-0.000500671 	0.354025
0.0110368 	-9.43319e-05 	-0.000498502 	0.353337
0.011087 	-9.49348e-05 	-0.000494882 	0.352315
0.0111371 	-9.55378e-05 	-0.000491262 	0.351294
0.0111873 	-9.61407e-05 	-0.000487641 	0.350272
0.0112375 	-9.67437e-05 	-0.000484021 	0.34925
0.0112876 	-9.73466e-05 	-0.000480401 	0.348229
0.0113378 	-9.79496e-05 	-0.000476781 	0.347207
0.011388 	-9.85525e-05 	-0.000473161 	0.346185
0.0114381 	-9.91555e-05 	-0.000469541 	0.345163
0.0114883 	-9.97584e-05 	-0.00046592 	0.344142
0.0115385 	-0.000100361 	-0.0004623 	0.34312
0.0115886 	-0.000100964 	-0.00045868 	0.342098
0.0116388 	-0.000101567 	-0.00045506 	0.341076
0.011689 	-0.00010217 	-0.00045144 	0.340055
0.0117391 	-0.000102773 	-0.00044782 	0.339033
0.0117893 	-0.000103376 	-0.000444199 	0.338011
0.0118395 	-0.000103979 	-0.000440579 	0.33699
0.0118896 	-0.000104582 	-0.000436959 	0.335968
0.0119398 	-0.000106056 	-0.000430852 	0.334409
0.01199 	-0.00010755 	-0.000424687 	0.332838
0.0120401 	-0.000109044 	-0.000418523 	0.331267
0.0120903 	-0.000110538 	-0.000412358 	0.329696
0.0121405 	-0.000112032 	-0.000406194 	0.328125
0.0121906 	-0.000113526 	-0.000400029 	0.326554
0.0122408 	-0.00011502 	-0.000393865 	0.324983
0.012291 	-0.000116514 	-0.0003877 	0.323412
0.0123411 	-0.000118008 	-0.000381535 	0.321841
0.0123913 	-0.000119502 	-0.000375371 	0.32027
0.0124415 	-0.000120996 	-0.000369206 	0.318699
0.0124916 	-0.00012249 	-0.000363042 	0.317128
0.0125418 	-0.000123984 	-0.000356877 	0.315557
0.012592 	-0.000125478 	-0.000350713 	0.313986
0.0126421 	-0.000127222 	-0.000343586 	0.312131
0.0126923 	-0.000129529 	-0.000334302 	0.309639
0.0127425 	-0.000131835 	-0.000325018 	0.307147
0.0127926 	-0.000134141 	-0.000315734 	0.304656
0.0128428 	-0.000136447 	-0.000306449 	0.302164
0.012893 	-0.000138753 	-0.000297165 	0.299672
0.0129431 	-0.000141059 	-0.000287881 	0.29718
0.0129933 	-0.000143365 	-0.000278597 	0.294688
0.0130435 	-0.000145671 	-0.000269313 	0.292196
0.0130936 	-0.000147977 	-0.000260029 	0.289704
0.0131438 	-0.000150284 	-0.000250744 	0.287212
0.013194 	-0.00015259 	-0.00024146 	0.28472
0.0132441 	-0.000154896 	-0.000232176 	0.282228
0.0132943 	-0.000156899 	-0.0002213 	0.278524
0.0133445 	-0.000158793 	-0.000209846 	0.274379
0.0133946 	-0.000160686 	-0.000198392 	0.270233
0.0134448 	-0.000162579 	-0.000186938 	0.266088
0.013495 	-0.000164473 	-0.000175483 	0.261942
0.0135452 	-0.000166366 	-0.000164029 	0.257797
0.0135953 	-0.00016826 	-0.000152575 	0.253652
0.0136455 	-0.000170153 	-0.00014112 	0.249506
0.0136957 	-0.000172046 	-0.000129666 	0.245361
0.0137458 	-0.00017394 	-0.000118212 	0.241215
0.013796 	-0.000175833 	-0.000106758 	0.23707
0.0138462 	-0.000173832 	-9.69236e-05 	0.229632
0.0138963 	-0.000171642 	-8.71685e-05 	0.222034
0.0139465 	-0.000169451 	-7.74133e-05 	0.214436
0.0139967 	-0.00016726 	-6.76582e-05 	0.206837
0.0140468 	-0.000165069 	-5.79031e-05 	0.199239
0.014097 	-0.000162879 	-4.81479e-05 	0.191641
0.0141472 	-0.000160688 	-3.83928e-05 	0.184042
0.0141973 	-0.000158497 	-2.86377e-05 	0.176444
0.0142475 	-0.000156307 	-1.88825e-05 	0.168846
0.0142977 	-0.000148872 	-1.37724e-05 	0.158302
0.0143478 	-0.000139321 	-1.05357e-05 	0.146572
0.014398 	-0.000129771 	-7.29895e-06 	0.134841
0.0144482 	-0.00012022 	-4.06221e-06 	0.12311
0.0144983 	-0.00011067 	-8.25469e-07 	0.111379
0.0145485 	-0.00010112 	2.41127e-06 	0.0996484
0.0145987 	-9.15691e-05 	5.64801e-06 	0.0879176
0.0146488 	-8.20187e-05 	8.88475e-06 	0.0761868
0.014699 	-7.07021e-05 	8.44812e-06 	0.0651465
0.0147492 	-5.89184e-05 	7.0401e-06 	0.0542887
0.0147993 	-4.71347e-05 	5.63208e-06 	0.043431
0.0148495 	-3.5351e-05 	4.22406e-06 	0.0325732
0.0148997 	-2.35674e-05 	2.81604e-06 	0.0217155
0.0149498 	-1.17837e-05 	1.40802e-06 	0.0108577
0.015 	0 	0 	0
