
400
(
(1.40086e-06 0 0 1.40086e-06 0 1.40086e-06)
(1.08289e-06 -9.95821e-26 -3.07089e-28 1.08289e-06 6.76579e-25 1.08289e-06)
(6.90371e-07 -6.43421e-10 -1.98416e-12 6.90365e-07 4.37152e-09 6.90361e-07)
(2.85689e-06 -3.26519e-09 -3.11347e-12 2.85652e-06 1.48877e-08 2.85687e-06)
(6.27628e-07 1.06511e-09 -2.53718e-11 6.27851e-07 2.22292e-08 6.27548e-07)
(3.23207e-07 -2.24976e-10 -1.02255e-11 3.23357e-07 1.34415e-08 3.23151e-07)
(2.05733e-06 7.05141e-09 -2.43747e-10 2.05504e-06 1.53183e-07 2.05678e-06)
(2.3605e-06 8.03899e-09 -1.27141e-10 2.3617e-06 1.1557e-07 2.36001e-06)
(5.40913e-06 1.27932e-08 -1.35854e-09 5.41397e-06 6.7052e-07 5.40659e-06)
(7.66008e-06 3.88571e-08 -1.07345e-09 7.64033e-06 7.57249e-07 7.657e-06)
(1.14112e-05 6.74697e-09 -5.15133e-09 1.14078e-05 2.04747e-06 1.14026e-05)
(1.79637e-05 4.22157e-08 -5.21048e-09 1.80158e-05 2.93514e-06 1.79508e-05)
(2.05691e-05 -1.89128e-08 -1.48421e-08 2.05563e-05 4.83946e-06 2.05461e-05)
(3.44232e-05 -1.38473e-08 -1.73575e-08 3.43351e-05 7.89303e-06 3.43838e-05)
(3.30258e-05 -6.32213e-08 -3.4856e-08 3.30116e-05 9.48118e-06 3.29745e-05)
(5.70525e-05 -1.63348e-07 -4.44371e-08 5.70451e-05 1.65816e-05 5.69558e-05)
(4.85116e-05 -1.08649e-07 -6.99586e-08 4.84778e-05 1.60966e-05 4.84126e-05)
(8.51175e-05 -3.97719e-07 -9.38327e-08 8.50421e-05 2.91214e-05 8.49174e-05)
(6.63684e-05 -1.29808e-07 -1.24167e-07 6.6298e-05 2.44374e-05 6.61982e-05)
(0.000116816 -6.48938e-07 -1.71384e-07 0.000116709 4.46339e-05 0.000116453)
(8.57055e-05 -1.16689e-07 -1.99979e-07 8.55787e-05 3.39906e-05 8.54394e-05)
(0.000149998 -8.5578e-07 -2.80293e-07 0.000149762 6.16119e-05 0.000149407)
(0.000105577 -7.63595e-08 -2.98184e-07 0.00010539 4.41794e-05 0.00010519)
(0.000182524 -1.04324e-06 -4.21404e-07 0.000182179 7.85969e-05 0.000181634)
(0.000125159 -1.03669e-08 -4.18101e-07 0.000124903 5.44904e-05 0.00012463)
(0.000212772 -1.23112e-06 -5.94109e-07 0.000212332 9.46919e-05 0.000211515)
(0.000143875 1.08717e-07 -5.57215e-07 0.000143514 6.42882e-05 0.000143185)
(0.00023983 -1.36144e-06 -7.96464e-07 0.000239249 0.000109357 0.000238139)
(0.000161353 3.15485e-07 -7.13552e-07 0.000160845 7.32139e-05 0.000160488)
(0.000263589 -1.27231e-06 -1.01724e-06 0.000262788 0.000120819 0.000261423)
(0.000177372 6.05471e-07 -8.84882e-07 0.000176698 8.10816e-05 0.000176321)
(0.000284021 -8.27905e-07 -1.26549e-06 0.000282944 0.000130111 0.000281331)
(0.000191861 9.49852e-07 -1.06844e-06 0.000191027 8.78078e-05 0.00019062)
(0.000301307 -8.31174e-08 -1.54594e-06 0.000299979 0.00013786 0.000298053)
(0.00020484 1.33401e-06 -1.26421e-06 0.000203849 9.36532e-05 0.000203409)
(0.000315725 8.93681e-07 -1.86041e-06 0.000314166 0.000144309 0.000311879)
(0.000216369 1.75254e-06 -1.47223e-06 0.000215219 9.87712e-05 0.000214752)
(0.000327602 2.10638e-06 -2.2072e-06 0.000325802 0.000149437 0.000323148)
(0.000226525 2.19353e-06 -1.69085e-06 0.000225221 0.000103223 0.000224732)
(0.000337269 3.51476e-06 -2.58372e-06 0.000335234 0.000153397 0.000332201)
(0.000235401 2.64286e-06 -1.91797e-06 0.00023395 0.000107068 0.000233444)
(0.00034505 5.05775e-06 -2.98603e-06 0.000342787 0.000156351 0.000339376)
(0.00024309 3.09321e-06 -2.15182e-06 0.000241501 0.000110371 0.000240986)
(0.000351242 6.68244e-06 -3.40963e-06 0.000348769 0.000158529 0.000344984)
(0.000249681 3.55233e-06 -2.39205e-06 0.000247972 0.00011319 0.000247451)
(0.000356109 8.38314e-06 -3.85324e-06 0.000353453 0.000160075 0.000349297)
(0.000255255 4.03633e-06 -2.64028e-06 0.000253466 0.000115571 0.000252921)
(0.000359873 1.02161e-05 -4.32254e-06 0.000357091 0.000161134 0.000352541)
(0.000259898 4.53914e-06 -2.89922e-06 0.000258066 0.000117554 0.000257481)
(0.000362695 1.22232e-05 -4.83094e-06 0.000359962 0.00016178 0.000354877)
(0.000263706 4.99459e-06 -3.16889e-06 0.000261823 0.00011919 0.000261229)
(0.000364777 1.42757e-05 -5.38859e-06 0.000362166 0.000162075 0.000356511)
(0.000266758 5.29297e-06 -3.44252e-06 0.000264818 0.000120559 0.000264243)
(0.000366322 1.5965e-05 -5.98255e-06 0.000363707 0.000162195 0.000357655)
(0.000269118 5.37522e-06 -3.70778e-06 0.000267138 0.00012174 0.000266583)
(0.000367378 1.68835e-05 -6.56883e-06 0.000364784 0.000162419 0.000358376)
(0.000270837 5.29293e-06 -3.95514e-06 0.00026882 0.000122727 0.000268297)
(0.000368012 1.70698e-05 -7.09829e-06 0.000365438 0.000162836 0.000358758)
(0.000271932 5.16291e-06 -4.18639e-06 0.00026988 0.000123399 0.000269399)
(0.000368233 1.69351e-05 -7.56925e-06 0.000365752 0.000163317 0.000358807)
(0.000272402 5.06993e-06 -4.40843e-06 0.0002703 0.000123654 0.000269896)
(0.000368072 1.69033e-05 -8.02057e-06 0.000365842 0.000163504 0.000358538)
(0.000272241 5.00884e-06 -4.62376e-06 0.000270101 0.000123522 0.000269802)
(0.000367691 1.70856e-05 -8.48377e-06 0.000365606 0.000163226 0.000358097)
(0.00027148 4.92589e-06 -4.8338e-06 0.000269389 0.000123078 0.000269159)
(0.000367125 1.7278e-05 -8.96354e-06 0.000365208 0.000162697 0.000357488)
(0.000270255 4.78354e-06 -5.04475e-06 0.000268255 0.000122394 0.000268091)
(0.000366365 1.7341e-05 -9.44784e-06 0.000364758 0.000162006 0.000356671)
(0.00026876 4.58541e-06 -5.27009e-06 0.000266782 0.000121151 0.000266735)
(0.000365402 1.72706e-05 -9.92238e-06 0.000364175 0.000161089 0.000355636)
(0.00026709 4.35388e-06 -5.50825e-06 0.000265131 0.000119777 0.000265167)
(0.000364136 1.70904e-05 -1.03728e-05 0.000363442 0.0001603 0.000354344)
(0.000265248 4.11385e-06 -5.74563e-06 0.00026352 0.000119006 0.000263422)
(0.000362561 1.68548e-05 -1.08022e-05 0.000362477 0.000159211 0.000352824)
(0.000263354 3.87801e-06 -5.98586e-06 0.000261943 0.000118247 0.000261612)
(0.000360719 1.6584e-05 -1.12245e-05 0.000361244 0.000157068 0.000351101)
(0.000261578 3.598e-06 -6.22846e-06 0.000260128 0.000117099 0.000259906)
(0.000358629 1.61684e-05 -1.16342e-05 0.000359755 0.000154516 0.000349224)
(0.000259781 3.19773e-06 -6.44549e-06 0.000257825 0.000115702 0.000258206)
(0.000356525 1.53487e-05 -1.20273e-05 0.000357761 0.00015197 0.000347488)
(0.000257465 2.64682e-06 -6.60034e-06 0.000255072 0.000113914 0.000256074)
(0.000354795 1.37912e-05 -1.24287e-05 0.000355299 0.000149271 0.000346318)
(0.000253547 1.98963e-06 -6.68529e-06 0.000253508 0.00011152 0.000252456)
(0.000353476 1.13973e-05 -1.28784e-05 0.000353684 0.000146284 0.000345707)
(0.000249647 1.40547e-06 -6.72168e-06 0.000250564 0.000108487 0.000248972)
(0.000348744 8.60636e-06 -1.33971e-05 0.00036195 0.000142809 0.000341606)
(0.000249597 1.27045e-06 -6.77419e-06 0.000240279 0.000105047 0.00024929)
(0.000353752 6.67159e-06 -1.39755e-05 0.000354518 0.000138438 0.000346947)
(0.000248852 2.02823e-06 -6.67002e-06 0.000232979 0.000105199 0.00024879)
(0.000372222 7.07199e-06 -1.44946e-05 0.000324411 0.000142858 0.000365385)
(0.000241721 3.29282e-06 -6.07358e-06 0.000239994 0.000107939 0.000241975)
(0.000370047 1.01359e-05 -1.33509e-05 0.000339813 0.000160131 0.000363216)
(0.000233423 3.85746e-06 -5.33138e-06 0.000249296 0.000107412 0.000234004)
(0.000349513 1.29715e-05 -9.84678e-06 0.000394361 0.000181888 0.000343152)
(0.000229327 3.44552e-06 -5.06495e-06 0.000245962 0.000105145 0.00022999)
(0.000334452 1.44002e-05 -7.41299e-06 0.000430437 0.000219092 0.000328369)
(0.000232183 2.09392e-06 -5.58166e-06 0.000222388 9.79249e-05 0.000232678)
(0.000347442 1.20534e-05 -7.22518e-06 0.000382442 0.000210581 0.000341429)
(0.00023559 8.03392e-08 -6.6635e-06 0.000195849 7.69633e-05 0.000235972)
(0.000384843 5.67781e-06 -9.86675e-06 0.000266236 0.000122739 0.000378524)
(0.000225373 -1.88119e-07 -7.36545e-06 0.000199155 6.21321e-05 0.000225893)
(0.000373738 4.33287e-06 -1.30709e-05 0.00025364 4.00486e-05 0.000367393)
(0.00020896 1.50235e-06 -7.60272e-06 0.000218009 6.78283e-05 0.0002096)
(0.000319467 1.11518e-05 -1.34193e-05 0.000334888 4.96722e-05 0.000313717)
(0.000201169 2.80684e-06 -7.81959e-06 0.00022166 7.64564e-05 0.000201808)
(0.000292967 1.68037e-05 -1.39528e-05 0.000365177 8.13681e-05 0.000287768)
(0.000200868 3.12997e-06 -7.92179e-06 0.000210419 7.85856e-05 0.000201662)
(0.000293501 1.8241e-05 -1.42927e-05 0.00034308 9.108e-05 0.00028929)
(0.000199928 2.96186e-06 -7.88934e-06 0.000199105 7.6254e-05 0.000201145)
(0.000304238 1.69537e-05 -1.46548e-05 0.000303827 8.49634e-05 0.000301277)
(0.000194742 2.75071e-06 -7.73794e-06 0.000195109 7.27371e-05 0.00019662)
(0.000300276 1.52097e-05 -1.51105e-05 0.000299181 7.76361e-05 0.000298445)
(0.000189292 2.53892e-06 -7.63413e-06 0.000192278 6.68375e-05 0.000191696)
(0.000293819 1.34505e-05 -1.5635e-05 0.000305237 7.16018e-05 0.000292505)
(0.000185265 2.21506e-06 -7.64023e-06 0.000188359 6.16194e-05 0.0001879)
(0.000293046 1.15028e-05 -1.60582e-05 0.000303947 6.81687e-05 0.000292055)
(0.00018165 1.81239e-06 -7.63314e-06 0.000185068 5.99259e-05 0.000184452)
(0.000292193 9.49019e-06 -1.63336e-05 0.000305514 6.43516e-05 0.000291775)
(0.000178245 1.43494e-06 -7.61297e-06 0.000182467 5.83178e-05 0.000181209)
(0.000292526 7.40365e-06 -1.6639e-05 0.000307612 5.73063e-05 0.000292841)
(0.000175147 1.07044e-06 -7.61514e-06 0.000180131 5.57381e-05 0.000178322)
(0.000294152 5.20162e-06 -1.70498e-05 0.000310421 5.04591e-05 0.000295309)
(0.000172477 6.6018e-07 -7.63635e-06 0.000177579 5.24688e-05 0.000175995)
(0.00029708 2.95009e-06 -1.75171e-05 0.000314224 4.45344e-05 0.000299149)
(0.00017005 1.83876e-07 -7.6183e-06 0.000174982 4.88291e-05 0.00017397)
(0.00030166 7.24933e-07 -1.79134e-05 0.000318669 3.90478e-05 0.00030467)
(0.000167898 -3.06933e-07 -7.50572e-06 0.000172143 4.48279e-05 0.000172209)
(0.000307523 -1.47137e-06 -1.81876e-05 0.000324993 3.35411e-05 0.000311533)
(0.000165202 -7.80646e-07 -7.28763e-06 0.000170968 4.05831e-05 0.000169935)
(0.000316746 -3.61728e-06 -1.83512e-05 0.000329658 2.74922e-05 0.000321794)
(0.000162733 -1.16515e-06 -7.00819e-06 0.000170676 3.6312e-05 0.000167867)
(0.000322104 -5.65165e-06 -1.8451e-05 0.000347547 2.17799e-05 0.000328051)
(0.000165677 -1.47633e-06 -6.73828e-06 0.000161487 3.42315e-05 0.000171094)
(0.000334254 -6.72592e-06 -1.84607e-05 0.000357234 1.62185e-05 0.000340986)
(0.000167144 -1.58786e-06 -6.30671e-06 0.0001577 4.07441e-05 0.000172516)
(0.000371361 -7.53176e-06 -1.83575e-05 0.000321962 2.48981e-05 0.000378946)
(0.000159216 -1.54861e-06 -5.27301e-06 0.000175933 4.63272e-05 0.000163632)
(0.000369271 -7.38684e-06 -1.6302e-05 0.000371073 7.67008e-05 0.000377006)
(0.000153777 -3.66829e-06 -4.25863e-06 0.00018922 5.08965e-05 0.000157318)
(0.000338603 -5.99181e-06 -1.01762e-05 0.000482855 0.000127269 0.000344493)
(0.000166754 -8.85869e-06 -4.39822e-06 0.000162049 5.76849e-05 0.000171276)
(0.000358094 -1.65692e-05 -9.41632e-06 0.000477148 0.000166247 0.000365167)
(0.000186894 -9.63161e-06 -4.72465e-06 0.000122947 2.89691e-05 0.000192187)
(0.000459366 -4.63865e-05 -1.43093e-05 0.000293398 0.00014353 0.000470708)
(0.000180704 -1.97774e-06 -4.01812e-06 0.000144315 -1.84135e-05 0.000186153)
(0.000507937 -2.19604e-05 -1.29775e-05 0.000233169 -6.8315e-05 0.000517652)
(0.000162635 3.85286e-06 -2.38986e-06 0.000191072 -2.95098e-05 0.00016892)
(0.000411259 4.38335e-05 -1.08643e-05 0.000480256 -0.000354104 0.000420173)
(0.000161632 4.42149e-06 -9.58935e-07 0.000194647 -2.28932e-05 0.000168826)
(0.00036725 6.80103e-05 -7.60152e-06 0.000592292 -0.000453077 0.000376938)
(0.000168521 3.78735e-06 -9.92e-07 0.000173619 -2.28658e-05 0.000176913)
(0.00041307 4.37048e-05 -6.82928e-06 0.000466455 -0.0002902 0.000425693)
(0.000169359 -4.48065e-08 -1.08237e-06 0.000166043 -1.28703e-05 0.000178682)
(0.000436248 1.15625e-05 -5.96422e-06 0.000370657 -0.000128527 0.000455575)
(0.00016536 -4.06575e-06 -4.52291e-07 0.000174033 -3.71614e-06 0.00017502)
(0.000403298 -1.54785e-05 -1.47686e-06 0.000406246 -2.17372e-05 0.000423679)
(0.000165534 -5.14274e-06 -5.56077e-08 0.000178716 -1.17549e-05 0.000175281)
(0.000385063 -2.01502e-05 1.08559e-06 0.00042369 -2.79022e-05 0.000405744)
(0.000169145 -5.51809e-06 7.1852e-08 0.000180474 -2.63324e-05 0.000178738)
(0.000385544 -2.03053e-05 2.2928e-06 0.000411751 -6.32715e-05 0.000406037)
(4.89649e-07 0 0 4.89649e-07 0 4.89649e-07)
(3.44509e-07 -6.96004e-11 -5.23106e-13 3.44503e-07 2.08484e-09 3.44508e-07)
(5.38486e-07 8.02409e-10 -1.43361e-11 5.38388e-07 2.1099e-08 5.38495e-07)
(1.93744e-06 5.15755e-09 -1.62159e-10 1.93672e-06 1.49998e-07 1.93765e-06)
(5.19444e-06 1.41142e-08 -9.54379e-10 5.19131e-06 6.47483e-07 5.19581e-06)
(1.10971e-05 2.70263e-08 -3.70797e-09 1.10871e-05 1.99645e-06 1.11024e-05)
(2.0239e-05 4.40483e-08 -1.07982e-08 2.02139e-05 4.82594e-06 2.0254e-05)
(3.28447e-05 6.60877e-08 -2.54311e-08 3.27926e-05 9.68559e-06 3.28788e-05)
(4.86802e-05 9.7119e-08 -5.09549e-08 4.85864e-05 1.6802e-05 4.87461e-05)
(6.70874e-05 1.43672e-07 -9.00696e-08 6.69363e-05 2.59643e-05 6.72001e-05)
(8.71389e-05 2.06372e-07 -1.4431e-07 8.69167e-05 3.65966e-05 8.73143e-05)
(0.000107844 2.68322e-07 -2.12122e-07 0.00010755 4.75997e-05 0.000108095)
(0.000128339 2.98847e-07 -2.92017e-07 0.000127978 5.79675e-05 0.000128674)
(0.000147994 2.85124e-07 -3.84153e-07 0.000147563 6.76654e-05 0.000148422)
(0.000166441 2.44634e-07 -4.87564e-07 0.000165932 7.68627e-05 0.000166971)
(0.00018348 1.98946e-07 -5.99396e-07 0.000182887 8.52062e-05 0.000184123)
(0.000199002 1.49465e-07 -7.16999e-07 0.000198322 9.25213e-05 0.000199767)
(0.000212975 8.26529e-08 -8.4099e-07 0.0002122 9.90172e-05 0.000213871)
(0.000225406 -9.88733e-09 -9.72251e-07 0.00022453 0.000104796 0.00022644)
(0.000236336 -1.31015e-07 -1.11031e-06 0.000235365 0.000109881 0.000237514)
(0.000245829 -2.75776e-07 -1.25389e-06 0.00024479 0.000114301 0.000247157)
(0.000253969 -4.11244e-07 -1.4e-06 0.000252907 0.000118102 0.000255445)
(0.000260865 -4.64629e-07 -1.54476e-06 0.000259764 0.00012133 0.000262485)
(0.000266625 -3.62805e-07 -1.68787e-06 0.000265331 0.000124009 0.000268387)
(0.00027126 -1.51825e-07 -1.83887e-06 0.000269673 0.00012615 0.000273179)
(0.00027471 -5.7979e-08 -2.01455e-06 0.000273018 0.000127788 0.00027682)
(0.000277041 -4.00514e-07 -2.22196e-06 0.000275564 0.000128994 0.000279379)
(0.000278544 -1.48828e-06 -2.44832e-06 0.000277345 0.000129823 0.00028112)
(0.000279647 -3.25817e-06 -2.66976e-06 0.000278269 0.000129694 0.00028241)
(0.000280588 -4.83385e-06 -2.86653e-06 0.000278386 0.000129064 0.000283451)
(0.000281159 -4.67478e-06 -3.03859e-06 0.000278225 0.000129596 0.000284048)
(0.000280967 -2.10762e-06 -3.20675e-06 0.000278296 0.000130142 0.000283835)
(0.000280148 1.051e-06 -3.40146e-06 0.000277655 0.000129361 0.000283057)
(0.000279016 2.56213e-06 -3.63193e-06 0.000275192 0.000127189 0.00028212)
(0.000277054 1.77294e-06 -3.88033e-06 0.00027244 0.000122192 0.000280438)
(0.000273478 -8.70675e-07 -4.12442e-06 0.000272326 0.000115862 0.000277127)
(0.000269295 -3.39894e-06 -4.34755e-06 0.000274347 0.000115105 0.000273088)
(0.00026792 -3.71695e-06 -4.16976e-06 0.000272589 0.000119983 0.000271493)
(0.000268792 -2.77283e-06 -3.68196e-06 0.000266984 0.000121819 0.000271927)
(0.000267879 -3.27768e-06 -3.54712e-06 0.000262607 0.000118473 0.000270767)
(0.000264229 -6.56733e-06 -3.85985e-06 0.000259766 0.000111604 0.000267144)
(0.000259085 -1.07098e-05 -4.22713e-06 0.00025698 0.000103178 0.000262289)
(0.00025447 -9.10148e-06 -4.15264e-06 0.000252249 0.000102425 0.000258058)
(0.000250094 -7.48211e-08 -4.00578e-06 0.000247459 0.00010584 0.000253802)
(0.000244526 6.73876e-06 -4.29333e-06 0.000243791 0.000104481 0.000248402)
(0.000238238 7.89911e-06 -4.73303e-06 0.000238755 0.000102217 0.000242645)
(0.000232263 6.41881e-06 -5.07999e-06 0.000231614 0.00010067 0.000237296)
(0.000226653 1.43639e-06 -5.50574e-06 0.000224657 9.45562e-05 0.000232016)
(0.000220925 -2.72526e-06 -5.98929e-06 0.000220387 8.72457e-05 0.000226274)
(0.00021586 -2.92513e-06 -6.26786e-06 0.000217048 8.42961e-05 0.000221226)
(0.000211967 -2.15894e-06 -6.35708e-06 0.000213305 8.30186e-05 0.000217434)
(0.000208867 -1.66494e-06 -6.41504e-06 0.000209925 8.17965e-05 0.00021431)
(0.000206303 -1.33323e-06 -6.48183e-06 0.000207127 7.95322e-05 0.000211515)
(0.000203653 -1.05782e-06 -6.41537e-06 0.000204854 7.65964e-05 0.00020859)
(0.000200429 -7.56043e-07 -6.15923e-06 0.000202644 7.34032e-05 0.00020521)
(0.000197624 -4.67073e-07 -5.82182e-06 0.000198452 6.96696e-05 0.000202558)
(0.000196114 -4.47838e-07 -5.74054e-06 0.000192184 6.05005e-05 0.000201263)
(0.000193672 -1.09743e-06 -5.91396e-06 0.000189544 4.41572e-05 0.000198835)
(0.0001875 -2.15919e-06 -6.03591e-06 0.000196065 2.68297e-05 0.000192598)
(0.000180207 -1.96809e-06 -6.05341e-06 0.000206186 3.34253e-05 0.000185175)
(0.000181971 2.19458e-07 -4.78647e-06 0.000199568 6.06691e-05 0.000186132)
(0.000186186 2.13511e-06 -2.94098e-06 0.000183893 7.13307e-05 0.000189514)
(0.000181783 2.95178e-06 -2.32685e-06 0.000177097 6.73541e-05 0.000185117)
(0.000171822 3.5143e-06 -2.96987e-06 0.000176786 6.26729e-05 0.000175708)
(0.000162358 3.34484e-06 -3.48587e-06 0.000175314 4.81974e-05 0.000166684)
(0.000157844 2.98734e-06 -3.20004e-06 0.000166158 3.32489e-05 0.000162161)
(0.000154267 3.09608e-06 -2.94945e-06 0.000157402 2.8725e-05 0.000158488)
(0.000149495 3.3037e-06 -2.73585e-06 0.000153135 2.53274e-05 0.000153546)
(0.000145281 3.47245e-06 -2.54375e-06 0.00014984 2.10167e-05 0.000149147)
(0.000142205 3.60189e-06 -2.37894e-06 0.000146761 1.62657e-05 0.000145857)
(0.000140033 3.71084e-06 -2.26532e-06 0.000144881 1.15241e-05 0.000143436)
(0.000139018 3.81734e-06 -2.29065e-06 0.000144113 7.0186e-06 0.000142136)
(0.000139348 3.88115e-06 -2.45487e-06 0.000144345 2.81203e-06 0.000142187)
(0.000140818 3.90416e-06 -2.35228e-06 0.000145969 -1.27013e-06 0.000143613)
(0.000143085 4.06617e-06 -1.29963e-06 0.000149399 -5.50773e-06 0.000146395)
(0.000146472 4.45106e-06 8.87699e-08 0.00015429 -9.64216e-06 0.000150532)
(0.000150867 4.42317e-06 8.41187e-07 0.000161485 -1.56249e-05 0.000155456)
(0.000155974 2.24224e-06 1.09263e-06 0.000172038 -3.1586e-05 0.000160873)
(0.000165094 -1.42865e-06 8.65277e-07 0.000179333 -4.7368e-05 0.000170402)
(0.000177653 -3.76506e-06 8.56593e-07 0.000183457 -5.4415e-05 0.000183272)
(8.07617e-07 0 0 8.07617e-07 0 8.07617e-07)
(5.31841e-07 -6.06864e-11 -1.09163e-12 5.31833e-07 3.1965e-09 5.31842e-07)
(5.9253e-07 4.63616e-10 -1.58113e-11 5.92423e-07 2.49952e-08 5.92551e-07)
(2.02064e-06 2.83476e-09 -1.55331e-10 2.01988e-06 1.69064e-07 2.02093e-06)
(5.37111e-06 5.59405e-09 -8.69339e-10 5.36777e-06 7.12704e-07 5.37286e-06)
(1.14194e-05 3.61211e-09 -3.29108e-09 1.14086e-05 2.16019e-06 1.14261e-05)
(2.07307e-05 -9.60259e-09 -9.42371e-09 2.07036e-05 5.14964e-06 2.07495e-05)
(3.34749e-05 -4.01811e-08 -2.19142e-08 3.34183e-05 1.02101e-05 3.35174e-05)
(4.93436e-05 -8.9579e-08 -4.34589e-08 4.9241e-05 1.75145e-05 4.9425e-05)
(6.76009e-05 -1.52913e-07 -7.61626e-08 6.74349e-05 2.678e-05 6.77386e-05)
(8.72577e-05 -2.25956e-07 -1.21168e-07 8.70131e-05 3.73669e-05 8.74687e-05)
(0.000107292 -3.16066e-07 -1.76811e-07 0.000106967 4.81382e-05 0.000107588)
(0.000126841 -4.38818e-07 -2.41732e-07 0.000126439 5.80761e-05 0.000127226)
(0.000145304 -5.9131e-07 -3.16357e-07 0.000144822 6.71541e-05 0.000145783)
(0.000162361 -7.41686e-07 -3.98187e-07 0.000161789 7.54021e-05 0.000162935)
(0.000177861 -8.62207e-07 -4.86542e-07 0.000177194 8.2681e-05 0.00017853)
(0.000191728 -9.53556e-07 -5.83053e-07 0.000190965 8.91267e-05 0.00019249)
(0.000203953 -1.03004e-06 -6.87841e-07 0.000203091 9.48063e-05 0.000204806)
(0.000214581 -1.09896e-06 -8.01147e-07 0.000213614 9.97392e-05 0.000215519)
(0.000223692 -1.16305e-06 -9.23032e-07 0.000222626 0.000103969 0.00022471)
(0.000231393 -1.22006e-06 -1.05277e-06 0.000230257 0.000107546 0.000232482)
(0.000237805 -1.24088e-06 -1.18801e-06 0.000236647 0.000110529 0.000238954)
(0.000243073 -1.15679e-06 -1.32549e-06 0.000241881 0.000112983 0.000244264)
(0.000247333 -8.99137e-07 -1.4655e-06 0.000245958 0.000114942 0.000248554)
(0.000250616 -5.19962e-07 -1.61826e-06 0.000248963 0.000116386 0.000251868)
(0.00025287 -2.49209e-07 -1.80048e-06 0.000251134 0.000117357 0.000254181)
(0.00025416 -4.03944e-07 -2.01877e-06 0.000252663 0.000117948 0.000255566)
(0.000254778 -1.29168e-06 -2.26001e-06 0.000253568 0.000118202 0.000256294)
(0.000255151 -2.85619e-06 -2.49939e-06 0.000253761 0.000117544 0.000256741)
(0.000255543 -4.23861e-06 -2.71068e-06 0.00025333 0.00011639 0.000257135)
(0.000255793 -3.9162e-06 -2.89608e-06 0.000252857 0.000116451 0.000257312)
(0.000255556 -1.21597e-06 -3.0869e-06 0.000252886 0.00011668 0.000256925)
(0.000254966 2.07071e-06 -3.31503e-06 0.000252447 0.000115718 0.000256191)
(0.000254235 3.73807e-06 -3.58158e-06 0.000250375 0.000113473 0.000255428)
(0.000252691 3.13164e-06 -3.85047e-06 0.000248126 0.00010885 0.000253971)
(0.000249488 6.71233e-07 -4.09695e-06 0.000248475 0.000102891 0.000250905)
(0.000245653 -1.70005e-06 -4.3167e-06 0.000250742 0.00010173 0.000247126)
(0.000244509 -1.90964e-06 -4.12744e-06 0.000249082 0.000106011 0.000245705)
(0.000245418 -8.98885e-07 -3.62219e-06 0.000243664 0.000107487 0.000246141)
(0.000244606 -1.37719e-06 -3.4911e-06 0.000239687 0.000103915 0.000245051)
(0.000241598 -4.7015e-06 -3.86159e-06 0.000237546 9.70419e-05 0.000242036)
(0.000237911 -8.93673e-06 -4.34555e-06 0.000235888 8.89096e-05 0.000238566)
(0.000235364 -7.44508e-06 -4.42878e-06 0.000232742 8.86904e-05 0.000236225)
(0.000233113 1.47271e-06 -4.42185e-06 0.00022992 9.41305e-05 0.000233844)
(0.000229417 8.36115e-06 -4.78661e-06 0.000228467 9.49564e-05 0.000230011)
(0.000224793 9.95363e-06 -5.22925e-06 0.000225615 9.28438e-05 0.000225605)
(0.000220318 9.08604e-06 -5.48552e-06 0.000220228 9.10933e-05 0.000221618)
(0.000215986 4.57258e-06 -5.74991e-06 0.000214312 8.56045e-05 0.000217709)
(0.000211191 5.96661e-07 -6.08623e-06 0.000210455 7.93121e-05 0.000213056)
(0.000206612 3.91136e-07 -6.30976e-06 0.000207197 7.71868e-05 0.000208518)
(0.000202705 1.12084e-06 -6.42011e-06 0.000203327 7.54959e-05 0.000204632)
(0.000199014 1.58601e-06 -6.46745e-06 0.000199616 7.29518e-05 0.000200972)
(0.000195453 1.8604e-06 -6.48426e-06 0.000196301 6.97227e-05 0.000197419)
(0.000192041 2.0173e-06 -6.44638e-06 0.000193505 6.61187e-05 0.00019394)
(0.000188899 2.10499e-06 -6.33556e-06 0.000191088 6.2576e-05 0.000190675)
(0.000187029 2.08224e-06 -6.24673e-06 0.000187053 5.90149e-05 0.000188725)
(0.000186418 1.73312e-06 -6.34502e-06 0.000181426 5.27253e-05 0.00018813)
(0.000184354 7.77416e-07 -6.56369e-06 0.000179753 3.86442e-05 0.000186134)
(0.000178513 -4.97253e-07 -6.72864e-06 0.000186957 1.95292e-05 0.000180372)
(0.000171781 -4.9511e-07 -6.8097e-06 0.000197446 2.35314e-05 0.000173698)
(0.000174305 1.50481e-06 -5.60719e-06 0.000191477 4.8851e-05 0.000175552)
(0.000179587 3.26293e-06 -3.81546e-06 0.000177186 5.86257e-05 0.00017994)
(0.000176837 3.98528e-06 -3.26467e-06 0.000172404 5.47705e-05 0.000177074)
(0.000169279 4.48075e-06 -4.00604e-06 0.000174573 5.08223e-05 0.000170023)
(0.000162845 4.24927e-06 -4.6624e-06 0.000176007 3.72946e-05 0.000163974)
(0.00016162 3.87582e-06 -4.52105e-06 0.000170115 2.34041e-05 0.00016269)
(0.000161353 4.03184e-06 -4.35685e-06 0.000164752 2.02612e-05 0.000162372)
(0.000159865 4.32288e-06 -4.17228e-06 0.000163671 1.84262e-05 0.000160843)
(0.000158659 4.59784e-06 -3.97709e-06 0.000163318 1.55145e-05 0.000159631)
(0.000158016 4.85919e-06 -3.78036e-06 0.000162743 1.16905e-05 0.00015904)
(0.000157653 5.12578e-06 -3.62815e-06 0.000162338 6.99274e-06 0.000158744)
(0.000157574 5.43077e-06 -3.60545e-06 0.000162126 1.70905e-06 0.000158633)
(0.00015768 5.75504e-06 -3.67617e-06 0.000162379 -3.70586e-06 0.000158541)
(0.000157856 5.95138e-06 -3.40439e-06 0.000163189 -8.57404e-06 0.000158439)
(0.00015781 5.99073e-06 -2.13307e-06 0.00016463 -1.22249e-05 0.000158526)
(0.000157889 6.04669e-06 -5.19293e-07 0.000166352 -1.45663e-05 0.000159149)
(0.000158167 5.69594e-06 4.54316e-07 0.000169442 -1.82949e-05 0.000159917)
(0.000158594 3.29248e-06 9.14816e-07 0.000175086 -3.1695e-05 0.00016071)
(0.000162632 -4.44516e-07 8.77971e-07 0.000176893 -4.4161e-05 0.000165288)
(0.000169796 -2.70556e-06 1.0308e-06 0.000175433 -4.71253e-05 0.000173034)
(1.40086e-06 0 0 1.40086e-06 0 1.40086e-06)
(8.77703e-07 -6.34507e-10 -2.55269e-12 8.77695e-07 5.48319e-09 8.77695e-07)
(6.81672e-07 7.26318e-10 -2.6847e-11 6.81885e-07 2.61254e-08 6.81604e-07)
(2.14054e-06 4.72862e-09 -2.36919e-10 2.1382e-06 1.72249e-07 2.14006e-06)
(5.5858e-06 4.27308e-09 -1.2735e-09 5.59043e-06 7.35741e-07 5.58364e-06)
(1.17335e-05 -1.66672e-08 -4.73444e-09 1.17294e-05 2.21121e-06 1.17263e-05)
(2.10608e-05 -7.25636e-08 -1.34676e-08 2.10461e-05 5.16316e-06 2.10415e-05)
(3.3656e-05 -1.6949e-07 -3.13391e-08 3.36374e-05 1.00057e-05 3.3613e-05)
(4.9175e-05 -2.95347e-07 -6.24626e-08 4.91324e-05 1.6809e-05 4.90915e-05)
(6.68819e-05 -4.26393e-07 -1.1026e-07 6.67966e-05 2.52531e-05 6.67368e-05)
(8.58243e-05 -5.49018e-07 -1.76837e-07 8.56751e-05 3.47609e-05 8.55938e-05)
(0.000105024 -6.60748e-07 -2.62873e-07 0.000104807 4.47179e-05 0.000104683)
(0.00012366 -7.48031e-07 -3.67816e-07 0.000123365 5.4599e-05 0.000123182)
(0.000141184 -7.67716e-07 -4.89418e-07 0.000140774 6.37769e-05 0.000140546)
(0.000157273 -6.70835e-07 -6.24175e-07 0.000156702 7.17532e-05 0.000156452)
(0.000171753 -4.55682e-07 -7.72027e-07 0.000171006 7.85565e-05 0.000170728)
(0.000184586 -1.53169e-07 -9.34491e-07 0.00018367 8.44132e-05 0.000183343)
(0.000195819 2.21319e-07 -1.11106e-06 0.000194739 8.94423e-05 0.000194344)
(0.000205544 6.63467e-07 -1.30113e-06 0.000204302 9.37143e-05 0.000203831)
(0.000213882 1.1615e-06 -1.50357e-06 0.000212482 9.73104e-05 0.000211927)
(0.000220965 1.69857e-06 -1.71685e-06 0.000219416 0.000100313 0.000218769)
(0.000226926 2.26357e-06 -1.93984e-06 0.000225241 0.000102798 0.000224494)
(0.000231889 2.86017e-06 -2.17278e-06 0.000230089 0.000104842 0.00022923)
(0.000235964 3.5e-06 -2.41791e-06 0.000234093 0.000106504 0.000233087)
(0.000239254 4.17101e-06 -2.6786e-06 0.000237355 0.000107791 0.000236171)
(0.000241865 4.80336e-06 -2.95482e-06 0.000239939 0.000108759 0.00023859)
(0.000243878 5.28954e-06 -3.23933e-06 0.000241918 0.000109514 0.00024043)
(0.000245351 5.57181e-06 -3.51947e-06 0.000243362 0.000110119 0.000241757)
(0.00024634 5.69491e-06 -3.78476e-06 0.000244313 0.000110577 0.000242628)
(0.000246886 5.75816e-06 -4.03054e-06 0.000244824 0.000110724 0.000243082)
(0.000247035 5.82851e-06 -4.26591e-06 0.000244933 0.000110509 0.00024316)
(0.00024683 5.9005e-06 -4.50391e-06 0.000244691 0.000110059 0.000242893)
(0.000246297 5.9456e-06 -4.74737e-06 0.000244181 0.000109435 0.000242293)
(0.000245474 5.95948e-06 -4.99441e-06 0.000243438 0.000108679 0.0002414)
(0.000244397 5.94411e-06 -5.24023e-06 0.000242468 0.000107808 0.000240267)
(0.0002431 5.89579e-06 -5.48079e-06 0.00024128 0.000106806 0.000238945)
(0.000241605 5.81273e-06 -5.71479e-06 0.000239915 0.000105631 0.000237459)
(0.000239943 5.68531e-06 -5.94354e-06 0.000238437 0.000104274 0.000235825)
(0.000238203 5.47195e-06 -6.1687e-06 0.000236808 0.000102767 0.00023412)
(0.000236508 5.09821e-06 -6.38946e-06 0.000234905 0.000101145 0.000232491)
(0.000234835 4.51264e-06 -6.60208e-06 0.000232852 9.93523e-05 0.000230965)
(0.000232373 3.76273e-06 -6.8037e-06 0.000232416 9.72512e-05 0.000228733)
(0.000230541 3.06187e-06 -6.99782e-06 0.000231058 9.47522e-05 0.000227139)
(0.000232616 2.81798e-06 -7.19026e-06 0.00022274 9.33378e-05 0.000229331)
(0.000233743 3.65062e-06 -7.16329e-06 0.000217656 9.56736e-05 0.000230399)
(0.000228276 5.34735e-06 -6.56979e-06 0.000226854 9.85661e-05 0.000224936)
(0.000221477 6.52468e-06 -5.73691e-06 0.00023791 9.78357e-05 0.000218326)
(0.00021866 6.58171e-06 -5.30912e-06 0.000235617 9.61935e-05 0.000215683)
(0.000222448 5.41584e-06 -5.6786e-06 0.000212456 8.99913e-05 0.00021946)
(0.000226343 3.3966e-06 -6.7054e-06 0.000185998 6.9854e-05 0.000223263)
(0.000216111 3.09166e-06 -7.42847e-06 0.000189177 5.46094e-05 0.000213091)
(0.000199107 4.7533e-06 -7.65514e-06 0.000207701 5.89836e-05 0.000196262)
(0.00019032 6.00047e-06 -7.82202e-06 0.000210834 6.6647e-05 0.000187712)
(0.000189256 6.20508e-06 -7.95281e-06 0.00019907 6.81079e-05 0.000187013)
(0.000188398 5.82289e-06 -8.06566e-06 0.000187549 6.54267e-05 0.00018661)
(0.000184147 5.30003e-06 -8.16286e-06 0.000183709 6.20824e-05 0.000182787)
(0.000179596 4.71988e-06 -8.23861e-06 0.00018152 5.90623e-05 0.000178564)
(0.000175947 4.08991e-06 -8.28996e-06 0.000178568 5.61064e-05 0.000175199)
(0.000172664 3.47433e-06 -8.32587e-06 0.000175961 5.26255e-05 0.000172226)
(0.000169818 2.90792e-06 -8.36926e-06 0.000173727 4.84239e-05 0.000169732)
(0.000167481 2.3558e-06 -8.43586e-06 0.00017204 4.39201e-05 0.000167741)
(0.000165879 1.788e-06 -8.51083e-06 0.000170872 3.97638e-05 0.000166422)
(0.000165104 1.21737e-06 -8.55612e-06 0.000170289 3.62455e-05 0.000165927)
(0.000165355 6.59521e-07 -8.54189e-06 0.000169929 3.29773e-05 0.000166524)
(0.000165689 1.23778e-07 -8.46415e-06 0.000171661 2.96803e-05 0.000167226)
(0.00016651 -2.76677e-07 -8.3292e-06 0.000174634 2.64672e-05 0.000168396)
(0.000172764 -5.40576e-07 -8.14568e-06 0.000168837 2.57676e-05 0.000174978)
(0.000177514 -5.6867e-07 -7.74314e-06 0.000168236 3.38429e-05 0.000179814)
(0.000172593 -4.23228e-07 -6.70634e-06 0.00018941 4.0825e-05 0.000174116)
(0.000169588 -2.411e-06 -5.66005e-06 0.000205201 4.63213e-05 0.000170501)
(0.000184374 -7.44375e-06 -5.76105e-06 0.000179506 5.31536e-05 0.000186585)
(0.00020545 -8.01819e-06 -6.03945e-06 0.00014096 2.36595e-05 0.000208684)
(0.000199036 -1.03846e-07 -5.23941e-06 0.000162349 -2.49314e-05 0.000202508)
(0.000179674 5.90008e-06 -3.44198e-06 0.000208292 -3.68137e-05 0.000183745)
(0.000176357 6.34606e-06 -1.79237e-06 0.000209878 -2.96103e-05 0.000180957)
(0.000179938 5.38298e-06 -1.60006e-06 0.000185681 -2.77899e-05 0.000185531)
(0.000176659 1.22796e-06 -1.46924e-06 0.000174001 -1.55404e-05 0.000183143)
(0.00016798 -3.01552e-06 -6.30105e-07 0.000177081 -3.8252e-06 0.000174856)
(0.000163072 -4.15861e-06 -4.29144e-08 0.000176277 -8.54798e-06 0.000170167)
(0.000161288 -4.45859e-06 2.46056e-07 0.00017245 -1.90427e-05 0.000168501)
)
