/*--------------------------------*- C++ -*----------------------------------*\
| =========                 |                                                 |
| \\      /  F ield         | OpenFOAM: The Open Source CFD Toolbox           |
|  \\    /   O peration     | Version:  v1912                                 |
|   \\  /    A nd           | Website:  www.openfoam.com                      |
|    \\/     M anipulation  |                                                 |
\*---------------------------------------------------------------------------*/
FoamFile
{
    version     2.0;
    format      ascii;
    class       volScalarField;
    location    "8.8";
    object      T;
}
// * * * * * * * * * * * * * * * * * * * * * * * * * * * * * * * * * * * * * //

dimensions      [0 0 0 1 0 0 0];


internalField   nonuniform List<scalar> 
34128
(
372.148
372.148
372.148
372.143
372.139
372.135
372.13
372.139
372.145
372.145
372.139
372.13
370.433
370.432
370.434
370.419
370.405
370.393
370.381
370.405
370.424
370.426
370.408
370.379
368.688
368.688
368.692
368.666
368.644
368.625
368.606
368.645
368.675
368.679
368.651
368.599
366.912
366.913
366.922
366.885
366.855
366.83
366.804
366.855
366.895
366.905
366.868
366.791
365.105
365.11
365.124
365.078
365.039
365.011
364.979
365.039
365.085
365.104
365.061
364.956
363.271
363.282
363.303
363.249
363.205
363.172
363.135
363.2
363.25
363.283
363.238
363.101
361.425
361.442
361.473
361.414
361.364
361.329
361.288
361.353
361.403
361.456
361.413
361.241
359.589
359.613
359.653
359.593
359.541
359.502
359.458
359.518
359.568
359.644
359.608
359.403
357.795
357.825
357.874
357.817
357.764
357.723
357.675
357.727
357.775
357.88
357.855
357.62
356.078
356.11
356.167
356.117
356.066
356.022
355.97
356.012
356.059
356.194
356.184
355.926
354.466
354.497
354.557
354.518
354.473
354.428
354.371
354.398
354.447
354.612
354.619
354.347
352.978
353.004
353.064
353.038
353
352.956
352.894
352.905
352.955
353.148
353.174
352.898
351.614
351.633
351.69
351.678
351.651
351.61
351.542
351.533
351.584
351.801
351.846
351.576
350.365
350.376
350.428
350.43
350.413
350.379
350.305
350.272
350.323
350.558
350.621
350.368
349.225
349.229
349.275
349.288
349.282
349.257
349.179
349.121
349.169
349.415
349.493
349.264
348.196
348.194
348.233
348.256
348.258
348.245
348.164
348.082
348.126
348.374
348.463
348.263
347.277
347.272
347.304
347.333
347.343
347.342
347.259
347.158
347.194
347.436
347.533
347.365
346.468
346.462
346.488
346.52
346.536
346.544
346.464
346.347
346.375
346.603
346.702
346.567
345.764
345.76
345.782
345.815
345.833
345.85
345.774
345.647
345.666
345.874
345.972
345.867
345.163
345.163
345.182
345.214
345.232
345.254
345.184
345.054
345.065
345.248
345.341
345.262
344.658
344.663
344.68
344.71
344.726
344.751
344.689
344.561
344.564
344.721
344.806
344.75
344.243
344.253
344.27
344.296
344.309
344.334
344.279
344.161
344.158
344.287
344.361
344.323
343.91
343.924
343.94
343.963
343.972
343.994
343.949
343.843
343.836
343.939
344.002
343.977
343.65
343.666
343.681
343.701
343.706
343.724
343.687
343.597
343.589
343.668
343.719
343.703
343.452
343.469
343.483
343.5
343.501
343.515
343.486
343.413
343.404
343.463
343.502
343.493
343.306
343.322
343.335
343.348
343.348
343.357
343.335
343.278
343.27
343.312
343.342
343.336
343.202
343.216
343.227
343.238
343.236
343.242
343.225
343.183
343.177
343.206
343.227
343.223
343.131
343.142
343.151
343.159
343.156
343.16
343.148
343.118
343.113
343.133
343.147
343.144
343.083
343.091
343.098
343.105
343.102
343.103
343.095
343.075
343.072
343.084
343.093
343.091
343.052
343.058
343.063
343.068
343.065
343.066
343.06
343.047
343.045
343.053
343.058
343.057
343.032
343.036
343.04
343.044
343.042
343.041
343.038
343.03
343.029
343.033
343.036
343.035
343.02
343.022
343.026
343.028
343.027
343.026
343.023
343.019
343.019
343.021
343.022
343.022
343.013
343.014
343.016
343.018
343.017
343.016
343.015
343.012
343.013
343.014
343.014
343.014
343.009
343.009
343.011
343.012
343.012
343.011
343.009
343.008
343.009
343.01
343.009
343.009
343.006
343.006
343.007
343.008
343.008
343.007
343.006
343.006
343.007
343.007
343.006
343.006
343.004
343.004
343.005
343.006
343.006
343.005
343.004
343.004
343.005
343.005
343.004
343.004
343.003
343.002
343.003
343.004
343.004
343.003
343.002
343.003
343.004
343.004
343.003
343.003
343.002
343.001
343.002
343.003
343.003
343.002
343.001
343.002
343.003
343.003
343.002
343.002
343.001
343.001
343.002
343.002
343.002
343.001
343.001
343.001
343.002
343.002
343.002
343.001
343
343
343.001
343.001
343.002
343.001
343
343
343.001
343.001
343.001
343.001
343
343
343.001
343.001
343.001
343
343
343
343.001
343.001
343.001
343
343
343
343
343
343.001
343
343
343
343
343
343
343
343
343
343
343
343
343
343
343
343
343
343
343
343
343
343
343
343
343
343
343
343
343
343
343
343
343
343
343
343
343
343
343
343
343
343
343
343
343
343
343
343
343
343
343
343
343
343
343
343
343
343
343
343
343
343
343
343
343
343
343
343
343
343
343
343
343
343
343
343
343
343
343
343
343
343
343
343
343
343
343
343
343
343
343
343
343
343
343
343
343
343
343
343
343
343
343
343
343
343
343
343
343
343
343
343
343
343
343
343
343
343
343
343
343
343
343
343
343
343
343
343
343
343
343
343
343
343
343
343
343
343
343
343
343
343
343
343
343
343
343
343
343
343
343
343
343
343
343
343
343
343
343
343
343
343
343
343
343
343
343
343
343
343
343
343
343
343
343
343
343
343
343
343
343
343
343
343
343
343
343
343
343
343
343
343
343
343
343
343
343
343
343
343
343
343
343
343
343
343
343
343
343
343
343
343
343
343
343
343
343
343
343
343
343
343
343
343
343
343.001
343.001
343
343
343
343
343
343
343
343
343
343.001
343.001
343.001
343.001
343.001
343
343
343
343
343
343
343.001
343.001
343.001
343.001
343.001
343.001
343.001
343
343
343
343
343
343.001
343.001
343.001
343.001
343.001
343.001
343.001
343.001
343.001
343.001
343.001
343.001
343.001
343.001
343.001
343.001
343.001
343.001
343.001
343.001
343.001
343.001
343.001
343.001
343.001
343.001
343.001
343.001
343.001
343.001
343.001
343.001
343.001
343.001
343.001
343.001
343.001
343.001
343.001
343.001
343.001
343.001
343.001
343.001
343.001
343.001
343.001
343.001
343.001
343.001
343.001
343.001
343.001
343.001
343.001
343.001
343.001
343.001
343.001
343.001
343.001
343.001
343.001
343.001
343.001
343.001
343.001
343.001
343.001
343.001
343.001
343.001
343.001
343.001
343.001
343.001
343.001
343.001
343.001
343.001
343.001
343.001
343.001
343.001
343.001
343.001
343.001
343.001
343.001
343.001
343.001
343.001
343.001
343.001
343.001
343.001
343.001
343.001
343.001
343.001
343.001
343.001
343.001
343.001
343.001
343.001
343.001
343.001
343.001
343.001
343.001
343.001
343.001
343.001
343.001
343.001
343.001
343.001
343.001
343.001
343.001
343.001
343.001
343.001
343.001
343.001
343.001
343.001
343.001
343.001
343.001
343.001
343.001
343.001
343.001
343.001
343.001
343.001
343.001
343.001
343.001
343.001
343.001
343.001
343.001
343.001
343.001
343.001
343.001
343.001
343.001
343.001
343.001
343.001
343.001
343.001
343.001
343.001
343.001
343.001
343.001
343.001
343.001
343.001
343.001
343.001
343.001
343.001
343.001
343.001
343.001
343.001
343.001
343.001
343.001
343.001
343.001
343.001
343.001
343.001
343.001
343.001
343.001
343.001
343.001
343.001
343.001
343.001
343.001
343.001
343.001
343.001
372.135
372.136
372.137
372.131
372.127
372.124
372.12
372.128
372.134
372.135
372.129
372.116
370.395
370.396
370.401
370.384
370.37
370.361
370.351
370.374
370.389
370.393
370.377
370.338
368.624
368.627
368.636
368.608
368.586
368.571
368.554
368.592
368.616
368.625
368.599
368.532
366.822
366.828
366.843
366.805
366.775
366.754
366.732
366.781
366.813
366.83
366.797
366.698
364.989
365
365.023
364.976
364.939
364.914
364.887
364.943
364.979
365.01
364.973
364.84
363.132
363.148
363.18
363.129
363.086
363.055
363.024
363.083
363.122
363.171
363.135
362.966
361.262
361.286
361.328
361.276
361.229
361.193
361.157
361.213
361.252
361.326
361.296
361.091
359.405
359.434
359.486
359.437
359.389
359.348
359.306
359.355
359.394
359.497
359.478
359.241
357.589
357.621
357.681
357.641
357.594
357.549
357.501
357.536
357.575
357.712
357.708
357.446
355.849
355.88
355.944
355.917
355.875
355.827
355.773
355.79
355.829
356
356.014
355.737
354.212
354.238
354.302
354.289
354.256
354.21
354.147
354.142
354.183
354.386
354.421
354.14
352.698
352.715
352.775
352.778
352.755
352.715
352.644
352.614
352.656
352.886
352.941
352.668
351.309
351.317
351.371
351.388
351.377
351.346
351.267
351.208
351.25
351.501
351.574
351.32
350.039
350.039
350.085
350.115
350.115
350.095
350.01
349.921
349.96
350.223
350.312
350.084
348.884
348.879
348.917
348.956
348.967
348.96
348.87
348.754
348.786
349.051
349.151
348.956
347.847
347.84
347.872
347.917
347.934
347.94
347.849
347.709
347.734
347.992
348.097
347.937
346.928
346.924
346.951
346.998
347.019
347.036
346.946
346.789
346.805
347.046
347.153
347.027
346.127
346.128
346.152
346.199
346.221
346.245
346.16
345.993
345.999
346.218
346.32
346.225
345.439
345.448
345.472
345.516
345.535
345.563
345.485
345.317
345.314
345.505
345.6
345.53
344.862
344.879
344.902
344.943
344.958
344.985
344.916
344.754
344.745
344.906
344.99
344.941
344.387
344.411
344.434
344.472
344.481
344.505
344.445
344.298
344.284
344.414
344.485
344.451
344.006
344.035
344.059
344.092
344.095
344.113
344.064
343.936
343.92
344.022
344.079
344.056
343.71
343.74
343.763
343.793
343.79
343.802
343.763
343.657
343.642
343.718
343.761
343.745
343.487
343.516
343.537
343.562
343.556
343.562
343.532
343.448
343.436
343.491
343.521
343.509
343.324
343.349
343.368
343.389
343.381
343.382
343.36
343.298
343.288
343.326
343.346
343.336
343.209
343.23
343.246
343.262
343.254
343.252
343.236
343.193
343.186
343.211
343.222
343.214
343.132
343.147
343.16
343.173
343.164
343.161
343.15
343.122
343.118
343.134
343.139
343.132
343.081
343.091
343.101
343.111
343.104
343.1
343.093
343.076
343.074
343.084
343.085
343.079
343.05
343.056
343.063
343.07
343.064
343.061
343.057
343.047
343.047
343.052
343.051
343.046
343.03
343.033
343.039
343.043
343.04
343.037
343.034
343.029
343.03
343.033
343.03
343.027
343.019
343.02
343.024
343.027
343.025
343.022
343.02
343.019
343.02
343.021
343.019
343.016
343.012
343.012
343.015
343.017
343.016
343.014
343.012
343.012
343.014
343.014
343.012
343.01
343.008
343.007
343.01
343.011
343.011
343.009
343.007
343.008
343.01
343.01
343.008
343.007
343.005
343.004
343.007
343.007
343.008
343.006
343.005
343.006
343.008
343.008
343.006
343.005
343.004
343.003
343.005
343.005
343.006
343.004
343.003
343.004
343.006
343.006
343.005
343.004
343.002
343.002
343.003
343.004
343.004
343.003
343.001
343.003
343.005
343.005
343.004
343.004
343.002
343.001
343.002
343.003
343.003
343.002
343.001
343.002
343.003
343.004
343.003
343.003
343.001
343.001
343.002
343.002
343.002
343.001
343
343.001
343.002
343.003
343.002
343.002
343
343
343.001
343.001
343.002
343.001
343
343
343.002
343.002
343.002
343.002
343
343
343.001
343.001
343.001
343
343
343
343.001
343.001
343.001
343.001
343
343
343
343.001
343.001
343
343
343
343
343.001
343.001
343.001
343
343
343
343
343
343
343
343
343
343
343
343
343
343
343
343
343
343
343
343
343
343
343
343
343
343
343
343
343
343
343
343
343
343
343
343
343
343
343
343
343
343
343
343
343
343
343
343
343
343
343
343
343
343
343
343
343
343
343
343
343
343
343
343
343
343
343
343
343
343
343
343
343
343
343
343
343
343
343
343
343
343
343
343
343
343
343
343
343
343
343
343
343
343
343
343
343
343
343
343
343
343
343
343
343
343
343
343
343
343
343
343
343
343
343
343
343
343
343
343
343
343
343
343
343
343
343
343
343
343
343
343
343
343
343
343
343
343
343
343
343
343
343
343
343
343
343
343
343
343
343
343
343
343
343
343
343
343
343
343
343
343
343
343
343
343
343
343
343
343
343
343
343
343
343
343
343
343
343
343
343
343
343
343
343
343
343
343
343
343
343
343
343
343
343
343
343
343
343
343
343
343
343
343
343
343
343
343
343
343
343
343
343
343
343
343
343
343
343
343
343
343
343
343
343
343
343
343
343
343
343
343
343
343
343
343
343
343
343
343
343
343
343
343
343
343
343
343
343
343
343
343
343
343
343
343.001
343.001
343.001
343
343
343
343
343
343
343
343
343.001
343.001
343.001
343.001
343.001
343
343
343
343
343
343
343.001
343.001
343.001
343.001
343.001
343.001
343
343
343
343
343.001
343.001
343.001
343.001
343.001
343.001
343.001
343.001
343.001
343.001
343.001
343.001
343.001
343.001
343.001
343.001
343.001
343.001
343.001
343.001
343.001
343.001
343.001
343.001
343.001
343.001
343.001
343.001
343.001
343.001
343.001
343.001
343.001
343.001
343.001
343.001
343.001
343.001
343.001
343.001
343.001
343.001
343.001
343.001
343.001
343.001
343.001
343.001
343.001
343.001
343.001
343.001
343.001
343.001
343.001
343.001
343.001
343.001
343.001
343.001
343.001
343.001
343.001
343.001
343.001
343.001
343.001
343.001
343.001
343.001
343.001
343.001
343.001
343.001
343.001
343.001
343.001
343.001
343.001
343.001
343.001
343.001
343.001
343.001
343.001
343.001
343.001
343.001
343.001
343.001
343.001
343.001
343.001
343.001
343.001
343.001
343.001
343.001
343.001
343.001
343.001
343.001
343.001
343.001
343.001
343.001
343.001
343.001
343.001
343.001
343.001
343.001
343.001
343.001
343.001
343.001
343.001
343.001
343.001
343.001
343.001
343.001
343.001
343.001
343.001
343.001
343.001
343.001
343.001
343.001
343.001
343.001
343.001
343.001
343.001
343.001
343.001
343.001
343.001
343.001
343.001
343.001
343.001
343.001
343.001
343.001
343.001
343.001
343.001
343.001
343.001
343.001
343.001
343.001
343.001
343.001
343.001
343.001
343.001
343.001
343.001
343.001
343.001
343.001
343.001
343.001
343.001
343.001
343.001
372.131
372.132
372.133
372.128
372.123
372.12
372.117
372.125
372.13
372.132
372.126
372.113
370.383
370.384
370.389
370.373
370.36
370.35
370.34
370.364
370.38
370.385
370.369
370.329
368.604
368.607
368.617
368.59
368.568
368.552
368.536
368.574
368.6
368.611
368.586
368.517
366.794
366.8
366.815
366.779
366.75
366.728
366.707
366.756
366.789
366.811
366.779
366.678
364.954
364.964
364.986
364.943
364.907
364.879
364.853
364.91
364.949
364.985
364.95
364.815
363.09
363.104
363.134
363.088
363.047
363.014
362.982
363.042
363.085
363.141
363.106
362.937
361.216
361.234
361.273
361.226
361.183
361.144
361.107
361.165
361.21
361.291
361.262
361.059
359.355
359.376
359.422
359.381
359.337
359.294
359.251
359.3
359.346
359.456
359.438
359.206
357.538
357.559
357.612
357.579
357.538
357.492
357.442
357.477
357.524
357.665
357.661
357.407
355.797
355.817
355.872
355.851
355.815
355.77
355.712
355.727
355.775
355.948
355.961
355.695
354.162
354.176
354.231
354.224
354.196
354.153
354.088
354.08
354.128
354.33
354.361
354.093
352.65
352.658
352.709
352.716
352.698
352.661
352.588
352.554
352.602
352.828
352.876
352.616
351.263
351.266
351.312
351.332
351.324
351.295
351.215
351.154
351.2
351.443
351.506
351.264
349.996
349.994
350.035
350.066
350.067
350.048
349.963
349.874
349.916
350.167
350.243
350.024
348.844
348.842
348.879
348.918
348.925
348.917
348.828
348.714
348.75
349.001
349.084
348.894
347.812
347.812
347.844
347.889
347.9
347.901
347.812
347.678
347.707
347.948
348.036
347.875
346.899
346.903
346.934
346.981
346.993
347.001
346.914
346.768
346.788
347.013
347.1
346.968
346.104
346.115
346.144
346.191
346.203
346.214
346.133
345.981
345.993
346.197
346.279
346.172
345.425
345.442
345.47
345.516
345.525
345.537
345.463
345.314
345.319
345.497
345.572
345.487
344.856
344.878
344.905
344.949
344.953
344.964
344.899
344.759
344.761
344.911
344.975
344.908
344.389
344.414
344.441
344.481
344.481
344.489
344.433
344.309
344.307
344.431
344.484
344.431
344.017
344.042
344.067
344.102
344.099
344.103
344.058
343.952
343.949
344.048
344.088
344.047
343.726
343.75
343.773
343.803
343.796
343.798
343.762
343.676
343.674
343.75
343.779
343.746
343.507
343.527
343.546
343.571
343.563
343.562
343.535
343.469
343.467
343.525
343.544
343.518
343.345
343.361
343.377
343.397
343.389
343.386
343.367
343.318
343.317
343.359
343.371
343.351
343.23
343.241
343.254
343.269
343.262
343.259
343.245
343.211
343.211
343.24
343.247
343.232
343.15
343.157
343.167
343.178
343.172
343.17
343.161
343.137
343.137
343.158
343.161
343.15
343.096
343.101
343.108
343.115
343.111
343.109
343.103
343.088
343.088
343.102
343.103
343.095
343.061
343.063
343.069
343.074
343.071
343.069
343.065
343.056
343.056
343.065
343.066
343.06
343.038
343.039
343.044
343.047
343.045
343.044
343.041
343.035
343.036
343.041
343.042
343.038
343.024
343.025
343.028
343.03
343.028
343.027
343.025
343.023
343.023
343.027
343.027
343.025
343.015
343.016
343.018
343.019
343.019
343.017
343.016
343.014
343.016
343.018
343.018
343.017
343.01
343.01
343.012
343.013
343.012
343.011
343.01
343.01
343.011
343.012
343.012
343.012
343.007
343.007
343.009
343.009
343.009
343.007
343.006
343.006
343.008
343.009
343.009
343.009
343.004
343.005
343.006
343.007
343.006
343.005
343.004
343.004
343.006
343.006
343.007
343.007
343.003
343.003
343.005
343.005
343.004
343.003
343.002
343.003
343.004
343.005
343.005
343.005
343.002
343.002
343.004
343.004
343.003
343.002
343.001
343.002
343.003
343.004
343.004
343.004
343.001
343.002
343.003
343.003
343.002
343.001
343.001
343.001
343.002
343.003
343.003
343.003
343.001
343.001
343.002
343.002
343.001
343.001
343
343.001
343.001
343.002
343.002
343.002
343
343.001
343.001
343.001
343.001
343
343
343
343.001
343.001
343.001
343.001
343
343
343.001
343.001
343
343
343
343
343
343
343
343
343
343
343
343
343
343
343
343
343
343
343
343
343
343
343
343
343
343
343
343
343
343
343
343
343
343
343
343
343
343
343
343
343
343
343
343
343
343
343
343
343
343
343
343
343
343
343
343
343
343
343
343
343
343
343
343
343
343
343
343
343
343
343
343
343
343
343
343
343
343
343
343
343
343
343
343
343
343
343
343
343
343
343
343
343
343
343
343
343
343
343
343
343
343
343
343
343
343
343
343
343
343
343
343
343
343
343
343
343
343
343
343
343
343
343
343
343
343
343
343
343
343
343
343
343
343
343
343
343
343
343
343
343
343
343
343
343
343
343
343
343
343
343
343
343
343
343
343
343
343
343
343
343
343
343
343
343
343
343
343
343
343
343
343
343
343
343
343
343
343
343
343
343
343
343
343
343
343
343
343
343
343
343
343
343
343
343
343
343
343
343
343
343
343
343
343
343
343
343
343
343
343
343
343
343
343
343
343
343
343
343
343
343
343
343
343
343
343
343
343
343
343
343
343
343
343
343
343
343
343
343
343
343
343
343
343
343
343
343
343
343
343
343
343
343
343
343
343
343
343
343
343
343
343
343
343
343
343.001
343
343
343
343
343
343
343
343
343
343.001
343.001
343.001
343.001
343
343
343
343
343
343
343
343.001
343.001
343.001
343.001
343.001
343.001
343
343
343.001
343.001
343.001
343.001
343.001
343.001
343.001
343.001
343.001
343.001
343.001
343.001
343.001
343.001
343.001
343.001
343.001
343.001
343.001
343.001
343.001
343.001
343.001
343.001
343.001
343.001
343.001
343.001
343.001
343.001
343.001
343.001
343.001
343.001
343.001
343.001
343.001
343.001
343.001
343.001
343.001
343.001
343.001
343.001
343.001
343.001
343.001
343.001
343.001
343.001
343.001
343.001
343.001
343.001
343.001
343.001
343.001
343.001
343.001
343.001
343.001
343.001
343.001
343.001
343.001
343.001
343.001
343.001
343.001
343.001
343.001
343.001
343.001
343.001
343.001
343.001
343.001
343.001
343.001
343.001
343.001
343.001
343.001
343.001
343.001
343.001
343.001
343.001
343.001
343.001
343.001
343.001
343.001
343.001
343.001
343.001
343.001
343.001
343.001
343.001
343.001
343.001
343.001
343.001
343.001
343.001
343.001
343.001
343.001
343.001
343.001
343.001
343.001
343.001
343.001
343.001
343.001
343.001
343.001
343.001
343.001
343.001
343.001
343.001
343.001
343.001
343.001
343.001
343.001
343.001
343.001
343.001
343.001
343.001
343.001
343.001
343.001
343.001
343.001
343.001
343.001
343.001
343.001
343.001
343.001
343.001
343.001
343.001
343.001
343.001
343.001
343.001
343.001
343.001
343.001
343.001
343.001
343.001
343.001
343.001
343.001
343.001
343.001
343.001
343.001
343.001
343.001
343.001
343.001
343.001
372.119
372.12
372.122
372.116
372.112
372.109
372.106
372.114
372.119
372.121
372.116
372.1
370.345
370.347
370.354
370.338
370.325
370.317
370.309
370.331
370.344
370.353
370.339
370.29
368.54
368.545
368.558
368.531
368.511
368.497
368.484
368.52
368.541
368.558
368.536
368.453
366.705
366.713
366.733
366.698
366.671
366.651
366.633
366.68
366.706
366.737
366.71
366.59
364.84
364.852
364.881
364.84
364.808
364.782
364.76
364.811
364.842
364.891
364.863
364.705
362.953
362.969
363.007
362.965
362.929
362.897
362.869
362.921
362.955
363.027
363.003
362.808
361.056
361.077
361.123
361.086
361.047
361.01
360.976
361.021
361.056
361.158
361.142
360.913
359.174
359.197
359.251
359.222
359.184
359.142
359.1
359.132
359.168
359.304
359.301
359.044
357.335
357.357
357.416
357.401
357.367
357.321
357.269
357.282
357.32
357.49
357.505
357.23
355.572
355.589
355.649
355.65
355.623
355.577
355.515
355.502
355.542
355.746
355.78
355.5
353.911
353.92
353.978
353.996
353.979
353.937
353.864
353.822
353.862
354.096
354.149
353.875
352.372
352.374
352.425
352.459
352.452
352.419
352.337
352.262
352.302
352.558
352.628
352.372
350.959
350.955
351
351.047
351.051
351.029
350.938
350.83
350.867
351.136
351.22
350.99
349.67
349.663
349.702
349.758
349.77
349.76
349.664
349.525
349.556
349.828
349.921
349.723
348.504
348.499
348.533
348.595
348.612
348.613
348.515
348.351
348.374
348.638
348.735
348.571
347.465
347.466
347.496
347.561
347.579
347.59
347.493
347.311
347.325
347.572
347.668
347.536
346.555
346.564
346.593
346.656
346.673
346.689
346.597
346.407
346.412
346.635
346.725
346.622
345.772
345.79
345.819
345.88
345.891
345.908
345.825
345.636
345.634
345.828
345.908
345.829
345.112
345.139
345.168
345.225
345.229
345.245
345.171
344.994
344.986
345.149
345.216
345.155
344.57
344.602
344.632
344.683
344.681
344.692
344.63
344.472
344.461
344.592
344.645
344.598
344.135
344.171
344.2
344.245
344.237
344.242
344.192
344.058
344.046
344.148
344.186
344.149
343.797
343.832
343.861
343.898
343.885
343.885
343.847
343.739
343.728
343.805
343.829
343.798
343.543
343.574
343.6
343.631
343.616
343.61
343.583
343.501
343.492
343.547
343.559
343.535
343.357
343.384
343.406
343.431
343.415
343.407
343.387
343.329
343.323
343.361
343.364
343.344
343.227
343.248
343.266
343.285
343.27
343.261
343.248
343.21
343.206
343.23
343.228
343.212
343.14
343.154
343.169
343.183
343.17
343.161
343.153
343.129
343.127
343.143
343.137
343.124
343.083
343.093
343.104
343.113
343.103
343.095
343.091
343.078
343.077
343.086
343.08
343.07
343.048
343.054
343.062
343.068
343.061
343.054
343.052
343.046
343.046
343.051
343.045
343.038
343.028
343.031
343.037
343.041
343.035
343.03
343.029
343.027
343.028
343.03
343.025
343.021
343.016
343.018
343.022
343.024
343.021
343.016
343.016
343.016
343.018
343.019
343.015
343.012
343.01
343.01
343.014
343.015
343.013
343.009
343.008
343.01
343.012
343.013
343.01
343.008
343.007
343.007
343.009
343.01
343.008
343.006
343.005
343.007
343.009
343.009
343.007
343.006
343.005
343.005
343.007
343.007
343.006
343.004
343.003
343.005
343.008
343.008
343.006
343.005
343.004
343.003
343.006
343.006
343.005
343.003
343.002
343.004
343.006
343.006
343.005
343.005
343.003
343.003
343.005
343.005
343.004
343.002
343.001
343.003
343.005
343.005
343.004
343.004
343.002
343.002
343.004
343.004
343.003
343.002
343.001
343.002
343.004
343.004
343.004
343.003
343.001
343.001
343.003
343.003
343.002
343.001
343
343.002
343.003
343.003
343.003
343.002
343.001
343.001
343.002
343.002
343.002
343.001
343
343.001
343.002
343.002
343.002
343.002
343
343
343.002
343.001
343.001
343
343
343
343.002
343.001
343.001
343.001
343
343
343.001
343.001
343.001
343
342.999
343
343.001
343.001
343
343
343
343
343.001
343
343
343
342.999
343
343
343
343
343
343
343
343
343
343
343
342.999
342.999
343
343
343
343
343
343
343
343
343
343
342.999
342.999
343
343
343
342.999
343
343
343
343
343
343
342.999
342.999
343
343
343
342.999
343
343
343
343
343
343
343
342.999
342.999
343
343
342.999
343
343
343
343
343
343
343
343
343
343
343
343
343
343
343
343
343
343
343
343
343
343
343
343
343
343
343
343
343
343
343
343
343
343
343
343
343
343
343
343
343
343
343
343
343
343
343
343
343
343
343
343
343
343
343
343
343
343
343
343
343
343
343
343
343
343
343
343
343
343
343
343
343
343
343
343
343
343
343
343
343
343
343
343
343
343
343
343
343
343
343
343
343
343
343
343
343
343
343
343
343
343
343
343
343
343
343
343
343
343
343
343
343
343
343
343
343
343
343
343
343
343
343
343
343
343
343
343
343
343
343
343
343
343
343
343
343
343
343
343
343
343
343
343
343
343
343
343
343
343
343
343
343
343
343
343
343
343
343
343
343
343
343
343
343
343
343
343
343
343
343
343
343
343
343
343
343
343
343
343
343
343
343
343
343
343
343
343
343
343
343
343
343
343
343
343
343
343
343
343
343
343
343
343
343
343
343
343
343
343
343
343
343
343
343
343
343
343
343
343
343
343.001
343
343
343
343
343
343
343
343
343
343
343.001
343.001
343.001
343
343
343
343
343
343
343
343
343.001
343.001
343.001
343.001
343
343
343
343
343
343
343
343.001
343.001
343.001
343.001
343.001
343.001
343.001
343.001
343.001
343.001
343.001
343.001
343.001
343.001
343.001
343.001
343.001
343.001
343.001
343.001
343.001
343.001
343.001
343.001
343.001
343.001
343.001
343.001
343.001
343.001
343.001
343.001
343.001
343.001
343.001
343.001
343.001
343.001
343.001
343.001
343.001
343.001
343.001
343.001
343.001
343.001
343.001
343.001
343.001
343.001
343.001
343.001
343.001
343.001
343.001
343.001
343.001
343.001
343.001
343.001
343.001
343.001
343.001
343.001
343.001
343.001
343.001
343.001
343.001
343.001
343.001
343.001
343.001
343.001
343.001
343.001
343.001
343.001
343.001
343.001
343.001
343.001
343.001
343.001
343.001
343.001
343.001
343.001
343.001
343.001
343.001
343.001
343.001
343.001
343.001
343.001
343.001
343.001
343.001
343.001
343.001
343.001
343.001
343.001
343.001
343.001
343.001
343.001
343.001
343.001
343.001
343.001
343.001
343.001
343.001
343.001
343.001
343.001
343.001
343.001
343.001
343.001
343.001
343.001
343.001
343.001
343.001
343.001
343.001
343.001
343.001
343.001
343.001
343.001
343.001
343.001
343.001
343.001
343.001
343.001
343.001
343.001
343.001
343.001
343.001
343.001
343.001
343.001
343.001
343.001
343.001
343.001
343.001
343.001
372.111
372.112
372.114
372.109
372.105
372.102
372.099
372.107
372.111
372.115
372.111
372.094
370.32
370.323
370.331
370.315
370.304
370.295
370.288
370.309
370.322
370.335
370.322
370.271
368.5
368.505
368.518
368.494
368.475
368.46
368.448
368.483
368.504
368.527
368.507
368.421
366.649
366.656
366.676
366.646
366.621
366.599
366.581
366.626
366.654
366.693
366.669
366.547
364.769
364.779
364.807
364.773
364.743
364.714
364.691
364.741
364.776
364.834
364.81
364.652
362.869
362.881
362.915
362.883
362.85
362.813
362.784
362.834
362.874
362.958
362.938
362.745
360.962
360.974
361.015
360.989
360.954
360.912
360.874
360.917
360.963
361.076
361.064
360.842
359.072
359.083
359.129
359.112
359.079
359.032
358.985
359.015
359.064
359.21
359.21
358.966
357.228
357.236
357.284
357.281
357.252
357.203
357.146
357.155
357.208
357.386
357.4
357.145
355.464
355.466
355.513
355.524
355.503
355.456
355.389
355.372
355.426
355.634
355.663
355.406
353.805
353.802
353.846
353.871
353.857
353.817
353.74
353.692
353.747
353.978
354.021
353.774
352.27
352.264
352.304
352.34
352.335
352.303
352.218
352.139
352.191
352.438
352.493
352.263
350.864
350.858
350.894
350.941
350.941
350.919
350.828
350.719
350.766
351.019
351.083
350.875
349.582
349.581
349.614
349.668
349.671
349.658
349.563
349.429
349.469
349.719
349.787
349.605
348.425
348.432
348.465
348.523
348.526
348.518
348.425
348.272
348.304
348.543
348.611
348.452
347.398
347.415
347.449
347.509
347.509
347.503
347.413
347.251
347.276
347.496
347.559
347.423
346.502
346.528
346.564
346.623
346.618
346.612
346.528
346.367
346.386
346.583
346.637
346.52
345.735
345.768
345.806
345.863
345.851
345.842
345.768
345.617
345.63
345.801
345.844
345.743
345.092
345.13
345.168
345.222
345.204
345.19
345.127
344.993
345.004
345.148
345.178
345.089
344.567
344.604
344.642
344.69
344.668
344.65
344.598
344.486
344.496
344.615
344.632
344.554
344.148
344.182
344.216
344.259
344.234
344.213
344.172
344.084
344.095
344.189
344.196
344.128
343.822
343.85
343.88
343.916
343.891
343.869
343.839
343.773
343.785
343.858
343.856
343.798
343.576
343.596
343.622
343.65
343.628
343.606
343.585
343.539
343.551
343.607
343.599
343.551
343.395
343.408
343.428
343.45
343.431
343.412
343.398
343.368
343.379
343.421
343.411
343.372
343.265
343.272
343.288
343.303
343.288
343.274
343.264
343.246
343.256
343.286
343.276
343.246
343.175
343.178
343.189
343.199
343.188
343.178
343.172
343.162
343.17
343.191
343.182
343.161
343.114
343.114
343.122
343.128
343.121
343.114
343.11
343.105
343.111
343.126
343.119
343.104
343.073
343.073
343.078
343.081
343.077
343.072
343.07
343.067
343.072
343.082
343.078
343.068
343.047
343.046
343.05
343.052
343.049
343.046
343.044
343.043
343.046
343.053
343.051
343.045
343.03
343.03
343.033
343.033
343.031
343.03
343.028
343.028
343.03
343.035
343.034
343.031
343.02
343.02
343.022
343.022
343.021
343.02
343.018
343.018
343.02
343.023
343.023
343.022
343.013
343.013
343.016
343.015
343.014
343.013
343.012
343.012
343.014
343.016
343.016
343.016
343.009
343.009
343.012
343.011
343.01
343.009
343.008
343.008
343.01
343.012
343.012
343.011
343.006
343.007
343.009
343.008
343.007
343.006
343.005
343.006
343.008
343.009
343.009
343.008
343.004
343.005
343.007
343.007
343.005
343.004
343.003
343.004
343.006
343.006
343.006
343.006
343.003
343.004
343.006
343.005
343.004
343.002
343.002
343.003
343.004
343.005
343.004
343.004
343.002
343.003
343.004
343.004
343.002
343.001
343.001
343.002
343.003
343.003
343.003
343.003
343.001
343.002
343.003
343.003
343.002
343.001
343
343.001