/*--------------------------------*- C++ -*----------------------------------*\
| =========                 |                                                 |
| \\      /  F ield         | OpenFOAM: The Open Source CFD Toolbox           |
|  \\    /   O peration     | Version:  v1912                                 |
|   \\  /    A nd           | Website:  www.openfoam.com                      |
|    \\/     M anipulation  |                                                 |
\*---------------------------------------------------------------------------*/
FoamFile
{
    version     2.0;
    format      ascii;
    class       volVectorField;
    location    "8.8";
    object      U;
}
// * * * * * * * * * * * * * * * * * * * * * * * * * * * * * * * * * * * * * //

dimensions      [0 1 -1 0 0 0 0];


internalField   nonuniform List<vector> 
34128
(
(6.45388e-07 1.34913e-07 -0.00285775)
(1.72001e-06 1.24189e-07 -0.0028414)
(1.86844e-06 1.22315e-07 -0.00282561)
(-1.76994e-07 1.25268e-07 -0.00282452)
(-2.82622e-06 1.26034e-07 -0.0028251)
(-3.37085e-06 1.19884e-07 -0.0028194)
(-3.14709e-06 1.20126e-07 -0.00284475)
(-2.78505e-06 1.36858e-07 -0.00288977)
(-1.18024e-06 1.4435e-07 -0.00288885)
(1.15182e-06 1.37756e-07 -0.00283124)
(4.38625e-06 1.29271e-07 -0.00280469)
(8.07502e-06 1.25835e-07 -0.0028333)
(2.79755e-06 1.53361e-06 -0.00889531)
(6.18917e-06 1.44845e-06 -0.00884591)
(6.33189e-06 1.46091e-06 -0.00879818)
(-2.00158e-07 1.51543e-06 -0.00879365)
(-8.45143e-06 1.51884e-06 -0.00879478)
(-1.05351e-05 1.4578e-06 -0.00877744)
(-1.05625e-05 1.45089e-06 -0.0088527)
(-9.53903e-06 1.55773e-06 -0.00898909)
(-3.86838e-06 1.60723e-06 -0.00898826)
(3.9462e-06 1.55492e-06 -0.00881688)
(1.39433e-05 1.48353e-06 -0.00873658)
(2.4981e-05 1.45778e-06 -0.00881976)
(5.75035e-06 4.28325e-06 -0.0152767)
(1.15339e-05 4.07621e-06 -0.0151928)
(1.12979e-05 4.13938e-06 -0.0151118)
(-1.39085e-07 4.30118e-06 -0.0151021)
(-1.42516e-05 4.30786e-06 -0.0151035)
(-1.81291e-05 4.14566e-06 -0.0150745)
(-1.87983e-05 4.11416e-06 -0.0151993)
(-1.70707e-05 4.34884e-06 -0.0154302)
(-6.65424e-06 4.45301e-06 -0.0154325)
(7.26644e-06 4.32822e-06 -0.0151482)
(2.42841e-05 4.15646e-06 -0.0150128)
(4.26809e-05 4.09769e-06 -0.0151474)
(9.36257e-06 8.42578e-06 -0.0219694)
(1.75399e-05 8.06394e-06 -0.0218491)
(1.65316e-05 8.22684e-06 -0.021733)
(-1.85606e-07 8.55288e-06 -0.0217157)
(-2.03345e-05 8.56036e-06 -0.0217174)
(-2.60861e-05 8.25266e-06 -0.0216773)
(-2.75109e-05 8.17181e-06 -0.0218512)
(-2.49546e-05 8.54759e-06 -0.0221806)
(-9.32685e-06 8.70543e-06 -0.0221897)
(1.10888e-05 8.48823e-06 -0.0217942)
(3.53001e-05 8.19252e-06 -0.0216021)
(6.10545e-05 8.09788e-06 -0.0217836)
(1.3437e-05 1.39021e-05 -0.0289374)
(2.39722e-05 1.33729e-05 -0.0287783)
(2.18247e-05 1.36971e-05 -0.0286249)
(-4.78503e-07 1.42412e-05 -0.0285973)
(-2.67616e-05 1.42438e-05 -0.0285998)
(-3.43245e-05 1.37513e-05 -0.0285494)
(-3.63737e-05 1.35896e-05 -0.0287719)
(-3.28011e-05 1.40905e-05 -0.029204)
(-1.17159e-05 1.42832e-05 -0.0292245)
(1.53524e-05 1.39657e-05 -0.0287202)
(4.68509e-05 1.35431e-05 -0.0284701)
(7.9962e-05 1.34164e-05 -0.0286928)
(1.77377e-05 2.06706e-05 -0.036141)
(3.05838e-05 1.99796e-05 -0.0359406)
(2.69931e-05 2.05378e-05 -0.0357475)
(-1.11017e-06 2.13507e-05 -0.0357066)
(-3.35519e-05 2.13387e-05 -0.0357107)
(-4.27485e-05 2.06247e-05 -0.0356514)
(-4.5079e-05 2.03444e-05 -0.035922)
(-4.02553e-05 2.09312e-05 -0.036461)
(-1.3686e-05 2.11245e-05 -0.0364975)
(1.99667e-05 2.07107e-05 -0.0358881)
(5.87676e-05 2.01761e-05 -0.0355789)
(9.92395e-05 2.00266e-05 -0.0358356)
(2.20033e-05 2.86972e-05 -0.0435368)
(3.71215e-05 2.78663e-05 -0.0432928)
(3.18746e-05 2.87421e-05 -0.0430578)
(-2.13225e-06 2.98732e-05 -0.0430005)
(-4.06847e-05 2.98328e-05 -0.0430074)
(-5.12481e-05 2.88607e-05 -0.0429411)
(-5.3338e-05 2.84181e-05 -0.0432592)
(-4.6997e-05 2.90317e-05 -0.0439085)
(-1.51325e-05 2.91788e-05 -0.0439656)
(2.48182e-05 2.86841e-05 -0.0432561)
(7.08566e-05 2.80693e-05 -0.0428876)
(0.000118698 2.79101e-05 -0.0431697)
(2.59565e-05 3.79464e-05 -0.0510792)
(4.33312e-05 3.70119e-05 -0.0507895)
(3.63275e-05 3.82985e-05 -0.0505107)
(-3.5596e-06 3.9797e-05 -0.0504343)
(-4.81022e-05 3.97105e-05 -0.0504455)
(-5.96998e-05 3.84423e-05 -0.0503746)
(-6.08828e-05 3.77875e-05 -0.0507391)
(-5.27414e-05 3.83521e-05 -0.0515009)
(-1.59769e-05 3.83963e-05 -0.0515827)
(2.9778e-05 3.78472e-05 -0.0507799)
(8.29057e-05 3.72001e-05 -0.0503529)
(0.000138124 3.70479e-05 -0.0506505)
(2.93132e-05 4.83821e-05 -0.0587223)
(4.89626e-05 4.73914e-05 -0.0583853)
(4.02307e-05 4.91905e-05 -0.0580612)
(-5.37418e-06 5.11076e-05 -0.0579634)
(-5.5713e-05 5.09535e-05 -0.0579808)
(-6.79681e-05 4.93478e-05 -0.0579079)
(-6.74687e-05 4.8425e-05 -0.0583178)
(-5.72406e-05 4.88506e-05 -0.0591926)
(-1.61649e-05 4.87288e-05 -0.0593025)
(3.47091e-05 4.81625e-05 -0.0584147)
(9.46934e-05 4.7546e-05 -0.0579312)
(0.000157289 4.74217e-05 -0.0582341)
(3.17902e-05 5.99709e-05 -0.0664231)
(5.37742e-05 5.89791e-05 -0.0660377)
(4.3483e-05 6.1399e-05 -0.065667)
(-7.52923e-06 6.37891e-05 -0.0655464)
(-6.33969e-05 6.35437e-05 -0.0655723)
(-7.59088e-05 6.15545e-05 -0.0655003)
(-7.28767e-05 6.03012e-05 -0.0659539)
(-6.0285e-05 6.04866e-05 -0.0669405)
(-1.56616e-05 6.01322e-05 -0.0670814)
(3.94747e-05 5.95957e-05 -0.0661181)
(0.000105998 5.90859e-05 -0.0655816)
(0.000175958 5.90165e-05 -0.0658793)
(3.31105e-05 7.26819e-05 -0.0741442)
(5.75366e-05 7.17483e-05 -0.0737092)
(4.60028e-05 7.49023e-05 -0.0732909)
(-9.95359e-06 7.78244e-05 -0.0731467)
(-7.10101e-05 7.7462e-05 -0.073184)
(-8.3372e-05 7.50387e-05 -0.073116)
(-7.69139e-05 7.33854e-05 -0.0736116)
(-6.17015e-05 7.32199e-05 -0.0747068)
(-1.44486e-05 7.25656e-05 -0.0748807)
(4.39443e-05 7.21142e-05 -0.0738529)
(0.000116609 7.17986e-05 -0.0732679)
(0.0001939 7.18196e-05 -0.0735506)
(3.30065e-05 8.64821e-05 -0.081855)
(6.00341e-05 8.56672e-05 -0.0813694)
(4.77271e-05 8.9672e-05 -0.0809022)
(-1.2556e-05 9.31905e-05 -0.0807345)
(-7.83907e-05 9.2685e-05 -0.0807863)
(-9.02053e-05 8.97723e-05 -0.080726)
(-7.94134e-05 8.76421e-05 -0.0812612)
(-6.13509e-05 8.70065e-05 -0.0824604)
(-1.25191e-05 8.59861e-05 -0.0826689)
(4.79991e-05 8.56812e-05 -0.0815878)
(0.00012633 8.56561e-05 -0.08096)
(0.000210893 8.58147e-05 -0.0812194)
(3.12216e-05 0.00010136 -0.0895343)
(6.10658e-05 0.00010072 -0.0889966)
(4.86095e-05 0.000105691 -0.088479)
(-1.52296e-05 0.000109874 -0.0882882)
(-8.53638e-05 0.000109201 -0.0883582)
(-9.62564e-05 0.000105742 -0.0883097)
(-8.02321e-05 0.000103052 -0.0888822)
(-5.91223e-05 0.000101826 -0.0901794)
(-9.87353e-06 0.000100377 -0.0904241)
(5.15358e-05 0.000100282 -0.0893011)
(0.000134989 0.00010065 -0.0886369)
(0.000226734 0.000101003 -0.0888655)
(2.75085e-05 0.000117292 -0.097169)
(6.04431e-05 0.000116882 -0.0965779)
(4.86174e-05 0.000122941 -0.096008)
(-1.78557e-05 0.000127864 -0.0957948)
(-9.17456e-05 0.000127 -0.095887)
(-0.000101375 0.000122934 -0.0958552)
(-7.9246e-05 0.000119594 -0.0964624)
(-5.49267e-05 0.000117641 -0.0978505)
(-6.51571e-06 0.0001157 -0.0981319)
(5.44684e-05 0.000115882 -0.0969787)
(0.000142437 0.000116751 -0.0962854)
(0.000241241 0.000117377 -0.0964775)
(2.16329e-05 0.000134212 -0.104747)
(5.7989e-05 0.000134086 -0.104102)
(4.77292e-05 0.000141353 -0.103478)
(-2.03049e-05 0.000147096 -0.103243)
(-9.73402e-05 0.000146021 -0.103361)
(-0.000105406 0.000141287 -0.103352)
(-7.63488e-05 0.000137198 -0.103991)
(-4.86963e-05 0.00013438 -0.10546)
(-2.45285e-06 0.000131884 -0.105778)
(5.67265e-05 0.000132402 -0.104607)
(0.000148545 0.000133883 -0.103892)
(0.000254237 0.000134872 -0.104044)
(1.33811e-05 0.000152066 -0.112254)
(5.35427e-05 0.000152274 -0.111555)
(4.59344e-05 0.000160873 -0.110875)
(-2.24403e-05 0.00016752 -0.11062)
(-0.000101944 0.000166214 -0.110769)
(-0.000108199 0.00016075 -0.110788)
(-7.14545e-05 0.00015581 -0.111455)
(-4.03871e-05 0.000151986 -0.112995)
(2.30407e-06 0.000148871 -0.113349)
(5.82584e-05 0.000149774 -0.112169)
(0.000153205 0.000151974 -0.111442)
(0.000265559 0.000153433 -0.111552)
(2.56441e-06 0.000170803 -0.119681)
(4.69636e-05 0.000171392 -0.118928)
(4.3233e-05 0.000181447 -0.118191)
(-2.41238e-05 0.000189087 -0.117916)
(-0.000105355 0.000187533 -0.118099)
(-0.000109606 0.000181274 -0.118152)
(-6.44998e-05 0.000175378 -0.118845)
(-2.9978e-05 0.000170407 -0.120444)
(7.74235e-06 0.000166607 -0.120831)
(5.90351e-05 0.000167931 -0.119653)
(0.000156342 0.00017095 -0.118923)
(0.000275064 0.000173001 -0.118989)
(-1.09738e-05 0.000190365 -0.127016)
(3.8134e-05 0.000191379 -0.126212)
(3.96338e-05 0.000203022 -0.125418)
(-2.52216e-05 0.000211746 -0.125124)
(-0.000107379 0.000209928 -0.125344)
(-0.000109494 0.000202804 -0.125437)
(-5.54462e-05 0.000195845 -0.126153)
(-1.74718e-05 0.000189593 -0.127798)
(1.38481e-05 0.000185044 -0.128214)
(5.90523e-05 0.000186803 -0.127048)
(0.000157915 0.000190729 -0.126322)
(0.000282639 0.000193504 -0.126346)
(-2.73509e-05 0.000210694 -0.134252)
(2.69641e-05 0.000212174 -0.133401)
(3.51521e-05 0.000225537 -0.13255)
(-2.56105e-05 0.000235444 -0.132236)
(-0.000107837 0.000233349 -0.132495)
(-0.000107747 0.000225285 -0.132636)
(-4.42832e-05 0.000217156 -0.133371)
(-2.89742e-06 0.000209497 -0.135048)
(2.0606e-05 0.000204136 -0.13549)
(5.83327e-05 0.000206325 -0.134342)
(0.000157923 0.000211232 -0.133631)
(0.000288204 0.00021487 -0.133614)
(-4.6636e-05 0.000231732 -0.141382)
(1.33959e-05 0.000233711 -0.140489)
(2.98077e-05 0.000248933 -0.139582)
(-2.51859e-05 0.000260125 -0.139249)
(-0.000106576 0.000257743 -0.139547)
(-0.00010427 0.000248657 -0.13974)
(-3.10317e-05 0.00023925 -0.140493)
(1.36873e-05 0.000230078 -0.142189)
(2.79989e-05 0.000223844 -0.14265)
(5.69278e-05 0.000226434 -0.141529)
(0.000156406 0.000232377 -0.140839)
(0.000291712 0.000237017 -0.140783)
(-6.88408e-05 0.000253423 -0.148399)
(-2.59163e-06 0.000255922 -0.147471)
(2.36217e-05 0.000273144 -0.14651)
(-2.38699e-05 0.000285732 -0.146156)
(-0.000103476 0.000283059 -0.146495)
(-9.89974e-05 0.000272856 -0.146744)
(-1.5749e-05 0.000262071 -0.147512)
(3.21909e-05 0.000251298 -0.149213)
(3.60061e-05 0.000244138 -0.149687)
(5.49185e-05 0.000247074 -0.148598)
(0.000153446 0.000254087 -0.147939)
(0.000293158 0.000259866 -0.147846)
(-9.39094e-05 0.000275711 -0.155294)
(-2.09771e-05 0.000278734 -0.154341)
(1.6614e-05 0.000298094 -0.153329)
(-2.16199e-05 0.000312201 -0.152954)
(-9.84581e-05 0.000309238 -0.153331)
(-9.19003e-05 0.000297816 -0.153641)
(1.46689e-06 0.000285553 -0.15442)
(5.24837e-05 0.000273125 -0.156113)
(4.46009e-05 0.000264993 -0.156595)
(5.24159e-05 0.000268196 -0.155543)
(0.000149172 0.000276286 -0.154922)
(0.000292576 0.000283334 -0.154795)
(-0.000121709 0.000298539 -0.162061)
(-4.16917e-05 0.000302064 -0.161092)
(8.79954e-06 0.000323701 -0.160034)
(-1.84391e-05 0.000339458 -0.159637)
(-9.1501e-05 0.00033622 -0.160049)
(-8.29908e-05 0.000323467 -0.160422)
(2.0472e-05 0.000309632 -0.161211)
(7.43923e-05 0.000295526 -0.162882)
(5.37479e-05 0.000286387 -0.163364)
(4.95592e-05 0.000289755 -0.162355)
(0.000143757 0.000298902 -0.161779)
(0.000290044 0.000307335 -0.16162)
(-0.000152019 0.000321852 -0.168691)
(-6.4615e-05 0.000325823 -0.167717)
(1.85322e-07 0.000349866 -0.166617)
(-1.43845e-05 0.000367419 -0.166197)
(-8.26463e-05 0.000363937 -0.166642)
(-7.23302e-05 0.000349734 -0.167078)
(4.10721e-05 0.000334239 -0.167875)
(9.76942e-05 0.000318467 -0.169511)
(6.33986e-05 0.000308306 -0.169986)
(4.65126e-05 0.00031171 -0.169025)
(0.000137417 0.000321864 -0.1685)
(0.000285684 0.000331783 -0.168312)
(-0.000184531 0.000345593 -0.175174)
(-8.95718e-05 0.000349911 -0.174206)
(-9.23256e-06 0.000376477 -0.173071)
(-9.57531e-06 0.000395983 -0.172627)
(-7.20094e-05 0.00039231 -0.1731)
(-6.00337e-05 0.000376535 -0.173599)
(6.30199e-05 0.000359298 -0.174401)
(0.000122115 0.000341916 -0.175991)
(7.34873e-05 0.000330731 -0.176451)
(4.34592e-05 0.000334023 -0.175542)
(0.000130403 0.000345102 -0.175074)
(0.000279658 0.000356589 -0.17486)
(-0.00021884 0.000369702 -0.181498)
(-0.000116332 0.00037422 -0.180549)
(-1.94713e-05 0.000403406 -0.179386)
(-4.19736e-06 0.000425037 -0.178918)
(-5.97855e-05 0.000421252 -0.179413)
(-4.62738e-05 0.000403781 -0.179973)
(8.60147e-05 0.000384732 -0.180778)
(0.000147325 0.000365834 -0.182309)
(8.39268e-05 0.000353645 -0.182749)
(4.0592e-05 0.000356655 -0.181895)
(0.000122998 0.000368546 -0.181489)
(0.00027217 0.000381659 -0.181252)
(-0.000254456 0.000394118 -0.187653)
(-0.000144616 0.00039863 -0.186733)
(-3.05629e-05 0.000430508 -0.185551)
(1.49583e-06 0.00045445 -0.185058)
(-4.62514e-05 0.000450662 -0.185568)
(-3.12803e-05 0.000431379 -0.186188)
(0.000109705 0.000410453 -0.186992)
(0.000172945 0.000390177 -0.188456)
(9.4604e-05 0.000377024 -0.188869)
(3.81022e-05 0.000379562 -0.188072)
(0.000115495 0.000392119 -0.187732)
(0.000263452 0.000406896 -0.187476)
(-0.000290814 0.000418771 -0.193625)
(-0.000174096 0.000423012 -0.192747)
(-4.25538e-05 0.000457623 -0.191553)
(7.18738e-06 0.000484073 -0.191036)
(-3.17615e-05 0.000480426 -0.191556)
(-1.5337e-05 0.000459222 -0.192229)
(0.000133696 0.000436368 -0.193032)
(0.000198548 0.000414892 -0.194418)
(0.000105377 0.000400834 -0.194798)
(3.61654e-05 0.000402693 -0.194063)
(0.000108188 0.000415743 -0.19379)
(0.000253758 0.000432193 -0.193518)
(-0.000327291 0.000443584 -0.199404)
(-0.000204416 0.000447225 -0.198579)
(-5.55037e-05 0.000484574 -0.197381)
(1.25068e-05 0.000513738 -0.19684)
(-1.67383e-05 0.000510412 -0.197362)
(1.22668e-06 0.000487191 -0.198086)
(0.000157558 0.000462371 -0.198884)
(0.00022367 0.000439912 -0.200184)
(0.000116075 0.000425027 -0.200526)
(3.49269e-05 0.000425981 -0.199855)
(0.000101353 0.000439326 -0.199652)
(0.000243351 0.000457433 -0.199366)
(-0.000363234 0.00046847 -0.204978)
(-0.000235199 0.000471125 -0.204216)
(-6.94826e-05 0.000511173 -0.203024)
(1.70449e-05 0.00054326 -0.202461)
(-1.65638e-06 0.000540469 -0.202978)
(1.80471e-05 0.000515156 -0.203746)
(0.000180841 0.000488346 -0.204537)
(0.000247823 0.000465156 -0.205745)
(0.000126494 0.000449536 -0.206045)
(3.44877e-05 0.000449346 -0.205439)
(9.52224e-05 0.000462766 -0.205306)
(0.000232487 0.00048249 -0.20501)
(-0.000397981 0.000493336 -0.210341)
(-0.000266064 0.000494562 -0.20965)
(-8.45658e-05 0.000537225 -0.208471)
(2.03718e-05 0.000572441 -0.207887)
(1.29761e-05 0.000570431 -0.208395)
(3.47384e-05 0.000542971 -0.209201)
(0.000203085 0.000514164 -0.209982)
(0.000270504 0.000490528 -0.211091)
(0.000136402 0.000474275 -0.211347)
(3.48928e-05 0.000472688 -0.210807)
(8.99766e-05 0.000485948 -0.210744)
(0.0002214 0.000507224 -0.21044)
(-0.000430878 0.000518041 -0.215482)
(-0.000296626 0.000517367 -0.21487)
(-0.000100824 0.000562522 -0.213714)
(2.20563e-05 0.000601065 -0.213112)
(2.66355e-05 0.000600099 -0.213603)
(5.09007e-05 0.000570445 -0.214441)
(0.000223824 0.000539653 -0.21521)
(0.0002912 0.000515879 -0.216216)
(0.000145535 0.000499102 -0.216425)
(3.61214e-05 0.000495852 -0.215952)
(8.5727e-05 0.000508695 -0.215957)
(0.000210297 0.000531437 -0.215647)
(-0.000461291 0.000542438 -0.220392)
(-0.000326501 0.000539337 -0.219866)
(-0.000118307 0.000586804 -0.218743)
(2.16873e-05 0.000628857 -0.218126)
(3.87993e-05 0.000629211 -0.218596)
(6.61283e-05 0.000597339 -0.219457)
(0.000242592 0.000564605 -0.22021)
(0.000309397 0.000541044 -0.22111)
(0.000153605 0.000523869 -0.22127)
(3.80796e-05 0.000518677 -0.220864)
(8.25053e-05 0.000530829 -0.220935)
(0.000199345 0.000554928 -0.220621)
(-0.000488639 0.000566381 -0.225063)
(-0.000355311 0.000560289 -0.224628)
(-0.000137031 0.000609821 -0.223546)
(1.88981e-05 0.000655535 -0.222919)
(4.89694e-05 0.000657498 -0.223362)
(8.00236e-05 0.000623407 -0.224238)
(0.000258938 0.000588807 -0.224973)
(0.0003246 0.000565851 -0.225765)
(0.000160302 0.000548414 -0.225876)
(4.0598e-05 0.000540992 -0.225536)
(8.02551e-05 0.000552165 -0.225667)
(0.000188663 0.000577496 -0.225352)
(-0.000512419 0.000589718 -0.229485)
(-0.000382693 0.000580039 -0.229144)
(-0.000156965 0.000631322 -0.228113)
(1.3393e-05 0.000680808 -0.227481)
(5.66972e-05 0.000684667 -0.227893)
(9.22125e-05 0.000648379 -0.228774)
(0.000272444 0.000612031 -0.229487)
(0.000336353 0.000590109 -0.230172)
(0.000165314 0.000572555 -0.230235)
(4.34351e-05 0.000562612 -0.229959)
(7.883e-05 0.000572509 -0.230146)
(0.000178315 0.000598929 -0.22983)
(-0.000532227 0.000612294 -0.233652)
(-0.000408311 0.000598411 -0.233403)
(-0.000178018 0.000651057 -0.232432)
(4.97112e-06 0.000704376 -0.231802)
(6.16081e-05 0.000710404 -0.232179)
(0.000102358 0.000671965 -0.233056)
(0.000282734 0.000634034 -0.233743)
(0.00034425 0.000613613 -0.234325)
(0.000168334 0.000596097 -0.234343)
(4.62875e-05 0.000583341 -0.234128)
(7.79994e-05 0.000591658 -0.234363)
(0.000168311 0.000619016 -0.234046)
(-0.000547774 0.000633956 -0.237554)
(-0.000431856 0.000615241 -0.237397)
(-0.000200028 0.000668786 -0.236493)
(-6.45251e-06 0.000725933 -0.235872)
(6.34222e-05 0.000734381 -0.236212)
(0.000110173 0.000693865 -0.237075)
(0.000289493 0.000654566 -0.237733)
(0.000347964 0.000636148 -0.238216)
(0.000169085 0.000618833 -0.238193)
(4.88061e-05 0.00060298 -0.238035)
(7.74605e-05 0.000609413 -0.238311)
(0.000158605 0.000637551 -0.237993)
(-0.000558902 0.000654561 -0.241188)
(-0.000453051 0.00063039 -0.241116)
(-0.000222755 0.00068429 -0.240287)
(-2.08312e-05 0.00074518 -0.239682)
(6.19716e-05 0.000756263 -0.239984)
(0.000115429 0.000713773 -0.240823)
(0.000292478 0.000673381 -0.241449)
(0.000347255 0.000657496 -0.24184)
(0.00016733 0.00064055 -0.241781)
(5.06185e-05 0.00062133 -0.241676)
(7.68584e-05 0.000625584 -0.241983)
(0.000149105 0.00065434 -0.241664)
(-0.00056559 0.000673985 -0.244548)
(-0.000471654 0.000643745 -0.244555)
(-0.000245875 0.000697378 -0.243806)
(-3.7978e-05 0.000761838 -0.243224)
(5.72123e-05 0.00077572 -0.243488)
(0.000117968 0.000731395 -0.244293)
(0.000291528 0.000690245 -0.244885)
(0.000341996 0.000677445 -0.245194)
(0.000162901 0.000661039 -0.245105)
(5.13553e-05 0.000638202 -0.245047)
(7.58115e-05 0.000639999 -0.245376)
(0.000139681 0.000669215 -0.245056)
(-0.000567952 0.000692121 -0.247632)
(-0.000487461 0.000655234 -0.247709)
(-0.000268987 0.000707908 -0.247042)
(-5.75653e-05 0.000775663 -0.246492)
(4.92294e-05 0.000792446 -0.246718)
(0.000117706 0.000746458 -0.247481)
(0.000286576 0.000704948 -0.248037)
(0.000332179 0.000695795 -0.248275)
(0.000155711 0.000680101 -0.248163)
(5.06806e-05 0.000653427 -0.248145)
(7.3942e-05 0.000652508 -0.248488)
(0.00013018 0.00068204 -0.248164)
(-0.000566228 0.000708828 -0.25044)
(-0.000500304 0.000664749 -0.250575)
(-0.000291619 0.000715774 -0.249994)
(-7.91345e-05 0.000786454 -0.249482)
(3.82347e-05 0.000806166 -0.249673)
(0.000114634 0.000758714 -0.250385)
(0.000277655 0.000717267 -0.250903)
(0.000317931 0.000712311 -0.251082)
(0.000145774 0.000697501 -0.250955)
(4.8321e-05 0.000666809 -0.250972)
(7.09082e-05 0.000662929 -0.251317)
(0.000120443 0.000692632 -0.250989)
(-0.000560773 0.000724048 -0.252975)
(-0.000510054 0.000672299 -0.253156)
(-0.000313243 0.000720823 -0.252659)
(-0.000102115 0.000793977 -0.252192)
(2.45557e-05 0.000816561 -0.25235)
(0.000108818 0.000767864 -0.253005)
(0.000264903 0.000727018 -0.253486)
(0.000299511 0.000726816 -0.253618)
(0.000133212 0.000713051 -0.253484)
(4.4093e-05 0.000678199 -0.253528)
(6.64338e-05 0.000671176 -0.253868)
(0.000110316 0.000700954 -0.253535)
(-0.000552032 0.000737765 -0.255241)
(-0.000516622 0.000677952 -0.255455)
(-0.000333302 0.000723179 -0.255041)
(-0.000125851 0.000798193 -0.254624)
(8.61934e-06 0.000823506 -0.254752)
(0.000100397 0.000773857 -0.255346)
(0.000248555 0.000734153 -0.255788)
(0.000277315 0.0007392 -0.255888)
(0.000118262 0.000726634 -0.255753)
(3.79237e-05 0.000687539 -0.255818)
(6.03346e-05 0.000677215 -0.256145)
(9.96694e-05 0.000706982 -0.255805)
(-0.000540515 0.000749924 -0.257247)
(-0.000519963 0.000681737 -0.257481)
(-0.000351233 0.000722868 -0.257146)
(-0.000149636 0.000799082 -0.256781)
(-9.07341e-06 0.000826878 -0.256884)
(8.95729e-05 0.000776561 -0.257413)
(0.00022895 0.00073857 -0.257819)
(0.000251857 0.000749311 -0.257898)
(0.000101273 0.000738086 -0.257769)
(2.98637e-05 0.000694722 -0.257849)
(5.25404e-05 0.000680983 -0.258156)
(8.84163e-05 0.000710683 -0.25781)
(-0.000526768 0.000760494 -0.259003)
(-0.000520081 0.000683718 -0.259245)
(-0.000366509 0.000719981 -0.258983)
(-0.000172749 0.000796661 -0.258673)
(-2.79723e-05 0.0008266 -0.258754)
(7.66058e-05 0.000775916 -0.259218)
(0.000206514 0.000740224 -0.259589)
(0.000223763 0.000757035 -0.259659)
(8.26902e-05 0.00074728 -0.259542)
(2.0091e-05 0.000699687 -0.25963)
(4.31061e-05 0.000682462 -0.259911)
(7.6521e-05 0.000712072 -0.259559)
(-0.000511341 0.000769461 -0.260522)
(-0.000517029 0.000683978 -0.260761)
(-0.000378665 0.000714664 -0.260565)
(-0.000194499 0.000791026 -0.26031)
(-4.75045e-05 0.000822678 -0.260373)
(6.18072e-05 0.000771933 -0.260772)
(0.000181756 0.000739117 -0.261112)
(0.000193743 0.000762291 -0.261183)
(6.30429e-05 0.000754127 -0.261082)
(8.90454e-06 0.000702408 -0.261174)
(3.22124e-05 0.000681669 -0.261425)
(6.40068e-05 0.000711196 -0.261066)
(-0.000494769 0.000776814 -0.261818)
(-0.000510925 0.000682595 -0.262044)
(-0.000387337 0.000707086 -0.261908)
(-0.000214257 0.000782331 -0.261706)
(-6.71001e-05 0.00081519 -0.261754)
(4.55359e-05 0.000764676 -0.262091)
(0.000155259 0.000735282 -0.262402)
(0.000162572 0.000765025 -0.262483)
(4.29181e-05 0.000758565 -0.262402)
(-3.29169e-06 0.00070289 -0.262493)
(2.01563e-05 0.000678643 -0.262711)
(5.0957e-05 0.000708122 -0.262346)
(-0.000477551 0.000782542 -0.262909)
(-0.000501956 0.000679629 -0.263114)
(-0.000392297 0.000697417 -0.263028)
(-0.000231495 0.000770761 -0.262877)
(-8.62146e-05 0.000804262 -0.262914)
(2.81935e-05 0.000754246 -0.263192)
(0.000127669 0.000728769 -0.263479)
(0.000131072 0.0007652 -0.263575)
(2.29345e-05 0.000760552 -0.263516)
(-1.60133e-05 0.000701155 -0.263602)
(7.32896e-06 0.000673446 -0.263786)
(3.75099e-05 0.000702935 -0.263417)
(-0.000460133 0.000786632 -0.263813)
(-0.0004904 0.000675175 -0.263991)
(-0.000393485 0.000685868 -0.263946)
(-0.000245817 0.000756543 -0.263841)
(-0.00010435 0.000790073 -0.26387)
(1.02191e-05 0.000740803 -0.264094)
(9.96707e-05 0.000719676 -0.26436)
(0.00010006 0.000762815 -0.264477)
(3.69817e-06 0.000760079 -0.264441)
(-2.87381e-05 0.00069725 -0.264519)
(-5.82456e-06 0.000666196 -0.264668)
(2.3842e-05 0.000695774 -0.264297)
(-0.000442897 0.00078915 -0.264547)
(-0.000476628 0.000669396 -0.264695)
(-0.000391033 0.000672737 -0.264683)
(-0.000256995 0.000740028 -0.264619)
(-0.000121083 0.000772989 -0.264641)
(-7.92605e-06 0.000724689 -0.264819)
(7.1948e-05 0.000708244 -0.265068)
(7.02792e-05 0.000757992 -0.265207)
(-1.42603e-05 0.000757261 -0.265194)
(-4.09669e-05 0.000691357 -0.265261)
(-1.8866e-05 0.000657093 -0.265379)
(1.01494e-05 0.000686871 -0.265007)
(-0.000426111 0.000790118 -0.265137)
(-0.000461011 0.000662399 -0.265252)
(-0.000385231 0.000658324 -0.265265)
(-0.000264987 0.000721606 -0.265235)
(-0.000136164 0.000753352 -0.265253)
(-2.59247e-05 0.000706183 -0.265392)
(4.49685e-05 0.000694658 -0.265628)
(4.22184e-05 0.000750818 -0.26579)
(-3.06125e-05 0.000752176 -0.265798)
(-5.23409e-05 0.000683598 -0.265854)
(-3.14359e-05 0.000646307 -0.265941)
(-3.40511e-06 0.000676417 -0.26557)
(-0.000409942 0.000789607 -0.265605)
(-0.000443877 0.000654273 -0.265689)
(-0.000376433 0.000642861 -0.265717)
(-0.000269914 0.000701642 -0.265715)
(-0.00014947 0.000731552 -0.265731)
(-4.35286e-05 0.000685605 -0.265839)
(1.90729e-05 0.000679137 -0.266065)
(1.6215e-05 0.00074144 -0.266249)
(-4.51434e-05 0.000744978 -0.266275)
(-6.25848e-05 0.000674161 -0.26632)
(-4.32328e-05 0.000634043 -0.26638)
(-1.66864e-05 0.000664626 -0.266012)
(-0.000394517 0.000787624 -0.265971)
(-0.000425597 0.00064507 -0.266024)
(-0.00036505 0.000626553 -0.266062)
(-0.000271991 0.000680471 -0.266083)
(-0.000160937 0.000707986 -0.266096)
(-6.04564e-05 0.000663299 -0.26618)
(-5.38702e-06 0.000661899 -0.266399)
(-7.44468e-06 0.000729984 -0.266603)
(-5.76972e-05 0.000735793 -0.266645)
(-7.14727e-05 0.000663207 -0.266678)
(-5.40062e-05 0.000620489 -0.266714)
(-2.95527e-05 0.000651691 -0.266352)
(-0.000379906 0.000784173 -0.266252)
(-0.000406523 0.000634805 -0.266278)
(-0.000351548 0.000609567 -0.266321)
(-0.000271504 0.000658411 -0.266357)
(-0.000170571 0.000683022 -0.26637)
(-7.64941e-05 0.00063955 -0.266435)
(-2.81702e-05 0.000643117 -0.26665)
(-2.86237e-05 0.000716576 -0.266869)
(-6.82438e-05 0.00072475 -0.266924)
(-7.88899e-05 0.000650884 -0.266947)
(-6.35983e-05 0.000605815 -0.266961)
(-4.18952e-05 0.000637782 -0.266607)
(-0.000366147 0.000779254 -0.266465)
(-0.000386985 0.000623481 -0.266465)
(-0.000336395 0.000592019 -0.26651)
(-0.000268791 0.000635717 -0.266558)
(-0.00017845 0.000656988 -0.266569)
(-9.14904e-05 0.000614626 -0.266621)
(-4.91337e-05 0.000622951 -0.266833)
(-4.73061e-05 0.000701351 -0.267066)
(-7.68507e-05 0.00071198 -0.267131)
(-8.48157e-05 0.000637335 -0.267143)
(-7.19347e-05 0.000590183 -0.267139)
(-5.36394e-05 0.00062306 -0.266795)
(-0.000353252 0.000772863 -0.266622)
(-0.000367274 0.00061109 -0.2666)
(-0.000320037 0.000573997 -0.266644)
(-0.000264212 0.000612607 -0.266699)
(-0.000184702 0.000630181 -0.266709)
(-0.000105356 0.000588765 -0.266752)
(-6.82281e-05 0.00060155 -0.266963)
(-6.35775e-05 0.000684431 -0.267205)
(-8.36605e-05 0.000697613 -0.267278)
(-8.93081e-05 0.000622693 -0.267281)
(-7.90148e-05 0.000573745 -0.267261)
(-6.47435e-05 0.000607671 -0.266928)
(-0.00034122 0.000764988 -0.266736)
(-0.000347638 0.000597618 -0.266695)
(-0.000302872 0.000555567 -0.266735)
(-0.000258122 0.000589259 -0.266795)
(-0.000189492 0.00060285 -0.266803)
(-0.000118063 0.000562168 -0.26684)
(-8.54837e-05 0.00057904 -0.267051)
(-7.76022e-05 0.000665933 -0.2673)
(-8.88679e-05 0.000681774 -0.267378)
(-9.2485e-05 0.000607075 -0.267374)
(-8.48963e-05 0.000556633 -0.26734)
(-7.51944e-05 0.000591742 -0.267018)
(-0.000330048 0.000755613 -0.266815)
(-0.000328279 0.000583044 -0.266757)
(-0.000285238 0.000536768 -0.266794)
(-0.000250852 0.000565809 -0.266855)
(-0.000193002 0.000575202 -0.266862)
(-0.000129632 0.000534999 -0.266896)
(-0.000100994 0.000555524 -0.267107)
(-8.95969e-05 0.000645964 -0.26736)
(-9.26976e-05 0.000664575 -0.267442)
(-9.45039e-05 0.000590582 -0.26743)
(-8.96774e-05 0.00053896 -0.267384)
(-8.50009e-05 0.000575382 -0.267076)
(-0.000319739 0.000744716 -0.266868)
(-0.000309363 0.000567341 -0.266796)
(-0.000267414 0.000517622 -0.266827)
(-0.000242699 0.000542362 -0.266888)
(-0.000195422 0.000547399 -0.266894)
(-0.000140127 0.000507388 -0.266927)
(-0.000114894 0.000531086 -0.267138)
(-9.98064e-05 0.00062462 -0.267394)
(-9.53854e-05 0.000646115 -0.267477)
(-9.55432e-05 0.000573297 -0.267459)
(-9.34797e-05 0.000520819 -0.267403)
(-9.41865e-05 0.000558682 -0.267109)
(-0.000310308 0.00073227 -0.266901)
(-0.000291021 0.000550479 -0.266816)
(-0.000249624 0.000498134 -0.266841)
(-0.000233918 0.000518988 -0.266901)
(-0.00019694 0.000519565 -0.266907)
(-0.00014964 0.000479431 -0.26694)
(-0.000127346 0.00050579 -0.267151)
(-0.000108484 0.000601985 -0.267408)
(-9.71639e-05 0.000626479 -0.267491)
(-9.57886e-05 0.000555288 -0.267467)
(-9.64348e-05 0.000502286 -0.267403)
(-0.000102783 0.000541714 -0.267122)
(-0.000301782 0.000718244 -0.266918)
(-0.000273366 0.000532426 -0.266822)
(-0.000232054 0.0004783 -0.266841)
(-0.000224735 0.000495737 -0.2669)
(-0.000197734 0.000491791 -0.266904)
(-0.00015828 0.000451203 -0.26694)
(-0.000138526 0.000479685 -0.267151)
(-0.000115881 0.00057813 -0.267406)
(-9.82557e-05 0.000605742 -0.267489)
(-9.54237e-05 0.000536605 -0.267459)
(-9.86755e-05 0.000483415 -0.267388)
(-0.000110826 0.000524535 -0.267121)
(-0.000294203 0.000702603 -0.266923)
(-0.000256501 0.000513145 -0.266817)
(-0.000214862 0.000458104 -0.26683)
(-0.000215343 0.000472636 -0.266887)
(-0.000197976 0.000464141 -0.266891)
(-0.000166171 0.000422752 -0.266929)
(-0.000148612 0.000452808 -0.26714)
(-0.000122235 0.000553114 -0.267393)
(-9.88708e-05 0.000583964 -0.267475)
(-9.46264e-05 0.000517285 -0.267439)
(-0.000100331 0.000464248 -0.267362)
(-0.000118353 0.000507187 -0.267109)
(-0.000287628 0.000685307 -0.26692)
(-0.000240527 0.000492595 -0.266805)
(-0.00019819 0.000437524 -0.266812)
(-0.000205918 0.000449701 -0.266866)
(-0.000197825 0.000436659 -0.266871)
(-0.00017344 0.000394115 -0.266911)
(-0.000157779 0.000425185 -0.267121)
(-0.000127774 0.000526993 -0.267371)
(-9.9208e-05 0.000561197 -0.267451)
(-9.35682e-05 0.000497354 -0.26741)
(-0.000101525 0.000444813 -0.267329)
(-0.000125399 0.000489702 -0.26709)
(-0.000282126 0.000666314 -0.26691)
(-0.000225548 0.000470736 -0.266788)
(-0.000182178 0.000416534 -0.266788)
(-0.000196624 0.000426933 -0.26684)
(-0.000197437 0.000409373 -0.266845)
(-0.000180222 0.000365312 -0.266888)
(-0.000166205 0.000396838 -0.267097)
(-0.000132717 0.000499812 -0.267344)
(-9.9459e-05 0.000537483 -0.267421)
(-9.24163e-05 0.000476828 -0.267375)
(-0.000102379 0.000425123 -0.26729)
(-0.000132002 0.000472101 -0.267065)
(-0.000277774 0.000645583 -0.266896)
(-0.000211679 0.000447523 -0.266766)
(-0.00016697 0.000395103 -0.266761)
(-0.000187621 0.000404327 -0.26681)
(-0.000196962 0.000382299 -0.266816)
(-0.00018665 0.000336356 -0.266862)
(-0.000174062 0.000367784 -0.267069)
(-0.000137275 0.000471614 -0.267312)
(-9.98139e-05 0.000512858 -0.267386)
(-9.13376e-05 0.000455712 -0.267335)
(-0.00010301 0.000405185 -0.267247)
(-0.000138201 0.000454394 -0.267037)
(-0.000274656 0.000623073 -0.266878)
(-0.000199048 0.000422914 -0.266742)
(-0.000152719 0.000373195 -0.266732)
(-0.00017907 0.000381868 -0.266778)
(-0.000196551 0.000355443 -0.266785)
(-0.000192863 0.000307255 -0.266833)
(-0.000181526 0.000338037 -0.267039)
(-0.000141661 0.000442438 -0.267277)
(-0.000100466 0.000487356 -0.267348)
(-9.05014e-05 0.000434007 -0.267293)
(-0.00010354 0.000384995 -0.267202)
(-0.000144039 0.000436589 -0.267006)
(-0.000272859 0.000598743 -0.266858)
(-0.000187792 0.000396864 -0.266717)
(-0.000139594 0.000350772 -0.266702)
(-0.000171137 0.000359536 -0.266745)
(-0.000196353 0.000328802 -0.266753)
(-0.000199002 0.00027801 -0.266804)