/*--------------------------------*- C++ -*----------------------------------*\
| =========                 |                                                 |
| \\      /  F ield         | OpenFOAM: The Open Source CFD Toolbox           |
|  \\    /   O peration     | Version:  v1912                                 |
|   \\  /    A nd           | Website:  www.openfoam.com                      |
|    \\/     M anipulation  |                                                 |
\*---------------------------------------------------------------------------*/
FoamFile
{
    version     2.0;
    format      ascii;
    class       volVectorField;
    location    "8.8";
    object      UMean;
}
// * * * * * * * * * * * * * * * * * * * * * * * * * * * * * * * * * * * * * //

dimensions      [0 1 -1 0 0 0 0];


internalField   nonuniform List<vector> 
34128
(
(2.17654e-08 1.67037e-07 -0.00338516)
(3.58275e-07 1.67912e-07 -0.00337492)
(2.53664e-07 1.7097e-07 -0.00335542)
(-4.28878e-07 1.72053e-07 -0.00334927)
(-8.88588e-07 1.70226e-07 -0.0033626)
(-9.14309e-07 1.67431e-07 -0.0033821)
(-4.42474e-07 1.6594e-07 -0.00339185)
(1.04511e-07 1.67628e-07 -0.00337491)
(-7.486e-08 1.70728e-07 -0.00335024)
(-8.20097e-07 1.70014e-07 -0.00336021)
(-7.5795e-07 1.65477e-07 -0.00339712)
(2.55531e-07 1.64511e-07 -0.00340707)
(5.84617e-08 1.4497e-06 -0.0102648)
(1.0241e-06 1.46344e-06 -0.0102348)
(7.15659e-07 1.49911e-06 -0.0101775)
(-1.26067e-06 1.51356e-06 -0.0101595)
(-2.58862e-06 1.49038e-06 -0.0101986)
(-2.66466e-06 1.45496e-06 -0.010256)
(-1.30453e-06 1.4372e-06 -0.0102846)
(2.76718e-07 1.45802e-06 -0.0102348)
(-2.32819e-07 1.49516e-06 -0.0101624)
(-2.37322e-06 1.48486e-06 -0.0101916)
(-2.18802e-06 1.43136e-06 -0.0102999)
(7.22184e-07 1.42152e-06 -0.0103292)
(9.29011e-08 3.79475e-06 -0.0173557)
(1.64977e-06 3.83463e-06 -0.0173064)
(1.14008e-06 3.93427e-06 -0.0172126)
(-2.07398e-06 3.9752e-06 -0.0171829)
(-4.22968e-06 3.90953e-06 -0.0172473)
(-4.35703e-06 3.80937e-06 -0.0173414)
(-2.15685e-06 3.75954e-06 -0.0173882)
(4.08133e-07 3.81812e-06 -0.0173065)
(-4.06959e-07 3.92211e-06 -0.0171878)
(-3.86271e-06 3.89245e-06 -0.0172357)
(-3.55383e-06 3.74312e-06 -0.0174131)
(1.1457e-06 3.71605e-06 -0.0174614)
(1.26252e-07 7.37246e-06 -0.0246415)
(2.23761e-06 7.45242e-06 -0.0245737)
(1.52969e-06 7.64835e-06 -0.0244447)
(-2.86792e-06 7.72933e-06 -0.0244039)
(-5.81216e-06 7.5992e-06 -0.0244924)
(-5.99165e-06 7.40098e-06 -0.0246219)
(-2.99894e-06 7.30277e-06 -0.0246862)
(5.00796e-07 7.41836e-06 -0.0245738)
(-5.94352e-07 7.62289e-06 -0.0244109)
(-5.28635e-06 7.56349e-06 -0.0244766)
(-4.85173e-06 7.27034e-06 -0.02472)
(1.53296e-06 7.2178e-06 -0.0247868)
(1.6065e-07 1.20412e-05 -0.0320973)
(2.79052e-06 1.21748e-05 -0.0320118)
(1.88734e-06 1.2498e-05 -0.0318494)
(-3.64184e-06 1.2632e-05 -0.0317982)
(-7.33701e-06 1.24161e-05 -0.0319097)
(-7.56954e-06 1.20877e-05 -0.0320729)
(-3.83148e-06 1.19253e-05 -0.0321537)
(5.55096e-07 1.21165e-05 -0.0320123)
(-7.93851e-07 1.24539e-05 -0.0318074)
(-6.64362e-06 1.23545e-05 -0.0318898)
(-6.07962e-06 1.18717e-05 -0.0321958)
(1.88928e-06 1.17858e-05 -0.0322803)
(1.9886e-07 1.78369e-05 -0.0396936)
(3.31176e-06 1.80374e-05 -0.0395914)
(2.21577e-06 1.85183e-05 -0.0393976)
(-4.39535e-06 1.87176e-05 -0.0393365)
(-8.80561e-06 1.8395e-05 -0.0394698)
(-9.0923e-06 1.79049e-05 -0.0396646)
(-4.65602e-06 1.7663e-05 -0.0397609)
(5.70087e-07 1.79478e-05 -0.0395923)
(-1.00581e-06 1.84496e-05 -0.0393482)
(-7.93545e-06 1.83001e-05 -0.0394461)
(-7.23688e-06 1.75831e-05 -0.0398105)
(2.21839e-06 1.74562e-05 -0.0399119)
(2.43841e-07 2.47372e-05 -0.0473972)
(3.80463e-06 2.50179e-05 -0.0472794)
(2.51756e-06 2.56864e-05 -0.0470565)
(-5.12828e-06 2.59632e-05 -0.0469863)
(-1.02196e-05 2.55129e-05 -0.0471399)
(-1.05617e-05 2.483e-05 -0.0473641)
(-5.47437e-06 2.44931e-05 -0.0474746)
(5.44315e-07 2.48897e-05 -0.0472809)
(-1.23119e-06 2.5587e-05 -0.0470007)
(-9.1633e-06 2.53771e-05 -0.0471128)
(-8.32346e-06 2.43821e-05 -0.0475309)
(2.52328e-06 2.42066e-05 -0.0476482)
(2.98588e-07 3.27312e-05 -0.0551732)
(4.27242e-06 3.31054e-05 -0.0550408)
(2.79513e-06 3.39914e-05 -0.0547913)
(-5.84058e-06 3.43573e-05 -0.0547128)
(-1.15808e-05 3.37585e-05 -0.054885)
(-1.19797e-05 3.2852e-05 -0.0551361)
(-6.28846e-06 3.24046e-05 -0.0552595)
(4.76059e-07 3.29311e-05 -0.0550432)
(-1.47134e-06 3.38547e-05 -0.0547303)
(-1.03291e-05 3.35741e-05 -0.0548551)
(-9.33992e-06 3.22576e-05 -0.0553218)
(2.80615e-06 3.2026e-05 -0.0554538)
(3.6595e-07 4.1806e-05 -0.0629863)
(4.71841e-06 4.22871e-05 -0.0628405)
(3.05084e-06 4.34202e-05 -0.062567)
(-6.53233e-06 4.38867e-05 -0.0624811)
(-1.28912e-05 4.31184e-05 -0.0626702)
(-1.33484e-05 4.19576e-05 -0.0629456)
(-7.10023e-06 4.13846e-05 -0.0630805)
(3.63625e-07 4.20588e-05 -0.062844)
(-1.72788e-06 4.32392e-05 -0.0625019)
(-1.14354e-05 4.28775e-05 -0.062638)
(-1.02874e-05 4.11969e-05 -0.063148)
(3.06862e-06 4.09015e-05 -0.0632935)
(4.48479e-07 5.19501e-05 -0.0708038)
(5.14576e-06 5.25514e-05 -0.0706457)
(3.287e-06 5.39612e-05 -0.0703506)
(-7.20371e-06 5.45394e-05 -0.0702582)
(-1.4153e-05 5.35806e-05 -0.0704625)
(-1.46701e-05 5.21352e-05 -0.0707595)
(-7.91149e-06 5.14213e-05 -0.0709046)
(2.05671e-07 5.2261e-05 -0.0706505)
(-2.00229e-06 5.37286e-05 -0.0702828)
(-1.24849e-05 5.32754e-05 -0.0704285)
(-1.11678e-05 5.11883e-05 -0.0709767)
(3.3119e-06 5.08214e-05 -0.0711343)
(5.48348e-07 6.31513e-05 -0.0785968)
(5.55754e-06 6.38863e-05 -0.0784275)
(3.50599e-06 6.56023e-05 -0.0781134)
(-7.8549e-06 6.63031e-05 -0.0780153)
(-1.53687e-05 6.51328e-05 -0.0782331)
(-1.59473e-05 6.33726e-05 -0.0785492)
(-8.72375e-06 6.25027e-05 -0.0787032)
(1.47568e-09 6.35256e-05 -0.078434)
(-2.29574e-06 6.53103e-05 -0.0780439)
(-1.34807e-05 6.47553e-05 -0.078198)
(-1.19831e-05 6.22198e-05 -0.0787793)
(3.53715e-06 6.17736e-05 -0.0789477)
(6.67329e-07 7.53933e-05 -0.0863421)
(5.95665e-06 7.62756e-05 -0.0861624)
(3.71025e-06 7.83275e-05 -0.0858316)
(-8.48604e-06 7.91615e-05 -0.0857285)
(-1.65407e-05 7.77586e-05 -0.0859584)
(-1.71824e-05 7.56537e-05 -0.0862913)
(-9.53813e-06 7.46125e-05 -0.086453)
(-2.48911e-07 7.58363e-05 -0.086171)
(-2.60885e-06 7.79677e-05 -0.0857617)
(-1.44254e-05 7.73005e-05 -0.0859227)
(-1.27355e-05 7.42754e-05 -0.0865327)
(3.74554e-06 7.37419e-05 -0.0867105)
(8.06799e-07 8.86728e-05 -0.0940231)
(6.34583e-06 8.97161e-05 -0.0938341)
(3.90237e-06 9.21332e-05 -0.0934885)
(-9.09708e-06 9.31107e-05 -0.0933811)
(-1.76713e-05 9.14542e-05 -0.0936217)
(-1.8378e-05 8.89753e-05 -0.0939692)
(-1.03553e-05 8.7748e-05 -0.0941377)
(-5.44507e-07 8.91894e-05 -0.0938449)
(-2.94145e-06 9.16964e-05 -0.0934191)
(-1.53214e-05 9.09069e-05 -0.0935861)
(-1.34267e-05 8.73524e-05 -0.0942205)
(3.93869e-06 8.67239e-05 -0.0944067)
(9.67891e-07 0.000102983 -0.101631)
(6.72782e-06 0.000104201 -0.101433)
(4.08512e-06 0.000107013 -0.101074)
(-9.6879e-06 0.000108145 -0.100963)
(-1.87632e-05 0.000106213 -0.101213)
(-1.95366e-05 0.00010333 -0.101574)
(-1.11753e-05 0.000101902 -0.101748)
(-8.83629e-07 0.000103578 -0.101446)
(-3.29288e-06 0.00010649 -0.101006)
(-1.6171e-05 0.000105568 -0.101178)
(-1.40585e-05 0.000101444 -0.101834)
(4.11821e-06 0.000100712 -0.102027)
(1.15161e-06 0.000118273 -0.109155)
(7.10512e-06 0.00011968 -0.10895)
(4.26124e-06 0.000122917 -0.10858)
(-1.02579e-05 0.000124213 -0.108466)
(-1.98179e-05 0.000121985 -0.108724)
(-2.06597e-05 0.000118669 -0.109095)
(-1.19979e-05 0.000117024 -0.109275)
(-1.26416e-06 0.000118951 -0.108966)
(-3.6622e-06 0.000122296 -0.108515)
(-1.69757e-05 0.000121231 -0.10869)
(-1.46325e-05 0.0001165 -0.109363)
(4.28505e-06 0.000115658 -0.109563)
(1.35874e-06 0.000134505 -0.116587)
(7.47974e-06 0.000136114 -0.116374)
(4.43335e-06 0.000139805 -0.115995)
(-1.08056e-05 0.000141276 -0.115878)
(-2.08356e-05 0.000138731 -0.116144)
(-2.17477e-05 0.000134953 -0.116524)
(-1.28212e-05 0.000133077 -0.116708)
(-1.68343e-06 0.00013527 -0.116394)
(-4.04794e-06 0.000139073 -0.115932)
(-1.77362e-05 0.000137858 -0.116111)
(-1.5149e-05 0.000132482 -0.116799)
(4.43994e-06 0.000131524 -0.117004)
(1.58991e-06 0.00015164 -0.123917)
(7.8534e-06 0.000153466 -0.123698)
(4.60405e-06 0.000157639 -0.12331)
(-1.13289e-05 0.000159295 -0.123191)
(-2.18158e-05 0.000156411 -0.123463)
(-2.27997e-05 0.000152144 -0.123851)
(-1.36431e-05 0.000150023 -0.124039)
(-2.13819e-06 0.000152495 -0.123721)
(-4.44806e-06 0.000156782 -0.123251)
(-1.84519e-05 0.000155406 -0.123432)
(-1.5608e-05 0.000149354 -0.124133)
(4.58352e-06 0.000148272 -0.124342)
(1.8457e-06 0.000169637 -0.131138)
(8.22762e-06 0.000171692 -0.130912)
(4.77602e-06 0.000176376 -0.130517)
(-1.18251e-05 0.000178226 -0.130396)
(-2.27567e-05 0.000174984 -0.130674)
(-2.38143e-05 0.000170201 -0.131069)
(-1.44603e-05 0.000167822 -0.13126)
(-2.62479e-06 0.000170585 -0.130939)
(-4.86013e-06 0.000175378 -0.130462)
(-1.91216e-05 0.000173834 -0.130645)
(-1.60085e-05 0.000167074 -0.131356)
(4.71636e-06 0.000165864 -0.131569)
(2.12673e-06 0.000188454 -0.138242)
(8.60372e-06 0.000190753 -0.138011)
(4.95195e-06 0.000195973 -0.137609)
(-1.22908e-05 0.000198028 -0.137487)
(-2.36557e-05 0.000194408 -0.13777)
(-2.47888e-05 0.000189082 -0.138171)
(-1.52691e-05 0.000186432 -0.138365)
(-3.13927e-06 0.000189495 -0.138042)
(-5.28132e-06 0.000194817 -0.137559)
(-1.9743e-05 0.000193096 -0.137744)
(-1.63486e-05 0.0001856 -0.138464)
(4.83891e-06 0.000184259 -0.138679)
(2.43376e-06 0.000208048 -0.145225)
(8.98293e-06 0.000210603 -0.14499)
(5.13459e-06 0.000216388 -0.144582)
(-1.27218e-05 0.000218657 -0.144458)
(-2.45091e-05 0.000214638 -0.144746)
(-2.57195e-05 0.000208746 -0.145151)
(-1.6065e-05 0.000205811 -0.145348)
(-3.67742e-06 0.000209184 -0.145024)
(-5.70853e-06 0.000215052 -0.144536)
(-2.0313e-05 0.000213147 -0.144722)
(-1.66258e-05 0.000204892 -0.145449)
(4.95154e-06 0.000203415 -0.145667)
(2.76776e-06 0.000228377 -0.152081)
(9.36639e-06 0.000231201 -0.151841)
(5.32674e-06 0.000237575 -0.151428)
(-1.31132e-05 0.000240068 -0.151304)
(-2.53118e-05 0.000235631 -0.151595)
(-2.66019e-05 0.000229148 -0.152005)
(-1.68429e-05 0.000225917 -0.152204)
(-4.23483e-06 0.000229605 -0.151879)
(-6.13833e-06 0.000236036 -0.151387)
(-2.08276e-05 0.000233941 -0.151574)
(-1.68368e-05 0.000224904 -0.152307)
(5.05456e-06 0.000223292 -0.152527)
(3.13007e-06 0.000249395 -0.158803)
(9.75526e-06 0.0002525 -0.15856)
(5.53122e-06 0.000259489 -0.158143)
(-1.34591e-05 0.000262214 -0.158017)
(-2.60579e-05 0.000257341 -0.158312)
(-2.743e-05 0.000250244 -0.158725)
(-1.75967e-05 0.000246705 -0.158926)
(-4.80691e-06 0.000250713 -0.158601)
(-6.56704e-06 0.000257722 -0.158106)
(-2.12816e-05 0.000255429 -0.158293)
(-1.69774e-05 0.000245594 -0.159031)
(5.14826e-06 0.000243845 -0.159252)
(3.52242e-06 0.000271053 -0.165386)
(1.01507e-05 0.000274452 -0.165139)
(5.7509e-06 0.00028208 -0.164719)
(-1.37532e-05 0.000285048 -0.164593)
(-2.67399e-05 0.00027972 -0.16489)
(-2.8197e-05 0.000271986 -0.165305)
(-1.83199e-05 0.000268128 -0.165509)
(-5.3889e-06 0.000272459 -0.165184)
(-6.99074e-06 0.000280057 -0.164687)
(-2.16693e-05 0.000277561 -0.164874)
(-1.70428e-05 0.000266911 -0.165615)
(5.23297e-06 0.000265027 -0.165838)
(3.9471e-06 0.0002933 -0.171822)
(1.05541e-05 0.000297005 -0.171573)
(5.98861e-06 0.000305296 -0.17115)
(-1.3988e-05 0.000308517 -0.171024)
(-2.73493e-05 0.000302714 -0.171322)
(-2.88947e-05 0.000294321 -0.171739)
(-1.90051e-05 0.000290133 -0.171944)
(-5.97587e-06 0.00029479 -0.171621)
(-7.40521e-06 0.000302988 -0.171122)
(-2.19839e-05 0.000300281 -0.171309)
(-1.70273e-05 0.000288804 -0.172052)
(5.30913e-06 0.000286788 -0.172275)
(4.40703e-06 0.000316079 -0.178102)
(1.09668e-05 0.0003201 -0.177851)
(6.24716e-06 0.000329079 -0.177427)
(-1.41557e-05 0.000332562 -0.1773)
(-2.78764e-05 0.000326266 -0.1776)
(-2.95141e-05 0.000317192 -0.178017)
(-1.96442e-05 0.000312663 -0.178223)
(-6.56261e-06 0.000317646 -0.177902)
(-7.80598e-06 0.000326453 -0.177403)
(-2.22177e-05 0.000323529 -0.17759)
(-1.69249e-05 0.000311215 -0.178332)
(5.37735e-06 0.00030907 -0.178555)
(4.90585e-06 0.000339324 -0.184217)
(1.13905e-05 0.000343675 -0.183965)
(6.52932e-06 0.000353365 -0.183541)
(-1.42479e-05 0.000357121 -0.183414)
(-2.83105e-05 0.000350313 -0.183714)
(-3.00452e-05 0.000340535 -0.18413)
(-2.02286e-05 0.000335654 -0.184337)
(-7.14363e-06 0.000340963 -0.184019)
(-8.18825e-06 0.000350388 -0.183522)
(-2.23626e-05 0.000347239 -0.183707)
(-1.6729e-05 0.00033408 -0.184447)
(5.43859e-06 0.00033181 -0.184669)
(5.448e-06 0.000362966 -0.190157)
(1.18274e-05 0.000367657 -0.189905)
(6.83779e-06 0.000378083 -0.189482)
(-1.42557e-05 0.000382121 -0.189355)
(-2.86401e-05 0.000374784 -0.189655)
(-3.0477e-05 0.000364278 -0.190068)
(-2.07487e-05 0.000359035 -0.190276)
(-7.71297e-06 0.00036467 -0.189962)
(-8.54682e-06 0.000374718 -0.189467)
(-2.24097e-05 0.000371338 -0.18965)
(-1.64328e-05 0.000357327 -0.190386)
(5.49427e-06 0.000354938 -0.190607)
(6.03886e-06 0.000386924 -0.195911)
(1.22799e-05 0.000391966 -0.19566)
(7.17523e-06 0.000403152 -0.195239)
(-1.41702e-05 0.000407484 -0.195113)
(-2.8853e-05 0.000399597 -0.195411)
(-3.07982e-05 0.000388341 -0.195821)
(-2.11946e-05 0.000382725 -0.196028)
(-8.26414e-06 0.000388685 -0.195719)
(-8.87601e-06 0.000399361 -0.195228)
(-2.23496e-05 0.000395742 -0.195409)
(-1.60291e-05 0.000380875 -0.196139)
(5.5465e-06 0.000378373 -0.196357)
(6.68484e-06 0.000411105 -0.201469)
(1.27511e-05 0.000416509 -0.201221)
(7.54433e-06 0.000428479 -0.200803)
(-1.39823e-05 0.000433118 -0.200679)
(-2.89367e-05 0.000424663 -0.200974)
(-3.09967e-05 0.000412631 -0.201379)
(-2.15554e-05 0.000406632 -0.201585)
(-8.78981e-06 0.000412917 -0.201282)
(-9.16947e-06 0.000424224 -0.200796)
(-2.21728e-05 0.000420358 -0.200975)
(-1.55108e-05 0.000404631 -0.201695)
(5.59835e-06 0.000402024 -0.201911)
(7.39355e-06 0.000435406 -0.206824)
(1.32449e-05 0.000441183 -0.206578)
(7.94789e-06 0.000453961 -0.206166)
(-1.36833e-05 0.000458918 -0.206043)
(-2.88786e-05 0.000449876 -0.206334)
(-3.10603e-05 0.000437045 -0.206733)
(-2.182e-05 0.000430652 -0.206937)
(-9.28167e-06 0.00043726 -0.206641)
(-9.42e-06 0.000449202 -0.206163)
(-2.18693e-05 0.00044508 -0.206338)
(-1.48705e-05 0.000428493 -0.207047)
(5.65409e-06 0.000425788 -0.207258)
(8.17398e-06 0.000459713 -0.211966)
(1.37663e-05 0.000465872 -0.211725)
(8.38889e-06 0.000479481 -0.211319)
(-1.32646e-05 0.000484768 -0.211198)
(-2.86663e-05 0.000475122 -0.211484)
(-3.09765e-05 0.000461465 -0.211876)
(-2.19763e-05 0.000454669 -0.212077)
(-9.73023e-06 0.000461598 -0.211789)
(-9.61953e-06 0.000474177 -0.21132)
(-2.14291e-05 0.000469789 -0.211491)
(-1.4101e-05 0.000452343 -0.212186)
(5.71917e-06 0.000449548 -0.212393)
(9.03633e-06 0.000483873 -0.216891)
(1.43211e-05 0.000490425 -0.216655)
(8.87053e-06 0.000504889 -0.216258)
(-1.27181e-05 0.000510519 -0.216139)
(-2.82872e-05 0.000500251 -0.216419)
(-3.07327e-05 0.000485741 -0.216801)
(-2.20114e-05 0.000478532 -0.216999)
(-1.01247e-05 0.000485782 -0.21672)
(-9.75907e-06 0.000498997 -0.216262)
(-2.08425e-05 0.000494335 -0.216428)
(-1.31957e-05 0.000476029 -0.217107)
(5.79996e-06 0.000473154 -0.217308)
(9.99162e-06 0.00050771 -0.22159)
(1.49157e-05 0.000514664 -0.22136)
(9.3959e-06 0.000530003 -0.220974)
(-1.20362e-05 0.00053599 -0.220858)
(-2.77292e-05 0.000525082 -0.22113)
(-3.03162e-05 0.000509694 -0.221501)
(-2.19119e-05 0.000502061 -0.221694)
(-1.04528e-05 0.000509631 -0.221426)
(-9.82876e-06 0.000523481 -0.220982)
(-2.01002e-05 0.000518533 -0.221143)
(-1.21493e-05 0.000499375 -0.221801)
(5.90331e-06 0.000496429 -0.221995)
(1.10515e-05 0.000531042 -0.226056)
(1.55566e-05 0.000538405 -0.225834)
(9.96772e-06 0.000554639 -0.22546)
(-1.12122e-05 0.000560993 -0.225348)
(-2.69807e-05 0.000549431 -0.225611)
(-2.97141e-05 0.000533139 -0.225969)
(-2.16634e-05 0.000525075 -0.226156)
(-1.07007e-05 0.000532963 -0.2259)
(-9.8179e-06 0.000547442 -0.225471)
(-1.91939e-05 0.000542199 -0.225626)
(-1.09574e-05 0.000522198 -0.226261)
(6.03624e-06 0.000519194 -0.226448)
(1.22277e-05 0.000553675 -0.230282)
(1.62508e-05 0.000561455 -0.230069)
(1.05882e-05 0.000578599 -0.229709)
(-1.0241e-05 0.000585331 -0.229601)
(-2.60312e-05 0.000573101 -0.229853)
(-2.89139e-05 0.000555883 -0.230196)
(-2.1251e-05 0.000547381 -0.230377)
(-1.08532e-05 0.000555583 -0.230134)
(-9.71479e-06 0.000570682 -0.229723)
(-1.81162e-05 0.000565134 -0.229872)
(-9.61771e-06 0.000544306 -0.23048)
(6.20598e-06 0.000541256 -0.230659)
(1.35319e-05 0.000575406 -0.234261)
(1.70049e-05 0.000583608 -0.234058)
(1.12588e-05 0.000601673 -0.233715)
(-9.11913e-06 0.000608792 -0.233611)
(-2.48712e-05 0.000595885 -0.233851)
(-2.79033e-05 0.00057772 -0.234177)
(-2.06594e-05 0.000568773 -0.234351)
(-1.0893e-05 0.000577286 -0.234122)
(-9.50657e-06 0.000592991 -0.233732)
(-1.68611e-05 0.00058713 -0.233873)
(-8.12973e-06 0.000565494 -0.234452)
(6.41984e-06 0.000562414 -0.234622)
(1.49745e-05 0.000596028 -0.237988)
(1.78255e-05 0.000604655 -0.237795)
(1.19807e-05 0.000623645 -0.237471)
(-7.84488e-06 0.000631159 -0.237372)
(-2.34934e-05 0.000617567 -0.237599)
(-2.66712e-05 0.000598437 -0.237906)
(-1.98727e-05 0.000589044 -0.238072)
(-1.08011e-05 0.000597862 -0.237859)
(-9.17934e-06 0.000614155 -0.23749)
(-1.54244e-05 0.000607971 -0.237624)
(-6.49554e-06 0.000585555 -0.23817)
(6.68492e-06 0.000582461 -0.238331)
(1.65646e-05 0.000615333 -0.241457)
(1.87181e-05 0.000624388 -0.241276)
(1.2754e-05 0.000644302 -0.240972)
(-6.41902e-06 0.000652214 -0.240879)
(-2.18924e-05 0.000637935 -0.241091)
(-2.52074e-05 0.000617827 -0.241378)
(-1.88756e-05 0.000607987 -0.241535)
(-1.0557e-05 0.000617103 -0.241338)
(-8.71823e-06 0.00063396 -0.240994)
(-1.38041e-05 0.000627445 -0.241119)
(-4.72008e-06 0.000604285 -0.241631)
(7.00792e-06 0.000601195 -0.241781)
(1.83081e-05 0.000633128 -0.244664)
(1.96871e-05 0.000642611 -0.244496)
(1.35777e-05 0.000663438 -0.244214)
(-4.84501e-06 0.000671748 -0.244128)
(-2.00657e-05 0.000656783 -0.244324)
(-2.35039e-05 0.000635689 -0.244589)
(-1.7653e-05 0.000625405 -0.244736)
(-1.01388e-05 0.000634811 -0.244557)
(-8.10765e-06 0.000652201 -0.244238)
(-1.20005e-05 0.00064535 -0.244354)
(-2.81145e-06 0.000621489 -0.244829)
(7.39486e-06 0.000618425 -0.244969)
(2.02077e-05 0.00064923 -0.247609)
(2.07349e-05 0.000659141 -0.247454)
(1.44498e-05 0.000680863 -0.247195)
(-3.12945e-06 0.000689566 -0.247116)
(-1.80141e-05 0.000673921 -0.247294)
(-2.15546e-05 0.000651839 -0.247538)
(-1.61915e-05 0.000641117 -0.247674)
(-9.52397e-06 0.000650805 -0.247513)
(-7.33161e-06 0.000668691 -0.247221)
(-1.00167e-05 0.0006615 -0.247328)
(-7.81077e-07 0.000636989 -0.247765)
(7.85071e-06 0.000633969 -0.247893)
(2.22613e-05 0.000663458 -0.25029)
(2.1862e-05 0.000673793 -0.250149)
(1.53667e-05 0.000696385 -0.249915)
(-1.28246e-06 0.000705473 -0.249842)
(-1.57426e-05 0.000689161 -0.250003)
(-1.9357e-05 0.000666088 -0.250223)
(-1.44796e-05 0.000654935 -0.250348)
(-8.68999e-06 0.000664897 -0.250205)
(-6.37419e-06 0.000683243 -0.249942)
(-7.85919e-06 0.000675706 -0.250039)
(1.35584e-06 0.000650595 -0.250436)
(8.37886e-06 0.000647646 -0.250553)
(2.44613e-05 0.00067566 -0.25271)
(2.30657e-05 0.000686412 -0.252583)
(1.63238e-05 0.00070983 -0.252374)
(6.8229e-07 0.00071929 -0.252309)
(-1.32609e-05 0.000702324 -0.252451)
(-1.69125e-05 0.000678274 -0.252647)
(-1.2509e-05 0.00066671 -0.252762)
(-7.61517e-06 0.000676933 -0.252637)
(-5.21991e-06 0.000695686 -0.252402)
(-5.53802e-06 0.000687803 -0.252489)
(3.58104e-06 0.000662173 -0.252847)
(8.98138e-06 0.000659325 -0.252953)
(2.67933e-05 0.000685761 -0.254873)
(2.43407e-05 0.000696925 -0.254761)
(1.73151e-05 0.000721115 -0.254577)
(2.74666e-06 0.000730918 -0.254519)
(-1.05841e-05 0.000713324 -0.254643)
(-1.42274e-05 0.000688321 -0.254815)
(-1.02752e-05 0.000676365 -0.254918)
(-6.27974e-06 0.000686835 -0.254812)
(-3.85467e-06 0.000705937 -0.254605)
(-3.06639e-06 0.000697713 -0.254683)
(5.87258e-06 0.000671641 -0.255001)
(9.65926e-06 0.000668919 -0.255096)
(2.92355e-05 0.000693678 -0.256787)
(2.5678e-05 0.000705246 -0.256689)
(1.83333e-05 0.000730145 -0.256531)
(4.88925e-06 0.000740265 -0.25648)
(-7.73307e-06 0.000722069 -0.256586)
(-1.13136e-05 0.000696136 -0.256733)
(-7.7793e-06 0.000683813 -0.256825)
(-4.66744e-06 0.000694519 -0.256738)
(-2.2671e-06 0.000713915 -0.256558)
(-4.60902e-07 0.000705352 -0.256627)
(8.20643e-06 0.00067892 -0.256906)
(1.0412e-05 0.000676351 -0.25699)
(3.17582e-05 0.000699357 -0.258461)
(2.70641e-05 0.00071132 -0.258377)
(1.93692e-05 0.000736855 -0.258243)
(7.08501e-06 0.000747254 -0.2582)
(-4.73386e-06 0.000728486 -0.258288)
(-8.18917e-06 0.000701657 -0.258412)
(-5.02874e-06 0.000688996 -0.258493)
(-2.76808e-06 0.000699927 -0.258423)
(-4.49791e-07 0.000719557 -0.25827)
(2.25903e-06 0.000710663 -0.25833)
(1.05571e-05 0.000683957 -0.258571)
(1.12373e-05 0.000681571 -0.258645)
(3.43232e-05 0.00070278 -0.259907)
(2.84806e-05 0.00071513 -0.259836)
(2.04115e-05 0.000741218 -0.259726)
(9.30567e-06 0.00075185 -0.259689)
(-1.61787e-06 0.000732545 -0.25976)
(-4.87849e-06 0.00070486 -0.259862)
(-2.03935e-06 0.000691894 -0.259933)
(-5.79867e-07 0.000703042 -0.259879)
(1.59904e-06 0.000722846 -0.259752)
(5.07106e-06 0.000713631 -0.259803)
(1.28981e-05 0.000686739 -0.260009)
(1.21303e-05 0.000684561 -0.260073)
(3.68843e-05 0.000703957 -0.261139)
(2.9904e-05 0.000716686 -0.26108)
(2.14466e-05 0.000743235 -0.260993)
(1.15203e-05 0.000754049 -0.260962)
(1.57847e-06 0.000734241 -0.261017)
(-1.41337e-06 0.000705747 -0.261097)
(1.16321e-06 0.000692514 -0.261158)
(1.8882e-06 0.000703873 -0.26112)
(3.87398e-06 0.000723792 -0.261017)
(7.94982e-06 0.00071427 -0.26106)
(1.52024e-05 0.000687279 -0.261233)
(1.30833e-05 0.000685332 -0.261288)
(3.93877e-05 0.000702921 -0.262171)
(3.13053e-05 0.000716021 -0.262124)
(2.24586e-05 0.000742934 -0.262057)
(1.36966e-05 0.00075387 -0.262033)
(4.81487e-06 0.000733594 -0.262073)
(2.16726e-06 0.000704345 -0.262133)
(4.54235e-06 0.000690885 -0.262185)
(4.61387e-06 0.00070245 -0.262161)
(6.36053e-06 0.000722432 -0.262081)
(1.0867e-05 0.000712619 -0.262116)
(1.74439e-05 0.000685615 -0.262258)
(1.40852e-05 0.000683919 -0.262305)
(4.17751e-05 0.000699754 -0.263021)
(3.26508e-05 0.000713213 -0.262985)
(2.34291e-05 0.000740382 -0.262937)
(1.58024e-05 0.000751374 -0.262918)
(8.04973e-06 0.00073067 -0.262944)
(5.81924e-06 0.000700728 -0.262987)
(8.05145e-06 0.000687086 -0.26303)
(7.55972e-06 0.00069885 -0.263018)
(9.03203e-06 0.000718839 -0.262959)
(1.37917e-05 0.000708757 -0.262987)
(1.96007e-05 0.000681832 -0.263101)
(1.51243e-05 0.000680412 -0.263141)
(4.39949e-05 0.000694611 -0.263708)
(3.39092e-05 0.000708416 -0.263681)
(2.434e-05 0.000735732 -0.263649)
(1.78096e-05 0.000746708 -0.263635)
(1.12423e-05 0.000725615 -0.263649)
(9.49399e-06 0.000695047 -0.263676)
(1.16386e-05 0.000681273 -0.263712)
(1.06782e-05 0.000693231 -0.263711)
(1.18505e-05 0.000713178 -0.26367)
(1.66909e-05 0.000702856 -0.263692)
(2.16559e-05 0.000676092 -0.263782)
(1.619e-05 0.000674964 -0.263816)
(4.60081e-05 0.000687648 -0.264254)
(3.50626e-05 0.000701788 -0.264235)
(2.51847e-05 0.000729141 -0.264217)
(1.96979e-05 0.000740026 -0.264207)
(1.43558e-05 0.000718581 -0.26421)
(1.31483e-05 0.000687458 -0.264225)
(1.52585e-05 0.0006736 -0.264254)
(1.39272e-05 0.000685752 -0.264262)
(1.4781e-05 0.000705615 -0.264236)
(1.95399e-05 0.00069508 -0.264253)
(2.36006e-05 0.000668554 -0.264322)
(1.72744e-05 0.00066773 -0.264352)
(4.77824e-05 0.00067904 -0.264681)
(3.6097e-05 0.000693506 -0.264669)
(2.59603e-05 0.000720788 -0.264662)
(2.14531e-05 0.000731504 -0.264655)
(1.73584e-05 0.00070974 -0.26465)
(1.67433e-05 0.000678136 -0.264653)
(1.8868e-05 0.000664242 -0.264677)
(1.72623e-05 0.000676589 -0.264693)
(1.77905e-05 0.000696336 -0.264679)
(2.23211e-05 0.00068562 -0.264692)
(2.54294e-05 0.000659397 -0.264744)
(1.83655e-05 0.000658882 -0.26477)
(4.92905e-05 0.000668951 -0.265007)
(3.69962e-05 0.000683735 -0.265001)
(2.66588e-05 0.000710846 -0.265003)
(2.30628e-05 0.000721314 -0.264998)
(2.02211e-05 0.000699261 -0.264987)
(2.02379e-05 0.000667245 -0.264981)
(2.24189e-05 0.000653364 -0.265)
(2.06308e-05 0.000665911 -0.265022)
(2.08384e-05 0.000685522 -0.265018)
(2.5014e-05 0.000674658 -0.265028)
(2.71375e-05 0.000648792 -0.265066)
(1.9448e-05 0.000648582 -0.265089)
(5.05143e-05 0.000657532 -0.265251)
(3.77484e-05 0.000672626 -0.265249)
(2.72748e-05 0.000699473 -0.265258)
(2.45199e-05 0.000709616 -0.265255)
(2.29199e-05 0.000687297 -0.265238)
(2.35946e-05 0.00065494 -0.265226)
(2.58658e-05 0.000641118 -0.265241)
(2.398e-05 0.000653874 -0.265267)
(2.38825e-05 0.000673338 -0.265272)
(2.76014e-05 0.000662361 -0.265279)
(2.87248e-05 0.000636891 -0.265306)
(2.05086e-05 0.00063698 -0.265326)
(5.14456e-05 0.000644922 -0.265427)
(3.83468e-05 0.000660322 -0.265429)
(2.78056e-05 0.000686819 -0.265443)
(2.58225e-05 0.000696562 -0.265441)
(2.54363e-05 0.000673994 -0.26542)
(2.67808e-05 0.000641365 -0.265403)
(2.91689e-05 0.000627647 -0.265415)
(2.72615e-05 0.000640622 -0.265445)
(2.6884e-05 0.000659938 -0.265456)
(3.00705e-05 0.000648885 -0.265461)
(3.01939e-05 0.000623841 -0.265479)
(2.15352e-05 0.000624214 -0.265497)
(5.20851e-05 0.00063125 -0.265549)
(3.87892e-05 0.00064695 -0.265554)
(2.82503e-05 0.000673023 -0.265571)
(2.69723e-05 0.000682293 -0.265571)
(2.77568e-05 0.000659491 -0.265547)
(2.97694e-05 0.000626653 -0.265526)
(3.22951e-05 0.00061308 -0.265536)
(3.04331e-05 0.000626286 -0.265568)
(2.98081e-05 0.000645462 -0.265584)
(3.24119e-05 0.00063437 -0.265587)
(3.15489e-05 0.000609774 -0.265598)
(2.25169e-05 0.000610412 -0.265614)
(5.24414e-05 0.000616626 -0.265629)
(3.90776e-05 0.000632622 -0.265636)
(2.86102e-05 0.000658207 -0.265656)
(2.79742e-05 0.000666935 -0.265655)
(2.98724e-05 0.000643908 -0.26563)
(3.25392e-05 0.000610923 -0.265606)
(3.52185e-05 0.000597534 -0.265615)
(3.34611e-05 0.000610984 -0.265648)
(3.26264e-05 0.000630035 -0.265667)
(3.46197e-05 0.000618943 -0.265669)
(3.27942e-05 0.000594808 -0.265675)
(2.34449e-05 0.000595686 -0.26569)
(5.25281e-05 0.000601144 -0.265676)
(3.92177e-05 0.000617432 -0.265685)
(2.88883e-05 0.000642473 -0.265706)
(2.88352e-05 0.000650597 -0.265705)
(3.17772e-05 0.000627352 -0.265679)
(3.50736e-05 0.000594275 -0.265653)
(3.79205e-05 0.000581104 -0.265661)
(3.63201e-05 0.000594812 -0.265695)
(3.53171e-05 0.000613762 -0.265717)
(3.66905e-05 0.000602708 -0.265718)
(3.39343e-05 0.000579039 -0.265719)
(2.43126e-05 0.000580131 -0.265733)
(5.23621e-05 0.00058488 -0.265697)
(3.92173e-05 0.000601456 -0.265708)
(2.90888e-05 0.000625908 -0.265729)
(2.95625e-05 0.000633372 -0.265729)
(3.34677e-05 0.000609909 -0.265702)
(3.73601e-05 0.000576793 -0.265675)
(4.03881e-05 0.00056387 -0.265682)
(3.89927e-05 0.000577852 -0.265717)
(3.78645e-05 0.000596728 -0.26574)
(3.86228e-05 0.000585752 -0.26574)
(3.49729e-05 0.000562551 -0.265739)
(2.51154e-05 0.000563823 -0.265751)
(5.1961e-05 0.000567894 -0.2657)
(3.90851e-05 0.000584753 -0.265711)
(2.92163e-05 0.000608582 -0.265733)
(3.0163e-05 0.000615335 -0.265732)
(3.49411e-05 0.000591655 -0.265705)
(3.93886e-05 0.000558544 -0.265679)
(4.26122e-05 0.000545896 -0.265685)
(4.14676e-05 0.000560166 -0.265719)
(4.0258e-05 0.000579001 -0.265744)
(4.04161e-05 0.000568145 -0.265743)
(3.59126e-05 0.000545406 -0.26574)
(2.58512e-05 0.000546825 -0.26575)
(5.13414e-05 0.000550232 -0.265688)
(3.88299e-05 0.000567369 -0.265701)
(2.92755e-05 0.000590547 -0.265721)
(3.06422e-05 0.000596546 -0.26572)
(3.61943e-05 0.000572646 -0.265694)
(4.115e-05 0.000539581 -0.265668)
(4.4586e-05 0.00052723 -0.265673)
(4.37373e-05 0.000541802 -0.265707)
(4.24904e-05 0.000560634 -0.265733)
(4.20695e-05 0.00054994 -0.265732)
(3.67548e-05 0.000527656 -0.265726)
(2.65192e-05 0.000529183 -0.265735)
(5.05185e-05 0.000531925 -0.265666)
(3.84602e-05 0.000549335 -0.265679)
(2.92702e-05 0.000571844 -0.265699)
(3.10037e-05 0.000577053 -0.265698)
(3.72235e-05 0.000552931 -0.265672)
(4.26355e-05 0.000519945 -0.265646)
(4.6303e-05 0.000507907 -0.265651)
(4.57964e-05 0.000522796 -0.265685)
(4.45564e-05 0.000541667 -0.265711)
(4.35818e-05 0.000531176 -0.265709)
(3.74998e-05 0.000509338 -0.265702)
(2.71198e-05 0.000510932 -0.26571)
(4.95053e-05 0.000512997 -0.265637)
(3.79833e-05 0.000530674 -0.26565)
(2.92038e-05 0.000552503 -0.265669)
(3.12493e-05 0.000556895 -0.265667)
(3.80233e-05 0.000532546 -0.265642)
(4.38354e-05 0.000499666 -0.265618)
(4.7756e-05 0.000487952 -0.265622)
(4.76397e-05 0.000503172 -0.265655)
(4.64508e-05 0.000522126 -0.265681)
(4.49503e-05 0.000511884 -0.265679)
(3.81464e-05 0.000490478 -0.265671)
(2.76538e-05 0.000492099 -0.265678)
(4.83129e-05 0.000493461 -0.265602)
(3.7406e-05 0.000511399 -0.265615)
(2.90789e-05 0.000532547 -0.265633)
(3.13793e-05 0.000536101 -0.265632)
(3.85876e-05 0.00051152 -0.265608)
(4.47391e-05 0.000478766 -0.265584)
(4.89363e-05 0.000467381 -0.265588)
(4.92607e-05 0.000482945 -0.26562)
(4.81679e-05 0.000502032 -0.265646)
(4.61709e-05 0.000492083 -0.265644)
(3.86923e-05 0.000471096 -0.265635)
(2.81217e-05 0.000472698 -0.265641)
(4.69513e-05 0.000473326 -0.265564)
(3.67344e-05 0.000491519 -0.265577)
(2.88974e-05 0.000511992 -0.265594)
(3.13928e-05 0.000514698 -0.265592)
(3.89095e-05 0.000489879 -0.26557)
(4.53353e-05 0.000457262 -0.265547)
(4.98334e-05 0.000446204 -0.265551)
(5.06516e-05 0.000462126 -0.265582)
(4.97008e-05 0.000481397 -0.265607)
(4.72384e-05 0.000471787 -0.265605)
(3.91345e-05 0.000451206 -0.265595)
(2.85238e-05 0.000452741 -0.2656)
(4.54294e-05 0.000452596 -0.265524)
(3.59744e-05 0.000471038 -0.265537)
(2.86617e-05 0.000490851 -0.265553)
(3.12889e-05 0.000492706 -0.265551)
(3.89824e-05 0.000467646 -0.26553)
(4.56127e-05 0.000435168 -0.265508)
(5.04355e-05 0.000424429 -0.265512)
(5.18024e-05 0.00044072 -0.265542)
(5.10412e-05 0.000460231 -0.265566)
(4.81465e-05 0.000451008 -0.265564)
(3.94698e-05 0.000430814 -0.265554)
(2.88599e-05 0.000432236 -0.265558)
(4.37566e-05 0.000431274 -0.265483)
(3.51325e-05 0.000449958 -0.265496)
(2.83744e-05 0.000469134 -0.265511)
(3.10671e-05 0.000470147 -0.265509)
(3.88008e-05 0.00044484 -0.265489)
(4.55608e-05 0.000412495 -0.265468)
(5.07304e-05 0.000402057 -0.265472)
(5.27023e-05 0.000418729 -0.265501)
(5.21799e-05 0.000438538 -0.265525)
(4.88888e-05 0.000429752 -0.265523)