-0.0075 	0 	0 	0
-0.0075 	-5.43975e-36 	-1.70404e-36 	1.85887e-31
-0.00745622 	-4.46841e-07 	-1.39976e-07 	0.0152695
-0.00745622 	-4.46841e-07 	-1.39976e-07 	0.0152695
-0.00741165 	-4.86566e-07 	-6.02835e-07 	0.0297254
-0.00741165 	-4.86566e-07 	-6.02835e-07 	0.0297254
-0.00736628 	-4.65267e-07 	-1.43283e-06 	0.0434621
-0.00736628 	-4.65267e-07 	-1.43283e-06 	0.0434621
-0.0073201 	-5.19913e-07 	-2.66708e-06 	0.0565044
-0.0073201 	-5.19913e-07 	-2.66708e-06 	0.0565044
-0.00727309 	-6.18538e-07 	-4.29575e-06 	0.0688791
-0.00727309 	-6.18538e-07 	-4.29575e-06 	0.0688791
-0.00722524 	-7.20696e-07 	-6.33193e-06 	0.0806106
-0.00722524 	-7.20696e-07 	-6.33193e-06 	0.0806106
-0.00717653 	-8.12836e-07 	-8.78377e-06 	0.0917127
-0.00717653 	-8.12836e-07 	-8.78377e-06 	0.0917127
-0.00712695 	-8.91534e-07 	-1.16686e-05 	0.102178
-0.00712695 	-8.91534e-07 	-1.16686e-05 	0.102178
-0.00707647 	-9.56729e-07 	-1.50198e-05 	0.11198
-0.00707647 	-9.56729e-07 	-1.50198e-05 	0.11198
-0.0070251 	-1.00882e-06 	-1.88919e-05 	0.121095
-0.0070251 	-1.00882e-06 	-1.88919e-05 	0.121095
-0.0069728 	-1.04768e-06 	-2.33557e-05 	0.129515
-0.0069728 	-1.04768e-06 	-2.33557e-05 	0.129515
-0.00691956 	-1.07267e-06 	-2.84849e-05 	0.13726
-0.00691956 	-1.07267e-06 	-2.84849e-05 	0.13726
-0.00686537 	-1.08299e-06 	-3.43453e-05 	0.144367
-0.00686537 	-1.08299e-06 	-3.43453e-05 	0.144367
-0.00681021 	-1.07792e-06 	-4.09989e-05 	0.15089
-0.00681021 	-1.07792e-06 	-4.09989e-05 	0.15089
-0.00675406 	-1.05694e-06 	-4.85134e-05 	0.156889
-0.00675406 	-1.05694e-06 	-4.85134e-05 	0.156889
-0.0066969 	-1.01969e-06 	-5.69509e-05 	0.162418
-0.0066969 	-1.01969e-06 	-5.69509e-05 	0.162418
-0.00663871 	-9.66256e-07 	-6.63548e-05 	0.167524
-0.00663871 	-9.66256e-07 	-6.63548e-05 	0.167524
-0.00657949 	-8.97417e-07 	-7.67317e-05 	0.172249
-0.00657949 	-8.97417e-07 	-7.67317e-05 	0.172249
-0.0065192 	-8.14342e-07 	-8.80487e-05 	0.176636
-0.0065192 	-8.14342e-07 	-8.80487e-05 	0.176636
-0.00645783 	-7.18153e-07 	-0.000100257 	0.180725
-0.00645783 	-7.18153e-07 	-0.000100257 	0.180725
-0.00639535 	-6.09809e-07 	-0.000113305 	0.184556
-0.00639535 	-6.09809e-07 	-0.000113305 	0.184556
-0.00633176 	-4.90224e-07 	-0.000127141 	0.188161
-0.00633176 	-4.90224e-07 	-0.000127141 	0.188161
-0.00626703 	-3.60325e-07 	-0.00014171 	0.191565
-0.00626703 	-3.60325e-07 	-0.00014171 	0.191565
-0.00620114 	-2.21035e-07 	-0.000156956 	0.194793
-0.00620114 	-2.21035e-07 	-0.000156956 	0.194793
-0.00613406 	-7.32106e-08 	-0.00017282 	0.197865
-0.00613406 	-7.32106e-08 	-0.00017282 	0.197865
-0.00606579 	8.23074e-08 	-0.000189243 	0.200799
-0.00606579 	8.23074e-08 	-0.000189243 	0.200799
-0.00599629 	2.44592e-07 	-0.00020616 	0.203612
-0.00599629 	2.44592e-07 	-0.00020616 	0.203612
-0.00592554 	4.12762e-07 	-0.000223502 	0.206318
-0.00592554 	4.12762e-07 	-0.000223502 	0.206318
-0.00585352 	5.86258e-07 	-0.000241198 	0.208933
-0.00585352 	5.86258e-07 	-0.000241198 	0.208933
-0.00578022 	7.64904e-07 	-0.000259161 	0.211469
-0.00578022 	7.64904e-07 	-0.000259161 	0.211469
-0.00570559 	9.48688e-07 	-0.000277294 	0.213936
-0.00570559 	9.48688e-07 	-0.000277294 	0.213936
-0.00562963 	1.13759e-06 	-0.000295497 	0.216343
-0.00562963 	1.13759e-06 	-0.000295497 	0.216343
-0.00555231 	1.33161e-06 	-0.00031367 	0.218696
-0.00555231 	1.33161e-06 	-0.00031367 	0.218696
-0.0054736 	1.5308e-06 	-0.000331712 	0.221001
-0.0054736 	1.5308e-06 	-0.000331712 	0.221001
-0.00539348 	1.73531e-06 	-0.000349519 	0.223262
-0.00539348 	1.73531e-06 	-0.000349519 	0.223262
-0.00531193 	1.94535e-06 	-0.000366989 	0.225484
-0.00531193 	1.94535e-06 	-0.000366989 	0.225484
-0.00522891 	2.16121e-06 	-0.000384017 	0.22767
-0.00522891 	2.16121e-06 	-0.000384017 	0.22767
-0.0051444 	2.38326e-06 	-0.000400505 	0.229821
-0.0051444 	2.38326e-06 	-0.000400505 	0.229821
-0.00505838 	2.61197e-06 	-0.000416356 	0.231939
-0.00505838 	2.61197e-06 	-0.000416356 	0.231939
-0.00497081 	2.84786e-06 	-0.000431477 	0.234024
-0.00497081 	2.84786e-06 	-0.000431477 	0.234024
-0.00488168 	3.09158e-06 	-0.000445784 	0.236076
-0.00488168 	3.09158e-06 	-0.000445784 	0.236076
-0.00479094 	3.3438e-06 	-0.000459195 	0.238095
-0.00479094 	3.3438e-06 	-0.000459195 	0.238095
-0.00469858 	3.60525e-06 	-0.000471634 	0.24008
-0.00469858 	3.60525e-06 	-0.000471634 	0.24008
-0.00460456 	3.87672e-06 	-0.000483027 	0.242028
-0.00460456 	3.87672e-06 	-0.000483027 	0.242028
-0.00450886 	4.15908e-06 	-0.000493322 	0.243939
-0.00450886 	4.15908e-06 	-0.000493322 	0.243939
-0.00441144 	4.45335e-06 	-0.000502493 	0.24581
-0.00441144 	4.45335e-06 	-0.000502493 	0.24581
-0.00431227 	4.76075e-06 	-0.000510549 	0.24764
-0.00431227 	4.76075e-06 	-0.000510549 	0.24764
-0.00421133 	5.08273e-06 	-0.000517528 	0.249427
-0.00421133 	5.08273e-06 	-0.000517528 	0.249427
-0.00410857 	5.42064e-06 	-0.000523496 	0.251168
-0.00410857 	5.42064e-06 	-0.000523496 	0.251168
-0.00400397 	5.77521e-06 	-0.000528535 	0.252861
-0.00400397 	5.77521e-06 	-0.000528535 	0.252861
-0.0038975 	6.14639e-06 	-0.000532739 	0.254505
-0.0038975 	6.14639e-06 	-0.000532739 	0.254505
-0.00378912 	6.53427e-06 	-0.000536195 	0.256102
-0.00378912 	6.53427e-06 	-0.000536195 	0.256102
-0.00367879 	6.93986e-06 	-0.000538979 	0.257656
-0.00367879 	6.93986e-06 	-0.000538979 	0.257656
-0.00356649 	7.36449e-06 	-0.000541153 	0.259166
-0.00356649 	7.36449e-06 	-0.000541153 	0.259166
-0.00345217 	7.80877e-06 	-0.000542777 	0.260629
-0.00345217 	7.80877e-06 	-0.000542777 	0.260629
-0.0033358 	8.27243e-06 	-0.000543912 	0.262044
-0.0033358 	8.27243e-06 	-0.000543912 	0.262044
-0.00321735 	8.75474e-06 	-0.000544626 	0.263408
-0.00321735 	8.75474e-06 	-0.000544626 	0.263408
-0.00309677 	9.25476e-06 	-0.000544991 	0.264718
-0.00309677 	9.25476e-06 	-0.000544991 	0.264718
-0.00297403 	9.77123e-06 	-0.000545085 	0.265973
-0.00297403 	9.77123e-06 	-0.000545085 	0.265973
-0.00284909 	1.03026e-05 	-0.000544986 	0.267168
-0.00284909 	1.03026e-05 	-0.000544986 	0.267168
-0.0027219 	1.0847e-05 	-0.000544776 	0.268302
-0.0027219 	1.0847e-05 	-0.000544776 	0.268302
-0.00259244 	1.14022e-05 	-0.000544534 	0.269372
-0.00259244 	1.14022e-05 	-0.000544534 	0.269372
-0.00246065 	1.19659e-05 	-0.000544334 	0.270375
-0.00246065 	1.19659e-05 	-0.000544334 	0.270375
-0.00232651 	1.25352e-05 	-0.000544241 	0.27131
-0.00232651 	1.25352e-05 	-0.000544241 	0.27131
-0.00218995 	1.31071e-05 	-0.000544311 	0.272174
-0.00218995 	1.31071e-05 	-0.000544311 	0.272174
-0.00205095 	1.36779e-05 	-0.000544583 	0.272965
-0.00205095 	1.36779e-05 	-0.000544583 	0.272965
-0.00190946 	1.42434e-05 	-0.000545085 	0.273681
-0.00190946 	1.42434e-05 	-0.000545085 	0.273681
-0.00176543 	1.47985e-05 	-0.000545825 	0.274322
-0.00176543 	1.47985e-05 	-0.000545825 	0.274322
-0.00161881 	1.53376e-05 	-0.000546793 	0.274887
-0.00161881 	1.53376e-05 	-0.000546793 	0.274887
-0.00146957 	1.58544e-05 	-0.000547959 	0.275377
-0.00146957 	1.58544e-05 	-0.000547959 	0.275377
-0.00131765 	1.63422e-05 	-0.000549277 	0.27579
-0.00131765 	1.63422e-05 	-0.000549277 	0.27579
-0.001163 	1.67941e-05 	-0.000550689 	0.276128
-0.001163 	1.67941e-05 	-0.000550689 	0.276128
-0.00100559 	1.72021e-05 	-0.00055213 	0.276391
-0.00100559 	1.72021e-05 	-0.00055213 	0.276391
-0.000845345 	1.7557e-05 	-0.000553565 	0.276577
-0.000845345 	1.7557e-05 	-0.000553565 	0.276577
-0.000682232 	1.78473e-05 	-0.000554906 	0.276685
-0.000682232 	1.78473e-05 	-0.000554906 	0.276685
-0.000516194 	1.80602e-05 	-0.000556054 	0.276715
-0.000516194 	1.80602e-05 	-0.000556054 	0.276715
-0.000347178 	1.81812e-05 	-0.000556993 	0.276664
-0.000347178 	1.81812e-05 	-0.000556993 	0.276664
-0.000175132 	1.81981e-05 	-0.000557574 	0.27653
-0.000175132 	1.81981e-05 	-0.000557574 	0.27653
0 	1.81033e-05 	-0.000557784 	0.276311
0 	1.81033e-05 	-0.000557784 	0.276311
0 	1.81033e-05 	-0.000557784 	0.276311
0 	1.81033e-05 	-0.000557784 	0.276311
0.000175132 	1.78944e-05 	-0.000557666 	0.276009
0.000175132 	1.86872e-05 	-0.000458947 	0.272375
0.000347178 	1.75804e-05 	-0.000557109 	0.27563
0.000347178 	1.99169e-05 	-0.000460771 	0.272072
0.000516194 	1.71737e-05 	-0.000556192 	0.27518
0.000516194 	2.09778e-05 	-0.000462249 	0.271689
0.000682232 	1.6687e-05 	-0.000554909 	0.274661
0.000682232 	2.18823e-05 	-0.000463333 	0.271232
0.000845345 	1.6136e-05 	-0.000553198 	0.274078
0.000845345 	2.26463e-05 	-0.000463995 	0.270705
0.00100559 	1.55345e-05 	-0.000551115 	0.273434
0.00100559 	2.32845e-05 	-0.000464251 	0.270112
0.001163 	1.4894e-05 	-0.000548676 	0.27273
0.001163 	2.38107e-05 	-0.000464106 	0.269455
0.00131765 	1.42247e-05 	-0.000545899 	0.271969
0.00131765 	2.42375e-05 	-0.000463571 	0.268738
0.00146957 	1.35353e-05 	-0.000542801 	0.271153
0.00146957 	2.45762e-05 	-0.000462654 	0.267963
0.00161881 	1.2833e-05 	-0.000539399 	0.270285
0.00161881 	2.48367e-05 	-0.000461368 	0.267132
0.00176543 	1.21241e-05 	-0.000535707 	0.269365
0.00176543 	2.50276e-05 	-0.000459722 	0.266248
0.00190946 	1.14136e-05 	-0.000531736 	0.268396
0.00190946 	2.51561e-05 	-0.000457724 	0.265312
0.00205095 	1.0706e-05 	-0.000527494 	0.267378
0.00205095 	2.52289e-05 	-0.000455384 	0.264326
0.00218995 	1.00046e-05 	-0.000522988 	0.266313
0.00218995 	2.52513e-05 	-0.000452707 	0.263291
0.00232651 	9.31237e-06 	-0.000518223 	0.265201
0.00232651 	2.52282e-05 	-0.000449697 	0.262207
0.00246065 	8.6316e-06 	-0.000513203 	0.264044
0.00246065 	2.51635e-05 	-0.000446358 	0.261077
0.00259244 	7.96413e-06 	-0.000507929 	0.262841
0.00259244 	2.50606e-05 	-0.00044269 	0.2599
0.0027219 	7.31142e-06 	-0.0005024 	0.261594
0.0027219 	2.49221e-05 	-0.000438691 	0.258677
0.00284909 	6.67458e-06 	-0.000496614 	0.260302
0.00284909 	2.47504e-05 	-0.000434357 	0.257409
0.00297403 	6.05443e-06 	-0.000490567 	0.258966
0.00297403 	2.45472e-05 	-0.000429679 	0.256097
0.00309677 	5.45156e-06 	-0.000484254 	0.257586
0.00309677 	2.4314e-05 	-0.000424649 	0.25474
0.00321735 	4.86639e-06 	-0.000477669 	0.256161
0.00321735 	2.40521e-05 	-0.000419254 	0.253337
0.0033358 	4.29922e-06 	-0.000470807 	0.254691
0.0033358 	2.37623e-05 	-0.000413487 	0.251889
0.00345217 	2.34456e-05 	-0.000407345 	0.250394
0.00345217 	3.75024e-06 	-0.000463662 	0.253175
0.00356649 	3.21954e-06 	-0.000456228 	0.251613
0.00356649 	2.31029e-05 	-0.000400826 	0.248853
0.00367879 	2.70723e-06 	-0.00044849 	0.250003
0.00367879 	2.27366e-05 	-0.00039392 	0.247265
0.00378912 	2.21339e-06 	-0.000440425 	0.248345
0.00378912 	2.23501e-05 	-0.000386606 	0.24563
0.0038975 	1.73805e-06 	-0.000432008 	0.246636
0.0038975 	2.19463e-05 	-0.000378854 	0.243947
0.00400397 	1.28103e-06 	-0.000423195 	0.244873
0.00400397 	2.15263e-05 	-0.000370605 	0.242209
0.00410857 	2.10899e-05 	-0.000361752 	0.240403
0.00410857 	8.41582e-07 	-0.000413918 	0.243051
0.00421133 	4.18404e-07 	-0.000404101 	0.241162
0.00421133 	2.06354e-05 	-0.000352198 	0.238517
0.00431227 	9.97561e-09 	-0.000393664 	0.2392
0.00431227 	2.01603e-05 	-0.000341874 	0.236546
0.00441144 	-3.84759e-07 	-0.000382544 	0.237158
0.00441144 	1.96624e-05 	-0.000330746 	0.234487
0.00450886 	-7.66204e-07 	-0.000370715 	0.235031
0.00450886 	1.91398e-05 	-0.000318826 	0.232335
0.00460456 	-1.13462e-06 	-0.00035818 	0.232813
0.00460456 	1.85907e-05 	-0.000306155 	0.230088
0.00469858 	-1.49045e-06 	-0.000344957 	0.230499
0.00469858 	1.80135e-05 	-0.000292784 	0.22774
0.00479094 	-1.83422e-06 	-0.000331071 	0.228086
0.00479094 	1.74067e-05 	-0.000278769 	0.225288
0.00488168 	-2.16649e-06 	-0.000316555 	0.225567
0.00488168 	1.67689e-05 	-0.000264168 	0.222728
0.00497081 	-2.48772e-06 	-0.000301448 	0.22294
0.00497081 	1.60987e-05 	-0.000249049 	0.220056
0.00505838 	-2.79833e-06 	-0.000285805 	0.220199
0.00505838 	1.53948e-05 	-0.000233488 	0.217268
0.0051444 	-3.09864e-06 	-0.000269695 	0.217342
0.0051444 	1.46561e-05 	-0.000217578 	0.214361
0.00522891 	-3.3889e-06 	-0.000253203 	0.214364
0.00522891 	1.38817e-05 	-0.000201427 	0.211331
0.00531193 	-3.66922e-06 	-0.000236432 	0.211263
0.00531193 	1.30711e-05 	-0.000185158 	0.208177
0.00539348 	-3.93962e-06 	-0.000219496 	0.208035
0.00539348 	1.22245e-05 	-0.000168908 	0.204897
0.0054736 	-4.19999e-06 	-0.000202523 	0.204678
0.0054736 	1.1342e-05 	-0.000152823 	0.201489
0.00555231 	-4.45015e-06 	-0.000185646 	0.201186
0.00555231 	1.04245e-05 	-0.00013705 	0.19795
0.00562963 	-4.68973e-06 	-0.000169 	0.197558
0.00562963 	9.47319e-06 	-0.000121733 	0.194279
0.00570559 	-4.91829e-06 	-0.000152717 	0.193787
0.00570559 	8.48938e-06 	-0.000107006 	0.190472
0.00578022 	-5.13521e-06 	-0.00013692 	0.18987
0.00578022 	7.47489e-06 	-9.29881e-05 	0.186526
0.00585352 	-5.33972e-06 	-0.000121726 	0.185801
0.00585352 	6.43187e-06 	-7.97831e-05 	0.182435
0.00592554 	-5.53092e-06 	-0.000107236 	0.181573
0.00592554 	5.36284e-06 	-6.74739e-05 	0.178196
0.00599629 	-5.70776e-06 	-9.35352e-05 	0.177179
0.00599629 	4.27073e-06 	-5.61227e-05 	0.173799
0.00606579 	-5.86916e-06 	-8.06969e-05 	0.172609
0.00606579 	3.1589e-06 	-4.57719e-05 	0.169238
0.00613406 	-6.01397e-06 	-6.87814e-05 	0.167852
0.00613406 	2.03098e-06 	-3.64451e-05 	0.164499
0.00620114 	8.90978e-07 	-2.81484e-05 	0.159567
0.00620114 	-6.14083e-06 	-5.7835e-05 	0.162891
0.00626703 	-6.2479e-06 	-4.78934e-05 	0.157709
0.00626703 	-2.55979e-07 	-2.08782e-05 	0.154424
0.00633176 	-1.40292e-06 	-1.46199e-05 	0.149055
0.00633176 	-6.33299e-06 	-3.89834e-05 	0.152291
0.00639535 	-2.5412e-06 	-9.34218e-06 	0.143447
0.00639535 	-6.39375e-06 	-3.11137e-05 	0.146622
0.00645783 	-6.4277e-06 	-2.42725e-05 	0.140685
0.00645783 	-3.66058e-06 	-4.99671e-06 	0.137581
0.0065192 	-6.43214e-06 	-1.84324e-05 	0.134464
0.0065192 	-4.74893e-06 	-1.52284e-06 	0.131442
0.00657949 	-6.40414e-06 	-1.35531e-05 	0.127941
0.00657949 	-5.79198e-06 	1.14924e-06 	0.125012
0.00663871 	-6.34092e-06 	-9.58055e-06 	0.121102
0.00663871 	-6.77329e-06 	3.09631e-06 	0.118275
0.0066969 	-6.24009e-06 	-6.43462e-06 	0.113926
0.0066969 	-7.67472e-06 	4.40557e-06 	0.111209
0.00675406 	-8.47682e-06 	5.16922e-06 	0.103779
0.00675406 	-6.09875e-06 	-4.02058e-06 	0.106382
0.00681021 	-9.15672e-06 	5.47948e-06 	0.0959602
0.00681021 	-5.91278e-06 	-2.23658e-06 	0.0984387
0.00686537 	-9.68601e-06 	5.42724e-06 	0.087773
0.00686537 	-5.67815e-06 	-9.8559e-07 	0.0901077
0.00691956 	-1.00339e-05 	5.10093e-06 	0.0792856
0.00691956 	-5.39242e-06 	-1.8183e-07 	0.081455
0.0069728 	-1.01729e-05 	4.58677e-06 	0.0706159
0.0069728 	-5.05546e-06 	2.67891e-07 	0.0725982
0.0070251 	-4.66965e-06 	4.59203e-07 	0.0637043
0.0070251 	-1.00842e-05 	3.96489e-06 	0.0619273
0.00707647 	-4.23991e-06 	4.83023e-07 	0.0549702
0.00707647 	-9.76221e-06 	3.30461e-06 	0.0534092
0.00712695 	-3.7737e-06 	4.16275e-07 	0.0465883
0.00712695 	-9.21734e-06 	2.65954e-06 	0.0452446
0.00717653 	-3.28045e-06 	3.15325e-07 	0.0387103
0.00717653 	-8.47314e-06 	2.06541e-06 	0.0375762
0.00722524 	-2.77113e-06 	2.14147e-07 	0.0314254
0.00722524 	-7.56094e-06 	1.541e-06 	0.030488
0.00727309 	-6.5144e-06 	1.09319e-06 	0.0240087
0.00727309 	-2.25886e-06 	1.2859e-07 	0.0247641
0.0073201 	-5.36765e-06 	7.22852e-07 	0.01813
0.0073201 	-1.76184e-06 	6.45919e-08 	0.0187176
0.00736628 	-4.15843e-06 	4.22254e-07 	0.0128238
0.00736628 	-1.31105e-06 	1.67815e-08 	0.0132566
0.00741165 	-9.17986e-07 	-3.96261e-09 	0.0083442
0.00741165 	-2.89384e-06 	2.05654e-07 	0.00805472
0.00745622 	-5.14047e-07 	-9.02123e-09 	0.0039431
0.00745622 	-1.51797e-06 	6.4939e-08 	0.00378656
0.0075 	0 	0 	0
0.0075 	0 	0 	0
