/*--------------------------------*- C++ -*----------------------------------*\
| =========                 |                                                 |
| \\      /  F ield         | OpenFOAM: The Open Source CFD Toolbox           |
|  \\    /   O peration     | Version:  v1906                                 |
|   \\  /    A nd           | Web:      www.OpenFOAM.com                      |
|    \\/     M anipulation  |                                                 |
\*---------------------------------------------------------------------------*/
FoamFile
{
    version     2.0;
    format      ascii;
    class       volScalarField;
    location    "99.2";
    object      pPrime2Mean;
}
// * * * * * * * * * * * * * * * * * * * * * * * * * * * * * * * * * * * * * //

dimensions      [2 -2 -4 0 0 0 0];


internalField   nonuniform List<scalar> 
2528
(
-1.14441e-05
39627.1
3097.01
39180.3
0.007164
39622.4
3097.57
39175.4
0.0408592
39614.9
3098.51
39167.7
0.11581
39603.3
3100.03
39155.7
0.236439
39586.6
3102.25
39138.4
0.416996
39564.7
3105.19
39115.7
0.668385
39537.1
3108.92
39087.1
1.00813
39503.3
3113.51
39051.9
1.46076
39462.5
3119.07
39009.5
2.0577
39413.7
3125.75
38958.8
2.84301
39355.7
3133.71
38898.4
3.86989
39287
3143.13
38826.9
5.20546
39206.4
3154.18
38742.7
6.93056
39112.4
3167.04
38644.5
9.14188
39003.7
3181.9
38531
11.9569
38879.1
3198.96
38401
15.5172
38737.4
3218.44
38253.1
19.9897
38577.3
3240.56
38086.3
25.5679
38397.7
3265.56
37899.5
32.473
38197.7
3293.7
37691.8
40.9525
37976.5
3325.31
37462.5
51.288
37733.6
3360.7
37211.1
63.7987
37468.7
3400.16
36937.2
78.8316
37181.7
3443.97
36640.9
96.7476
36872.7
3492.32
36322.3
117.924
36542
3545.48
35982
142.768
36190.1
3603.69
35620.6
171.711
35818
3667.24
35238.5
205.189
35426.5
3736.34
34836.4
243.641
35016.8
3811.2
34414.8
287.507
34589.7
3892.11
33975.1
337.209
34146.2
3979.36
33518.9
393.153
33687.5
4073.22
33048.6
455.655
33216
4173.78
32567.2
524.787
32734.3
4280.8
32077.4
600.46
32242.8
4393.56
31579
682.73
31739.4
4511.01
31069.1
771.74
31222.2
4632.36
30545.2
867.426
30692
4758.25
30007.5
969.726
30154
4890.74
29460.1
1079.02
29613.6
5031.54
28907.9
1196.08
29073.2
5180.96
28354.4
1321.52
28532.4
5338.16
27800.6
1454.97
27990.6
5502.71
27245.2
1595.44
27448.7
5675.5
26685.7
1742.98
26907.8
5857
26120.2
1898.88
26366.5
6046.12
25549.1
2064.52
25822.4
6241.12
24975.8
2239.86
25275.5
6440.68
24405
2423.18
24729.5
6643.89
23840.3
2612.95
24188.8
6850.37
23283
2809.53
23655.2
7060.94
22732.1
3014.76
23128.3
7277.78
22185.1
3230.06
22608.2
7502.63
21641.1
3454.89
22095.9
7735.37
21102
3687.35
21591.5
7974.58
20570.6
3925.77
21094.5
8219.28
20048.4
4169.64
20605.1
8468.79
19535.1
4419.42
20125
8722.11
19030.8
4675.75
19656.8
8978.6
18537.4
4938.7
19201.5
9238.27
18055.6
5206.61
18757.5
9500.77
17584.2
5475.35
18321.9
9764.37
17121.3
5740.69
17893.5
10026.9
16666.8
6002.44
17474.9
10288.6
16222.7
6265.44
17070.1
10552.8
15790.8
6534.96
16679.6
10822.3
15370.3
6811.85
16299.7
11096
14957.6
7093
15926.5
11370.2
14550.7
7375.91
15560.5
11643
14151
7660.65
15205.5
11914.6
13761.6
7947.83
14863.9
12185.4
13383.9
8236.48
14535.1
12455.8
13017.4
8524.37
14215.7
12725.2
12660.8
8809.26
13903.6
12992.9
12314.1
9090.27
13599.8
13258.8
11980.8
9367.89
13308.2
13522.2
11666.3
9642.38
13033.5
13782.3
11377.9
9915.44
12777.9
14039.8
11117.5
123547
142639
126683
141809
123547
142638
126683
141808
123548
142637
126684
141807
123549
142635
126686
141805
123551
142633
126689
141803
123554
142629
126692
141799
123557
142625
126696
141795
123561
142620
126701
141789
123566
142613
126707
141783
123572
142606
126714
141775
123579
142596
126723
141765
123587
142586
126733
141754
123597
142572
126745
141741
123608
142557
126759
141725
123621
142539
126774
141708
123635
142519
126792
141688
123651
142496
126812
141666
123669
142470
126833
141641
123689
142441
126858
141613
123711
142409
126884
141583
123735
142373
126914
141550
123762
142335
126946
141514
123791
142293
126980
141475
123822
142247
127018
141433
123856
142197
127058
141387
123893
142144
127102
141338
123932
142088
127148
141286
123975
142027
127198
141230
124020
141964
127251
141172
124069
141896
127307
141110
124120
141825
127366
141044
124175
141749
127429
140975
124231
141669
127496
140902
124291
141586
127565
140827
124353
141501
127636
140750
124417
141414
127711
140673
124484
141322
127790
140594
124555
141227
127875
140511
124630
141129
127964
140425
124709
141027
128057
140335
124791
140921
128152
140242
124876
140811
128251
140145
124964
140699
128354
140044
125056
140587
128461
139939
125152
140474
128570
139832
125251
140359
128681
139724
125353
140238
128796
139616
125461
140109
128918
139509
125577
139974
129047
139400
125701
139837
129182
139288
125831
139701
129322
139174
125966
139567
129468
139059
126107
139434
129620
138941
126252
139300
129777
138822
126400
139164
129938
138701
126548
139027
130101
138581
126696
138889
130266
138460
126847
138749
130432
138340
127003
138607
130601
138220
127167
138465
130773
138099
127337
138325
130946
137979
127512
138189
131120
137860
127691
138056
131295
137741
127872
137925
131474
137624
128055
137795
131656
137508
128239
137669
131844
137392
128422
137545
132035
137274
128606
137425
132230
137155
128794
137308
132430
137035
128990
137193
132635
136914
129193
137079
132848
136793
129405
136966
133065
136675
129625
136854
133288
136559
129852
136743
133515
136448
130087
136634
133745
136341
130326
136524
133975
136234
130561
136408
134197
136121
130783
136278
134403
135996
130981
136126
134583
135853
68095.9
98707.5
68338.7
102934
68090.2
98698.9
68333.1
102925
68084.5
98688.3
68327.5
102914
68084.1
98679.8
68327.3
102905
68087
98670.9
68330.5
102895
68090.7
98658.9
68334.7
102882
68095.5
98643.6
68340.1
102865
68101.3
98624.6
68346.8
102844
68108.2
98601.7
68354.8
102819
68116.3
98574.4
68364.3
102789
68125.9
98542.2
68375.4
102753
68136.9
98504.7
68388.5
102712
68149.6
98461.4
68403.5
102664
68164.1
98411.9
68420.6
102609
68180.5
98355.7
68440.1
102547
68198.9
98292.3
68462
102477
68219.5
98221.4
68486.6
102398
68242.6
98142.4
68514.1
102310
68268.1
98055
68544.6
102213
68296.5
97958.8
68578.3
102105
68327.6
97853.3
68615.5
101987
68361.8
97738.1
68656.4
101857
68399.2
97612.3
68701.2
101714
68440.6
97475.6
68750
101559
68486.5
97327.2
68803
101390
68536.7
97168.1
68860.6
101208
68590.1
97000.3
68922.6
101016
68645.2
96825.1
68988.3
100816
68702.5
96640.8
69057.5
100605
68764.3
96444
69131.3
100380
68833
96232.5
69210.9
100137
68909
96007.6
69297.1
99875.1
68990.4
95772
69388.8
99597.7
69075.2
95526
69485
99307.5
69163.5
95268.1
69585.6
99004.3
69257
94995.8
69692
98687
69357
94708.6
69805.8
98354.8
69462.6
94409.8
69926.3
98009.9
69571.3
94106.7
70049.8
97657.2
69683
93804
70174.6
97299.1
69800.9
93497.8
70304
96931.5
69929.5
93179.3
70444
96548.1
70071.4
92841.9
70598.8
96146.5
70225.5
92487
70766.4
95732.5
70389.2
92120.8
70941.9
95313
70560.9
91747.6
71122.5
94888.7
70740.1
91369.1
71307.6
94456.3
70926.7
90986.2
71497.2
94014.2
71121.1
90599.3
71692.6
93564.9
71323.5
90208.2
71895.8
93111.9
71533.8
89814
72109
92658
71751.1
89422.6
72331.6
92207.8
71971.9
89042.9
72559
91767.9
72190.4
88678.6
72783.7
91342.1
72403.5
88323.2
73002.1
90925.1
72615.8
87965.2
73218.6
90504.7
72836.8
87597.9
73443.6
90072.1
73073.6
87225.1
73685.3
89630.8
73324.7
86854.5
73941.9
89190.9
73582.8
86488.1
74205.6
88758.6
73843.1
86124.9
74472.7
88334.2
74104.7
85766.5
74743.8
87917.7
74367.2
85418.2
75019.6
87511
74629.8
85085
75300.4
87116.2
74890.6
84767.5
75585.1
86732.7
75148.3
84460.7
75871.1
86355.8
75405.8
84158.5
76157.3
85979.6
75668.6
83858.1
76446
85603.4
75940.6
83561.2
76740.5
85231.2
76221.8
83270.4
77042.4
84866.7
76508.6
82986.4
77350.3
84509.8
76800
82709
77663.1
84157.7
77097.6
82438.8
77980.9
83808.3
77401.5
82176
78302.9
83463.2
77709
81919.6
78627.3
83126.2
78016.3
81667.5
78950.1
82799.9
78319.3
81418.8
79264.3
82484.1
78613.3
81174.9
79560.9
82177.6
78893.7
80933.2
79829.4
81873.6
14581.2
15197.6
14233.4
13373.4
14571.2
15187.5
14223.5
13363.6
14559.6
15175.9
14212
13352.4
14553.1
15169.4
14205.7
13346.6
14548.4
15164.8
14201.2
13342.9
14542
15158.7
14195.1
13337.9
14533.9
15151
14187.3
13331.5
14523.9
15141.5
14177.7
13323.6
14511.9
15130.1
14166.2
13314
14497.7
15116.7
14152.5
13302.7
14481.1
15101.1
14136.5
13289.4
14461.8
15082.9
14117.9
13273.9
14439.5
15061.8
14096.3
13255.9
14413.9
15037.7
14071.6
13235.2
14384.9
15010.2
14043.5
13211.6
14352.2
14979.2
14011.9
13184.9
14315.5
14944.2
13976.6
13154.8
14274.6
14904.9
13937.1
13121.2
14229.1
14861.1
13893.3
13083.7
14178.8
14812.5
13844.9
13042.3
14123.5
14758.7
13791.6
12996.6
14062.7
14699.5
13733.3
12946.7
13996.5
14634.7
13669.7
12892.3
13924.7
14564.2
13600.9
12833.5
13847.3
14487.9
13526.9
12770.3
13764.4
14405.8
13447.8
12702.9
13676.1
14317.9
13363.7
12631.2
13582.5
14224.3
13274.9
12555.6
13483.9
14125.2
13181.5
12476.4
13380.5
14020.8
13083.8
12393.7
13272.7
13911.2
12982.2
12307.8
13160.6
13796.8
12876.8
12219.3
13044.9
13677.9
12768.2
12128.4
12925.7
13554.8
12656.6
12035.4
12803.7
13427.9
12542.7
11940.9
12679.2
13297.9
12426.8
11845.3
12552.9
13165.1
12309.6
11749.4
12425.2
13030.1
12191.6
11653.7
12296.7
12893.5
12073
11558.3
12167.9
12755.8
11954.5
11463.5
12039.3
12617.5
11836.4
11369.6
11911.6
12479.1
11719.3
11277
11785.5
12341.4
11603.9
11186.6
11661.6
12205.1
11490.6
11098.4
11540.1
12070.9
11379.9
11012.7
11421.2
11939.4
11272
10929.4
11305.1
11811.1
11166.9
10849.2
11192.2
11686.5
11065
10772.7
11083
11566.1
10966.6
10700.2
10978
11450.5
10872.1
10631.8
10877.5
11339.8
10782.2
10567.2
10781.7
11234.4
10697.1
10506.7
10690.6
11134.9
10617.2
10450.4
10604.3
11041.9
10542.4
10398.3
10523
10955.7
10472.7
10349.8
10447.2
10875.8
10408
10304.3
10377
10801.3
10348.2
10261.8
10312.2
10731.6
10293.3
10222.5
10252.7
10666.8
10243.3
10186.6
10198.4
10607.3
10198.4
10154.1
10149.5
10553.6
10158.1
10124.4
10106.1
10505.5
10122.3
10097.3
10067.5
10462.3
10090.7
10073.5
10032.9
10423.1
10063.4
10053.4
10001.5
10387.3
10040.2
10037.2
9973.35
10354.6
10020.6
10024.2
9948.63
10325.2
10004
10013.6
9927.71
10299.4
9990.15
10004.8
9910.67
10277.3
9978.81
9997.45
9897.31
10258.5
9969.88
9991.83
9887.07
10242.6
9963.19
9988
9879.24
10229.4
9958.64
9985.98
9873.17
10218.6
9956.29
9985.77
9868.64
10210.2
9956.06
9987.21
9865.77
10203.7
9957.68
9989.96
9864.67
10199
9960.87
9993.93
9865.37
10195.9
9965.46
9999.07
9867.73
10194.5
9971.27
10005.1
9871.57
10194.5
9978.01
10011.7
10193.2
12535.6
14301.9
10874.9
10485
12294.8
14581
10633.8
10797.8
12047.2
14883.5
10382.3
11130.9
11789.3
15208.8
10118
11481.3
11520.9
15553.5
9843.96
11847.6
11244.2
15914.7
9564.25
12229
10962.7
16292.1
9281.53
12624.7
10678.9
16687.4
8996.22
13034.1
10393.8
17101.3
8708.13
13457.7
10107.4
17532.8
8417.97
13897
9820.46
17981.3
8126.55
14353.2
9533.49
18446.8
7834.28
14825.9
9246.09
18929.3
7541.53
15314.4
8957.2
19429.4
7248.65
15819.6
8666.5
19948.3
6956.08
16342.2
8375.01
20485.7
6665.14
16881.5
8085.1
21040.2
6378.06
17434.4
7799.09
21609.4
6096.83
17997.9
7518.05
22191
5822.53
18570.4
7241.98
22784.2
5555.84
19150.8
6970.89
23389.1
5297.78
19738.5
6705.79
24005
5049.47
20334.1
6448.3
24630.6
4811.69
20938.4
6199.54
25265.3
4584.69
21550.8
5959.93
25908.7
4368.44
22168.1
5729.68
26559.4
4162.98
22785.7
5509.15
27215.1
3968.74
23400.5
5298.62
27872.4
3786.26
24011.5
5098.3
28527.3
3615.49
24617.6
4908.38
29176
3455.86
25217.4
4728.97
29816.3
3306.89
25809.7
4559.94
30447.7
3168.48
26393.7
4401.03
31069.4
3040.64
26969.2
4252.04
31678.7
2923.03
27534.2
4112.81
32273.1
2815.08
28085
3983.24
32852.1
2716.46
28618.5
3863.51
33416.3
2626.95
29134.2
3754.21
33966.1
2546.36
29633.7
3655.76
34499.7
2474.25
30117.2
3567.72
35015.5
2409.53
30583.1
3488.57
35513.3
2350.89
31028.7
3416.21
35992.4
2297.44
31452.1
3348.95
36451.1
2248.93
31853.7
3286.18
36887.5
2205.44
32235.5
3227.93
37301.3
2166.76
32600.1
3174.25
37694.5
2132.31
32948.7
3125.03
38069.8
2101.54
33281.1
3080.05
38428.9
2074.11
33596.1
3039.3
38771.6
2049.79
33892.5
3002.83
39096.1
2028.37
34170.1
2970.43
39400.2
2009.63
34429.1
2941.72
39683.2
1993.27
34669.5
2916.22
39945.4
1979.02
34891.5
2893.54
40187.5
1966.59
35095.7
2873.42
40410.3
1955.75
35283
2855.63
40614.7
1946.29
35454.2
2839.95
40801.4
1938.04
35610.3
2826.13
40971.4
1930.84
35752.1
2813.96
41125.8
1924.58
35880.4
2803.24
41265.5
1919.13
35996.2
2793.8
41391.5
1914.38
36100.3
2785.51
41504.6
1910.25
36193.3
2778.24
41605.6
1906.66
36276
2771.91
41695.2
1903.54
36348.9
2766.43
41774
1900.85
36412.9
2761.69
41843
1898.53
36469.1
2757.63
41903.2
1896.51
36518.4
2754.12
41955.8
1894.75
36562.1
2751.08
42002
1893.19
36601.1
2748.4
42043
1891.8
36636.2
2746.02
42079.8
1890.55
36667.8
2743.88
42112.8
1889.44
36696
2741.97
42142.4
1888.44
36721
2740.28
42168.5
1887.58
36742.3
2738.83
42191
1886.85
36759.9
2737.63
42209.5
1886.25
36772.5
2736.75
42222.8
1885.82
36781.8
2736.11
42232.6
1885.51
36788.1
2735.67
42239.2
1885.29
131155
135942
134737
135685
131314
135728
134874
135486
131469
135485
135003
135256
131626
135222
135135
134999
131793
134947
135279
134723
131973
134663
135438
134431
132166
134373
135612
134128
132373
134082
135801
133817
132592
133789
136005
133501
132825
133495
136224
133183
133078
133197
136459
132862
133350
132897
136712
132537
133640
132594
136979
132202
133947
132287
137259
131857
134267
131974
137551
131499
134597
131656
137856
131132
134935
131335
138178
130758
135280
131009
138516
130384
135639
130677
138872
130011
136015
130339
139245
129637
136412
129999
139632
129261
136828
129659
140033
128885
137258
129321
140446
128513
137699
128986
140868
128150
138147
128652
141298
127798
138601
128320
141737
127453
139064
127989
142186
127115
139536
127662
142644
126782
140017
127341
143112
126460
140504
127031
143586
126152
140994
126734
144065
125859
141485
126450
144548
125579
141976
126176
145033
125309
142467
125911
145518
125047
142957
125655
146002
124795
143443
125409
146482
124554
143925
125176
146957
124326
144400
124955
147427
124109
144866
124747
147889
123903
145322
124552
148340
123710
145765
124369
148780
123530
146197
124198
149208
123363
146615
124038
149623
123206
147019
123888
150024
123058
147408
123748
150411
122921
147780
123618
150781
122793
148135
123499
151135
122675
148473
123388
151471
122567
148791
123288
151790
122467
149092
123195
152089
122376
149373
123111
152370
122293
149635
123034
152632
122218
149878
122965
152875
122150
150102
122902
153098
122088
150307
122846
153304
122033
150494
122795
153490
121983
150663
122750
153660
121939
150816
122709
153812
121900
150953
122673
153950
121864
151076
122641
154074
121833
151186
122613
154185
121806
151285
122587
154283
121781
151372
122565
154371
121760
151450
122545
154449
121741
151517
122528
154517
121724
151577
122512
154576
121710
151628
122499
154627
121698
151673
122487
154672
121687
151712
122477
154712
121678
151747
122469
154746
121670
151779
122461
154777
121663
151807
122454
154805
121656
151832
122448
154830
121651
151854
122442
154852
121646
151873
122437
154870
121641
151888
122433
154886
121638
151900
122430
154897
121635
151908
122428
154905
121633
151913
122426
154910
121631
79163.2
80685.6
80070.7
81559.7
79433.2
80422.8
80302.4
81221.3
79714.3
80140.9
80545
80849.2
80012.1
79842.4
80811.8
80449.4
80326.9
79531.1
81106.1
80034.5
80656.9
79209.4
81424.5
79614.3
81001.5
78879.4
81764.3
79194.6
81362.4
78542.1
82124.8
78777.2
81742.6
78198.8
82504.8
78362.7
82144.4
77850.8
82903
77949.6
82567.7
77500.8
83318.4
77534.7
83011.3
77151.7
83749.7
77115.4
83474.7
76805
84194.8
76691.8
83956.7
76460.4
84652.9
76266.2
84454.1
76115.8
85128.7
75841.6
84964.8
75770.6
85632.5
75420.9
85491
75427.6
86173.9
75005.3
86036.8
75088
86754.7
74596.7
86604.4
74749.7
87367.9
74196.2
87192.7
74412.9
88001.1
73804.4
87798.3
74084.4
88640.8
73422.9
88418.1
73771.3
89278
73052.1
89049.2
73472.3
89910.5
72691.2
89689.7
73179.1
90542
72338.3
90340
72886.7
91178.3
71991.9
91001.1
72598.2
91823.1
71654.4
91670.7
72318.4
92481.7
71329.6
92343.3
72050
93161.2
71020.8
93013.3
71794.7
93867.2
70730.6
93680.8
71553.4
94599.4
70459.6
94354.2
71324.8
95349.4
70205.3
95043.2
71106
96104.8
69964.1
95750.8
70893.4
96858.8
69734.2
96469.4
70686.3
97611.2
69515.7
97188.4
70485.9
98364.2
69308.8
97904.2
70292.6
99117.9
69112.8
98616.5
70109
99868.5
68928.1
99324.2
69939.9
100612
68758.1
100027
69785.8
101350
68606.8
100726
69644.3
102083
68474.2
101418
69512.2
102811
68355.7
102102
69386.7
103530
68246.1
102773
69268.6
104236
68143
103428
69159.5
104925
68047.2
104064
69060
105595
67960.8
104681
68971
106242
67885.1
105274
68892.4
106866
67820.6
105841
68823.2
107463
67766.4
106380
68761.6
108032
67720.5
106889
68706.3
108570
67680.6
107370
68656.9
109079
67645.3
107823
68613.3
109558
67614.3
108247
68575.3
110007
67587.7
108641
68542.4
110425
67565.4
109004
68514.2
110810
67547.1
109336
68490.2
111163
67532
109639
68470.1
111485
67519.9
109914
68453.3
111776
67510.1
110161
68439.3
112039
67502.3
110384
68427.9
112275
67496.1
110582
68418.4
112485
67491.2
110759
68410.6
112672
67487.2
110914
68404.1
112837
67484
111051
68398.8
112982
67481.4
111171
68394.3
113109
67479.3
111275
68390.6
113218
67477.6
111366
68387.5
113314
67476.3
111444
68384.9
113396
67475.4
111513
68382.8
113468
67474.7
111574
68381.1
113530
67474.1
111627
68379.6
113586
67473.7
111675
68378.3
113635
67473.4
111718
68377.1
113680
67473.1
111756
68376.1
113719
67472.8
111789
68375.1
113752
67472.5
111816
68374.3
113781
67472.2
111833
68371.3
113799
67469.6
111841
68364
113807
67462.6
111845
68357.5
113812
67456.3
9876.81
10195.9
9985.43
10018.8
9883.56
10198.7
9993.5
10027.1
9892.01
10203.1
10002.6
10037.1
9902.08
10209.4
10013.2
10049
9913.67
10217.4
10025.6
10062.9
9926.87
10226.9
10040.1
10078.8
9941.87
10238
10056.3
10096.5
9958.66
10250.7
10073.7
10115.9
9976.98
10265.5
10092.2
10137.3
9996.61
10282.5
10111.7
10160.9
10017.3
10301.6
10132.6
10187.1
10039.2
10323.1
10155
10215.8
10062.5
10347.2
10179.1
10247
10088.2
10374.1
10205.1
10280.9
10116.5
10403.5
10233.1
10317.3
10147.8
10435.1
10263.2
10356.3
10181.7
10468.5
10295.6
10397.7
10218
10503.2
10330.4
10441.6
10256.4
10539.4
10367.5
10487.7
10297.1
10577.6
10406.6
10536.4
10340.3
10618.6
10447.4
10587.5
10385.9
10663.4
10489.8
10641.2
10433.6
10712.1
10533.8
10697
10483.2
10764.8
10579.2
10754.3
10534.3
10821.4
10625.7
10812.6
10586.6
10881.1
10672.7
10871.5
10639.7
10943
10720.2
10931.3
10693.8
11006.6
10768.7
10992.7
10748.9
11071.5
10819.1
11056.1
10805.4
11137.5
10871.5
11121.1
10862.7
11204.1
10925.1
11186.8
10920.1
11270.6
10978.9
11253
10977.5
11337.1
11032.4
11319.8
11035
11403.6
11086.1
11387.2
11093
11469.9
11140.3
11454.2
11151.8
11535.1
11195.1
11520
11211.2
11598.7
11250.2
11584.5
11271.1
11661.9
11305.9
11648.7
11331
11725.7
11362
11713.1
11390.7
11790.9
11418.5
11777.5
11450
11856.6
11474.7
11840.8
11508.2
11921.7
11529.6
11902.3
11564.9
11985.5
11582.5
11962
11619.7
12047.7
11633
12019.9
11672.7
12108.1
11681.3
12076.1
11724.3
12166.3
11728.1
12130.5
11774.5
12222.5
11773.8
12183.1
11823.1
12276.6
11818.7
12233.6
11869.9
12328.8
11862.4
12282.1
11914.6
12379
11904.5
12328.3
11957.2
12426.8
11944.6
12372.3
11997.7
12472.1
11982.5
12413.9
12035.8
12514.7
12018.1
12453
12071.5
12554.6
12051.4
12489.5
12104.7
12591.7
12082.4
12523.5
12135.6
12626.1
12111.1
12554.9
12164
12657.9
12137.6
12583.9
12190.2
12687.1
12161.9
12610.6
12214
12713.9
12184.1
12635
12235.6
12738.2
12204.2
12657.2
12255.1
12760.2
12222.4
12677.2
12272.6
12779.9
12238.7
12695.2
12288.1
12797.4
12253.1
12711.2
12301.7
12812.9
12265.9
12725.3
12313.6
12826.4
12277
12737.6
12323.8
12838
12286.5
12748.4
12332.6
12848
12294.8
12757.8
12340.1
12856.6
12301.9
12766
12346.6
12864
12308
12773.3
12352.3
12870.5
12313.5
12779.9
12357.4
12876.3
12318.3
12785.8
12362
12881.4
12322.7
12791.1
12366.1
12886.1
12326.6
12795.9
12369.8
12890.3
12330.1
12800.2
12373
12894
12333.2
12803.9
12375.7
12897.1
12335.8
12807
12374.4
12896.1
12334.4
12805.9
12366.6
12888.5
12326.4
12798.2
12359.1
12881.2
12318.9
12790.9
)
;

boundaryField
{
    leftWall
    {
        type            calculated;
        value           nonuniform List<scalar> 
16
(
-1.33514e-05
123547
68095.9
14581.2
39627.1
142639
98707.5
15197.6
3097.01
126683
68338.7
14233.4
39180.3
141809
102934
13373.4
)
;
    }
    rightWall
    {
        type            calculated;
        value           nonuniform List<scalar> 
16
(
36788.1
151913
111845
12359.1
2735.67
122426
68357.5
12881.2
42239.2
154910
113812
12318.9
1885.29
121631
67456.3
12790.9
)
;
    }
    leftSides_periodic0
    {
        type            cyclic;
    }
    leftSides_periodic1
    {
        type            cyclic;
    }
    rightSides_periodic0
    {
        type            cyclic;
    }
    rightSides_periodic1
    {
        type            cyclic;
    }
    leftInOut_periodic0
    {
        type            cyclic;
    }
    leftInOut_periodic1
    {
        type            cyclic;
    }
    rightInOut_periodic0
    {
        type            cyclic;
    }
    rightInOut_periodic1
    {
        type            cyclic;
    }
}


// ************************************************************************* //
