/*--------------------------------*- C++ -*----------------------------------*\
| =========                 |                                                 |
| \\      /  F ield         | OpenFOAM: The Open Source CFD Toolbox           |
|  \\    /   O peration     | Version:  v1912                                 |
|   \\  /    A nd           | Website:  www.openfoam.com                      |
|    \\/     M anipulation  |                                                 |
\*---------------------------------------------------------------------------*/
FoamFile
{
    version     2.0;
    format      ascii;
    class       volScalarField;
    location    "99.2";
    object      turbulenceProperties:alphat;
}
// * * * * * * * * * * * * * * * * * * * * * * * * * * * * * * * * * * * * * //

dimensions      [1 -1 -1 0 0 0 0];


internalField   nonuniform List<scalar> 
2528
(
1.35053e-08
1.82949e-08
9.43407e-09
2.2331e-08
3.25911e-08
2.40721e-08
2.08422e-08
3.21286e-08
4.18257e-07
1.54487e-07
2.55808e-07
2.37337e-07
2.89873e-06
1.01896e-06
1.79675e-06
1.55832e-06
1.17469e-05
4.27989e-06
7.47636e-06
6.37782e-06
3.37265e-05
1.3013e-05
2.21699e-05
1.87865e-05
7.64572e-05
3.14558e-05
5.19616e-05
4.38876e-05
0.000146083
6.40888e-05
0.000102441
8.64302e-05
0.00024555
0.000114461
0.000177047
0.000149521
0.00037433
0.000184366
0.00027632
0.000234028
0.000529462
0.000273714
0.000398304
0.000338804
0.000689935
0.000380995
0.00053627
0.000461425
0.000861053
0.000503974
0.000671663
0.000589961
0.00104822
0.000626057
0.000819104
0.000723687
0.00125056
0.000759678
0.000976219
0.000866574
0.001467
0.000903994
0.00113997
0.00101831
0.00169643
0.00105814
0.00130914
0.0011789
0.00193759
0.00122217
0.00148353
0.00134828
0.00218928
0.00139654
0.00166337
0.00152608
0.00245058
0.00158164
0.00184972
0.00171174
0.00272066
0.00177719
0.00204454
0.00190459
0.00299871
0.00198201
0.00224893
0.00210388
0.00328385
0.00219393
0.0024586
0.00230886
0.00357512
0.00241035
0.00265941
0.00251902
0.00387156
0.00262929
0.00282995
0.00273414
0.00417183
0.00284951
0.00295989
0.00295409
0.00447398
0.00306948
0.00306719
0.0031785
0.00477566
0.00328691
0.00319994
0.00340731
0.0050743
0.00349994
0.00341669
0.00363865
0.00535744
0.00370671
0.00374198
0.00386853
0.00562283
0.00391268
0.00412094
0.00409192
0.00588469
0.00411743
0.00446332
0.00430539
0.00614272
0.0043205
0.00473736
0.00450413
0.00639675
0.00452157
0.00497215
0.00469597
0.00664692
0.0047204
0.00520725
0.00488324
0.00689358
0.0049168
0.00544324
0.00506538
0.00713692
0.00511064
0.0056411
0.00524189
0.0073764
0.0053018
0.00583436
0.00541239
0.00761099
0.00549013
0.00602198
0.00557663
0.00783948
0.00567538
0.00620272
0.00573459
0.00806081
0.00585702
0.00637539
0.00588648
0.00827419
0.00603441
0.00653886
0.00603272
0.00847662
0.00620739
0.00669243
0.00617384
0.00866498
0.00637633
0.00683614
0.0063103
0.00883831
0.00654077
0.00697007
0.00644152
0.00899586
0.00669923
0.00709435
0.00656869
0.00913653
0.00684923
0.0072095
0.00669195
0.00925794
0.00698711
0.00731631
0.00681163
0.00935991
0.00710547
0.00741583
0.00692771
0.00944424
0.00711498
0.00750846
0.00703982
0.00922461
0.00496871
0.00759423
0.00714866
0.00521952
0.00336633
0.007669
0.00725644
0.00388533
0.00381634
0.00773046
0.00736521
0.00482214
0.00604777
0.0077784
0.00747762
0.0080488
0.00806648
0.00781461
0.00759602
0.0102587
0.00823975
0.0078412
0.00772268
0.0104344
0.00840527
0.00786172
0.0078596
0.0106014
0.00856971
0.00787765
0.00800822
0.0107602
0.00873436
0.00720516
0.00816932
0.010913
0.00890001
0.00342073
0.00834343
0.0110634
0.00906586
0.00316151
0.00852549
0.0112166
0.0092304
0.00497409
0.00871321
0.0113803
0.00939223
0.00795199
0.00890547
0.0115639
0.00955007
0.00797274
0.00910056
0.0117758
0.00970281
0.00800995
0.0092962
0.012018
0.00984942
0.0080597
0.00949092
0.0122877
0.00998892
0.00812154
0.00968344
0.0125821
0.0101204
0.00819641
0.0098709
0.0128986
0.010243
0.0082865
0.0100493
0.0132338
0.0103563
0.00839533
0.0102215
0.0135834
0.0104602
0.00851046
0.0103174
0.0139424
0.0105547
0.0086193
0.00536727
0.0143044
0.0106405
0.00872168
0.00350706
0.0146567
0.0107182
0.00881607
0.00536303
0.0149876
0.010775
0.00889977
0.00994223
0.0152766
0.0108085
0.00896953
0.0115576
0.0155244
0.0108336
0.00902231
0.0117414
0.0157227
0.01085
0.00905575
0.0119036
0.0158777
0.0108566
0.00907391
0.0120498
9.36363e-10
3.87048e-09
3.69733e-09
3.80485e-09
3.61992e-09
9.71859e-09
1.36248e-08
8.16728e-09
5.67526e-08
1.3328e-07
2.11222e-07
1.02418e-07
4.18936e-07
9.70054e-07
1.52876e-06
7.38282e-07
1.83846e-06
4.19386e-06
6.50989e-06
3.17769e-06
5.82524e-06
1.30039e-05
1.97672e-05
9.82367e-06
1.47385e-05
3.19902e-05
4.73622e-05
2.41405e-05
3.15222e-05
6.6215e-05
9.51102e-05
5.00373e-05
5.9083e-05
0.000119846
0.000166723
9.0934e-05
9.95433e-05
0.000195015
0.000262867
0.000148939
0.000153708
0.000291487
0.000381519
0.000224489
0.00022097
0.000407249
0.000519099
0.000316525
0.000299634
0.000539265
0.000653089
0.000422998
0.000386073
0.000684196
0.000795826
0.000541403
0.00046616
0.000828441
0.000945765
0.000669169
0.000552016
0.000972249
0.0011023
0.000793649
0.000641834
0.00112158
0.00126536
0.000919372
0.000734849
0.00127612
0.0014346
0.00104971
0.000830633
0.00143492
0.00160955
0.00118396
0.000927938
0.0015972
0.00178961
0.00132121
0.00102279
0.00176235
0.00197446
0.00146074
0.0011093
0.00192994
0.00216421
0.00160192
0.00118631
0.0020998
0.00235916
0.00174425
0.00126817
0.00227182
0.00255861
0.0018874
0.00138179
0.00244506
0.00276092
0.00203123
0.00153539
0.00261881
0.00296426
0.00217576
0.00170497
0.0027935
0.00316568
0.00232108
0.00186088
0.00296895
0.00336409
0.00246621
0.00197731
0.00314452
0.00356393
0.00261015
0.00207555
0.00331919
0.00377625
0.00275439
0.0021692
0.00349164
0.00401307
0.00289922
0.00225653
0.00366048
0.00427453
0.00304421
0.00233736
0.00382431
0.00453595
0.00318863
0.00241298
0.00398171
0.00475
0.00333185
0.00218726
0.00413077
0.00487869
0.00347331
0.0018443
0.00426847
0.00494185
0.00361196
0.00185531
0.00439059
0.00503254
0.00374557
0.00218152
0.00449321
0.00527337
0.00387056
0.00265857
0.00457553
0.00573914
0.00398207
0.00281314
0.00464379
0.00635668
0.00407269
0.00285806
0.00471422
0.00683076
0.00413221
0.00289734
0.00480525
0.00702884
0.00415062
0.00293085
0.00492262
0.00721332
0.0041278
0.00295929
0.00506205
0.00738143
0.00408975
0.0029829
0.00522517
0.00753157
0.00408253
0.00219852
0.0054224
0.00766695
0.00413385
0.00193005
0.00566536
0.00750988
0.00424561
0.00225488
0.00596695
0.00609857
0.00441301
0.00298286
0.00635203
0.0053868
0.00460979
0.00311478
0.006793
0.00573019
0.00476069
0.00315627
0.00718451
0.00700551
0.00474112
0.00321354
0.00744612
0.00840135
0.00470676
0.00328847
0.00759873
0.00846251
0.0046586
0.00338007
0.00774201
0.0085006
0.00459754
0.00348398
0.00787464
0.00851761
0.00452446
0.00359473
0.0079981
0.00851335
0.00444021
0.00370842
0.00720332
0.00848715
0.00434544
0.00382087
0.00620742
0.0075044
0.00424082
0.00392714
0.00582395
0.00501468
0.00412712
0.00402263
0.00629525
0.00410718
0.00400548
0.00410471
0.00743913
0.00459781
0.00387277
0.00417274
0.00853393
0.00648035
0.00372817
0.0029749
0.00880175
0.00822794
0.00357183
0.0022023
0.00885201
0.00821411
0.00340468
0.00220936
0.00888131
0.00819989
0.00322852
0.00283239
0.00889322
0.00818378
0.00304605
0.00389968
0.00888872
0.00816534
0.00286343
0.00414124
0.0088662
0.00814457
0.00269186
0.00405273
0.00882492
0.00812196
0.00254592
0.00394365
0.00876474
0.00809872
0.00243918
0.00381411
0.00868599
0.00807727
0.0023819
0.00366601
0.00858948
0.00806158
0.00238022
0.00350265
0.00847568
0.00805606
0.0024318
0.00332848
0.00834448
0.00805016
0.00256741
0.00314945
0.00821046
0.00803581
0.0027597
0.00297133
0.00807642
0.00801762
0.00300692
0.00280085
0.00792764
0.00799988
0.00329778
0.00265582
0.00776559
0.00798901
0.00362319
0.00255091
0.00759425
0.00798947
0.00397272
9.29567e-09
6.37043e-09
1.08893e-08
8.83519e-09
1.6823e-08
1.19758e-08
2.09867e-08
1.5346e-08
1.83889e-07
1.37942e-07
2.4189e-07
1.6232e-07
1.29051e-06
9.94291e-07
1.70363e-06
1.1387e-06
5.40381e-06
4.28619e-06
7.1081e-06
4.78948e-06
1.6119e-05
1.31894e-05
2.10084e-05
1.43715e-05
3.79525e-05
3.20032e-05
4.87586e-05
3.40445e-05
7.50731e-05
6.4995e-05
9.47107e-05
6.77252e-05
0.000130088
0.000115038
0.000160817
0.000117946
0.00020351
0.000182843
0.000246354
0.000185294
0.000293991
0.000267081
0.000348584
0.000268543
0.000399009
0.000364968
0.000463893
0.00036521
0.000510731
0.000469702
0.000577016
0.000470228
0.000621561
0.000570506
0.000693207
0.000570225
0.000740822
0.000677758
0.000815313
0.00067628
0.000867978
0.000790679
0.000942238
0.000787633
0.00100269
0.000908699
0.00107304
0.000903546
0.00114484
0.00103142
0.00120687
0.00102342
0.00129436
0.0011585
0.00134296
0.0011467
0.00145127
0.00128977
0.00148067
0.00127295
0.00161572
0.00142519
0.00161955
0.00140186
0.00178784
0.00156487
0.0017593
0.00153322
0.0019679
0.00170913
0.00189933
0.00166685
0.00215662
0.00185872
0.00203791
0.00180244
0.002356
0.00201536
0.00217115
0.00193946
0.00257013
0.00218298
0.00229397
0.00207761
0.00280443
0.00236708
0.002405
0.00221825
0.00306537
0.00257968
0.00251374
0.00236691
0.00335134
0.0028227
0.0026461
0.00253291
0.00364958
0.00307848
0.00282784
0.00273234
0.00392741
0.00328655
0.00305651
0.00296874
0.00417112
0.00346851
0.00327871
0.0032211
0.0044163
0.00364844
0.00342525
0.00343838
0.00466177
0.00382536
0.00350077
0.00360359
0.0048534
0.00399822
0.00357122
0.00376744
0.00465819
0.00416563
0.00365743
0.00392941
0.00430972
0.00432642
0.00374005
0.0040887
0.00428594
0.00443021
0.00381257
0.00424413
0.00496391
0.00384542
0.00387902
0.00439452
0.00621875
0.00314663
0.00395022
0.00453879
0.00648645
0.0029393
0.0040452
0.00467616
0.00674247
0.00365823
0.0041378
0.0041001
0.00699373
0.00523146
0.00415994
0.00305484
0.00721759
0.00539424
0.00417199
0.00254222
0.00745565
0.00554449
0.00392019
0.0030916
0.00770397
0.0056888
0.00285276
0.00535564
0.00793214
0.00582674
0.00220343
0.00552824
0.00813609
0.00595887
0.00241272
0.00569737
0.00832926
0.006086
0.00398285
0.00587672
0.0085272
0.00620826
0.00392619
0.0060615
0.00873713
0.00632545
0.00387624
0.00624962
0.00896313
0.00643773
0.00382893
0.00644156
0.00916511
0.00654915
0.00377816
0.00663773
0.00934691
0.00666035
0.00365067
0.00683897
0.00952495
0.0067719
0.00206856
0.00704539
0.00970078
0.00688434
0.00135723
0.00725607
0.00987438
0.00699828
0.00146208
0.00746977
0.0100472
0.00711434
0.00326474
0.00768504
0.00964029
0.00723306
0.00319405
0.00790016
0.00725522
0.00735466
0.00314425
0.00811317
0.00622193
0.00747897
0.00311866
0.00833064
0.00838891
0.00760574
0.00312033
0.00855235
0.0111526
0.00773449
0.00315218
0.00877662
0.0114355
0.00786453
0.00321276
0.00900115
0.0117253
0.00799256
0.00329714
0.00922352
0.0120285
0.00811077
0.00340392
0.00944117
0.0123399
0.00821516
0.00353039
0.00965151
0.0126544
0.00830539
0.00367269
0.00985211
0.012966
0.00837986
0.00382737
0.0100408
0.0132669
0.00843982
0.00398964
0.0102167
0.0135482
0.00848645
0.00415514
0.0103771
0.0138021
0.0085231
0.00431985
0.0105221
0.0140208
0.0044338
0.00448009
0.0106522
0.0141998
0.00292492
0.00463224
0.0107683
0.0143349
0.00396323
0.00477309
0.0108713
0.014426
0.00853682
0.00489938
0.0109647
0.0144763
0.0085936
0.00500793
0.0110494
0.014496
0.00863432
0.00509628
0.0111215
0.014506
0.00866656
0.00516012
0.0111894
8.92031e-09
1.02773e-08
1.57185e-08
7.14913e-09
1.00989e-08
1.90436e-08
2.0404e-08
1.16556e-08
6.35949e-08
1.84071e-07
1.71e-07
9.74197e-08
4.36466e-07
1.24483e-06
1.20142e-06
6.5371e-07
1.88995e-06
5.11883e-06
5.12184e-06
2.71782e-06
5.89038e-06
1.51514e-05
1.5454e-05
8.18336e-06
1.45705e-05
3.56472e-05
3.65799e-05
1.96762e-05
3.03794e-05
7.07559e-05
7.25394e-05
4.00591e-05
5.55579e-05
0.000123313
0.000125986
7.17711e-05
9.16831e-05
0.000194263
0.000197748
0.000116299
0.00013945
0.000282837
0.000287024
0.000173976
0.000198708
0.000387201
0.000391951
0.000244112
0.000268648
0.00050482
0.000510251
0.000325324
0.000348075
0.000622827
0.000639977
0.000415901
0.000435934
0.000749862
0.000774711
0.000504847
0.000531565
0.000886399
0.000916917
0.000598572
0.000632697
0.00103282
0.00106957
0.00069794
0.000743833
0.00118913
0.00123306
0.00080295
0.000859715
0.00135558
0.00140783
0.000913348
0.000981708
0.00153273
0.00159309
0.00102895
0.00110964
0.0017212
0.00177856
0.00114955
0.00124298
0.00191892
0.00196462
0.00127494
0.00138143
0.0021209
0.00215477
0.00140497
0.00152465
0.0023189
0.00234858
0.00153949
0.0016722
0.00250647
0.00254562
0.00167843
0.00182359
0.002696
0.00274554
0.00182173
0.00197826
0.00288693
0.00294814
0.00196956
0.00213557
0.00307875
0.00315327
0.00212169
0.00229484
0.00327095
0.00336059
0.00227526
0.00245532
0.00346302
0.00356978
0.00242629
0.00261622
0.00365448
0.00378046
0.00257296
0.00277687
0.00384485
0.00399223
0.00270548
0.00293656
0.00403369
0.00420466
0.00283533
0.00309453
0.00422059
0.00441734
0.00296209
0.00325008
0.00440516
0.00462984
0.00308541
0.0034025
0.00458705
0.00484177
0.00320507
0.00355115
0.00476596
0.0050527
0.00332092
0.0036954
0.0049416
0.00526223
0.00343289
0.00383454
0.0051138
0.00546999
0.003541
0.00396764
0.00528243
0.00567558
0.00364527
0.00409355
0.00544736
0.00587868
0.00374579
0.00421089
0.00560816
0.00607898
0.00384275
0.00432018
0.00576387
0.0062762
0.00393654
0.00442171
0.00591314
0.00647017
0.004028
0.004515
0.00605447
0.00666081
0.00411769
0.00459915
0.00618622
0.00684814
0.00420536
0.00467311
0.00630752
0.00703231
0.00429034
0.00473584
0.00641819
0.00721312
0.00437237
0.00478648
0.00652655
0.00738988
0.00445143
0.00482442
0.00663303
0.00756141
0.00452739
0.0047983
0.00673879
0.00772576
0.00459986
0.00470466
0.00684517
0.00788633
0.00466814
0.00455997
0.00695166
0.0080452
0.0047312
0.00426826
0.00705586
0.0082021
0.00478773
0.00392365
0.00715553
0.00835616
0.00483628
0.00381227
0.007249
0.00850557
0.00487537
0.00411641
0.00733554
0.00864665
0.00490364
0.00457652
0.00740598
0.00877398
0.00492006
0.00455111
0.00745837
0.00888506
0.00492394
0.00445671
0.00749007
0.00899072
0.00491433
0.00435861
0.00749903
0.0090924
0.00489404
0.00426271
0.00748338
0.00918773
0.00486399
0.00417279
0.0074414
0.00927451
0.00482366
0.00409076
0.00737142
0.00935225
0.00477311
0.00401767
0.00727239
0.00942098
0.00471266
0.00395388
0.00714345
0.00948113
0.0046427
0.00389899
0.00698459
0.00953258
0.00456384
0.00385067
0.00679709
0.00957532
0.00447636
0.00380492
0.00658344
0.00960901
0.00438053
0.00375762
0.00634713
0.0096329
0.00427638
0.00370414
0.00609295
0.00964566
0.00416345
0.00363934
0.00582728
0.00964597
0.00404044
0.00355771
0.0055588
0.00963297
0.00390525
0.00345348
0.00529928
0.00960623
0.00375582
0.00332997
0.00506214
0.00956568
0.00358824
0.00318992
0.00485431
0.00951177
0.00339874
0.00303014
0.00467501
0.00944556
0.0031874
0.00284845
0.00452139
0.00936887
0.0029601
0.00264384
0.0043894
0.00928458
0.00272756
0.0159837
0.0108538
0.00907086
0.0121801
0.0160365
0.0108434
0.00904681
0.0122798
0.0160636
0.0108199
0.00900657
0.012346
0.016063
0.0107845
0.00896618
0.0123798
0.016032
0.0107343
0.00892743
0.0123747
0.0159689
0.0106647
0.00889151
0.0123481
0.0158777
0.0105766
0.00885903
0.0123003
0.0157677
0.0104726
0.00883006
0.0122345
0.0156426
0.0103559
0.00880419
0.0121515
0.0155029
0.0102297
0.00878063
0.0120522
0.0153486
0.010096
0.00875839
0.0119379
0.0151789
0.00995449
0.0087364
0.0118097
0.0149962
0.00980064
0.00871351
0.011669
0.0148014
0.00963365
0.00868791
0.0115174
0.0145938
0.00946401
0.00865694
0.0113449
0.0143701
0.00930457
0.00861801
0.0111528
0.0141277
0.00915497
0.00856885
0.0109431
0.0138672
0.00901646
0.00850747
0.0107179
0.0135891
0.00889113
0.00843202
0.0104799
0.0132942
0.00878411
0.00834096
0.0102325
0.0129836
0.00654665
0.00823316
0.00998025
0.0126583
0.00344534
0.00810791
0.00972842
0.0107924
0.00248707
0.00796488
0.00948454
0.00814625
0.00359056
0.00780749
0.00731766
0.00711937
0.0081781
0.0076359
0.00390239
0.00813208
0.00816279
0.00745013
0.00276134
0.0104831
0.00810437
0.00725356
0.00376237
0.0103617
0.00800728
0.00704943
0.00824647
0.0100412
0.00787837
0.00683959
0.00815925
0.009709
0.00772588
0.00662613
0.00805055
0.00935863
0.0075552
0.00641061
0.00791111
0.00899574
0.00737015
0.00619463
0.00773774
0.00862517
0.00717498
0.00598
0.00753782
0.00825055
0.00697165
0.00576821
0.00731258
0.00787467
0.00676182
0.00556046
0.00706856
0.00749987
0.00654693
0.00535768
0.00680918
0.00712805
0.00632731
0.00516065
0.00653994
0.00676003
0.00610345
0.00496991
0.00626523
0.00637806
0.00587699
0.00477074
0.00598768
0.0059559
0.00564953
0.00386671
0.00570846
0.0054443
0.00542252
0.00320597
0.00542751
0.00487381
0.00519606
0.00315255
0.00514605
0.00436911
0.00496882
0.00360471
0.00486531
0.00401733
0.00474076
0.00390444
0.00458686
0.00378543
0.00451218
0.00375861
0.00428465
0.00359296
0.00426796
0.0036149
0.00398215
0.00338616
0.00400645
0.00345219
0.00366768
0.0031539
0.00374295
0.00313694
0.00330495
0.00291179
0.00346586
0.00289178
0.00289232
0.0026757
0.00316623
0.00271225
0.00250808
0.00244948
0.00286072
0.00257224
0.00224131
0.00222695
0.00259252
0.00244433
0.00209131
0.00199625
0.00238622
0.00231313
0.00198366
0.00178572
0.00222025
0.00217456
0.00186098
0.00159518
0.00205824
0.002028
0.00171691
0.00141959
0.00189045
0.00187767
0.00156344
0.00125569
0.00172241
0.00172982
0.00141194
0.0011021
0.00155775
0.00158507
0.00126697
0.000958136
0.00139815
0.00144289
0.00112868
0.000823203
0.001244
0.00130291
0.000996257
0.000696417
0.0010953
0.00116515
0.00086929
0.000574951
0.000952045
0.00102998
0.000747689
0.000450149
0.000814381
0.000897991
0.000631475
0.00033983
0.000682411
0.000770029
0.000520822
0.000245815
0.000556937
0.000646991
0.00040669
0.000169274
0.000430158
0.000529696
0.000296111
0.000110285
0.000307871
0.000418712
0.000202957
6.75994e-05
0.000205554
0.000298947
0.000129632
3.87758e-05
0.000126282
0.00019605
7.64617e-05
2.06943e-05
7.04648e-05
0.000116027
4.1342e-05
1.01898e-05
3.53198e-05
6.0724e-05
2.03521e-05
4.56848e-06
1.57349e-05
2.76093e-05
9.03521e-06
1.82532e-06
6.13506e-06
1.07291e-05
3.55435e-06
6.27511e-07
2.03412e-06
3.48111e-06
1.19965e-06
1.74987e-07
5.4311e-07
8.99727e-07
3.27988e-07
3.56679e-08
1.05512e-07
1.68208e-07
6.5537e-08
4.40834e-09
1.24595e-08
1.88065e-08
8.04694e-09
3.42864e-10
1.03411e-09
1.15444e-09
7.72604e-10
1.78899e-10
6.15033e-10
4.73266e-10
5.1233e-10
0.00250143
0.00743141
0.00801201
0.00433632
0.00251642
0.00728111
0.00805889
0.00470033
0.00259557
0.00713743
0.00812433
0.00504998
0.00273406
0.00700263
0.00821301
0.00538074
0.00292343
0.00687848
0.00832223
0.00569092
0.00315335
0.00676801
0.00844603
0.00597983
0.00341283
0.00667558
0.00858017
0.00624679
0.00369109
0.00660387
0.00872067
0.00648794
0.00397818
0.00655366
0.00886345
0.00670256
0.00426523
0.0065241
0.00882611
0.00688999
0.00454466
0.00651278
0.0070938
0.00704923
0.00481014
0.00651688
0.0064976
0.00718047
0.00505545
0.00653488
0.00766003
0.00728439
0.00527614
0.0065619
0.009691
0.00736058
0.0054704
0.00659075
0.00984751
0.00741832
0.00564008
0.00661755
0.00998582
0.00745922
0.00578555
0.00664031
0.0101153
0.00748473
0.00590472
0.00665842
0.0102385
0.00749592
0.00599835
0.00667228
0.0103429
0.00749388
0.00606856
0.00668298
0.0104199
0.00748058
0.00611702
0.0066923
0.0104681
0.00745821
0.00614564
0.00670284
0.0104867
0.00742615
0.00615642
0.00671513
0.0104758
0.00738409
0.00615135
0.00672748
0.0104358
0.00733254
0.00613208
0.00673844
0.0103675
0.00727315
0.0060995
0.00674772
0.0102721
0.00720834
0.0060537
0.00675175
0.0101508
0.00713974
0.00599481
0.00674731
0.0100055
0.00706655
0.00592372
0.00673211
0.00983777
0.00698665
0.00584176
0.00670489
0.00964948
0.00689826
0.00574991
0.00666544
0.00944238
0.0068001
0.00564847
0.00661384
0.00921823
0.0066913
0.0055372
0.00654983
0.0089717
0.00656869
0.00541548
0.00647292
0.0086975
0.00642958
0.00528393
0.00638236
0.00841358
0.00627491
0.00514437
0.00627715
0.00812211
0.00610608
0.00499884
0.00615713
0.00782578
0.00592429
0.00484526
0.00602073
0.00752552
0.00573059
0.00468038
0.00586913
0.00722105
0.00552613
0.00450597
0.0057036
0.00691067
0.00531209
0.00432363
0.00552536
0.00658384
0.00508966
0.00413487
0.0053353
0.00623135
0.00486005
0.00394109
0.00513483
0.00586485
0.00462451
0.00374357
0.00492536
0.00550558
0.00438435
0.00354344
0.00470828
0.00516434
0.0041409
0.00334175
0.00448491
0.0048411
0.00389547
0.00313948
0.00425649
0.00453219
0.00364944
0.00293757
0.00401271
0.00423449
0.00340415
0.0027369
0.00374704
0.00394607
0.00316092
0.00253831
0.00347211
0.00366585
0.00292105
0.00234256
0.00319805
0.00339354
0.00268572
0.00215036
0.00293508
0.00312937
0.00243984
0.00196237
0.002684
0.00287353
0.0021939
0.00177918
0.00244012
0.0026254
0.00195144
0.00160132
0.00220613
0.00238251
0.00171835
0.00142932
0.00198319
0.00214975
0.00150387
0.00126348
0.00177153
0.00192792
0.00131126
0.0010994
0.00157117
0.00171697
0.0011372
0.000943551
0.00138211
0.00151684
0.000978451
0.000801355
0.00120439
0.00132759
0.000833503
0.000672379
0.00103811
0.00114935
0.000701407
0.000550947
0.000883254
0.000982372
0.000581078
0.000437177
0.000739752
0.000826922
0.000470667
0.000335487
0.000607074
0.000682755
0.00036106
0.000247335
0.000482802
0.000547182
0.000266357
0.000173858
0.000358354
0.000409518
0.000187537
0.000115574
0.000251953
0.000290526
0.000124995
7.20552e-05
0.000165857
0.000193074
7.82069e-05
4.17978e-05
0.000100977
0.000118672
4.55637e-05
2.23862e-05
5.61802e-05
6.66176e-05
2.45226e-05
1.09759e-05
2.82476e-05
3.37495e-05
1.20845e-05
4.86673e-06
1.26833e-05
1.52379e-05
5.38595e-06
1.91344e-06
4.99899e-06
6.025e-06
2.12873e-06
6.45409e-07
1.67878e-06
2.025e-06
7.21979e-07
1.76585e-07
4.55269e-07
5.48343e-07
1.98682e-07
3.56331e-08
9.0482e-08
1.08521e-07
4.03055e-08
4.73815e-09
1.12842e-08
1.33676e-08
5.32739e-09
8.27007e-10
1.27111e-09
1.4127e-09
8.5001e-10
6.91266e-10
8.68215e-10
9.72982e-10
6.82734e-10
0.0145096
0.00870294
0.00520325
0.00559674
0.0144845
0.00873563
0.00522795
0.00437351
0.0144328
0.00875055
0.00523417
0.00652712
0.0143522
0.00874142
0.00522316
0.0116486
0.0142433
0.00871133
0.00519926
0.0117238
0.014108
0.00866865
0.00516805
0.0117134
0.0139486
0.00862883
0.00513525
0.0116778
0.0137678
0.00859615
0.00510629
0.0116201
0.0135688
0.00856678
0.00508545
0.0115423
0.0133559
0.00854714
0.00507491
0.0114476
0.0131381
0.00854135
0.00507387
0.011339
0.0129253
0.00367479
0.00508212
0.0112192
0.0127064
0.00310045
0.00509973
0.0110898
0.00738347
0.00470022
0.0045398
0.0109513
0.0049667
0.00804103
0.00431165
0.0108084
0.00494073
0.00898063
0.00516287
0.0106765
0.00665803
0.00898885
0.00516842
0.0105643
0.00955369
0.0089813
0.00516724
0.010463
0.0119586
0.0089585
0.00516793
0.00644656
0.0121176
0.00892172
0.00517559
0.00450629
0.0119729
0.00887221
0.00518964
0.00486476
0.0117968
0.008811
0.00520879
0.00691682
0.0115923
0.00869153
0.00523109
0.0093928
0.0113626
0.00855894
0.00525417
0.01028
0.0111116
0.00844799
0.00527907
0.0102105
0.0108414
0.00841859
0.00530459
0.0101191
0.0105435
0.00838027
0.00532819
0.0100065
0.00842618
0.00826133
0.00534972
0.00987334
0.00664206
0.00812491
0.00536973
0.00972026
0.00605169
0.00618624
0.00538682
0.00914435
0.00655354
0.00500112
0.00539969
0.00843326
0.00762202
0.0051382
0.00540701
0.00818624
0.00835081
0.0061496
0.00540741
0.00836727
0.00842112
0.00707376
0.0053995
0.00852595
0.00812285
0.00724997
0.005382
0.00845647
0.00781563
0.00708071
0.00535376
0.00822609
0.00750061
0.00689728
0.0053138
0.00797748
0.00718271
0.00670293
0.00526131
0.00772097
0.00684882
0.00649869
0.00519577
0.00745739
0.00651702
0.00628309
0.00511709
0.00718732
0.0061976
0.00605853
0.00502584
0.00691165
0.0058921
0.00583078
0.00492317
0.00663163
0.00559795
0.00560025
0.00481037
0.00634819
0.00531048
0.00536475
0.00468831
0.00606211
0.00502128
0.00512509
0.00455736
0.005774
0.00472786
0.00488329
0.00441777
0.00548441
0.00443734
0.00463986
0.00426979
0.00519381
0.0041493
0.00439524
0.00411372
0.00490262
0.00386376
0.00414976
0.00394996
0.00461162
0.00358099
0.0039038
0.00377878
0.00432127
0.00330145
0.00365773
0.00360069
0.00403189
0.00302565
0.00341219
0.00341631
0.00374394
0.00275422
0.0031677
0.00320662
0.00345818
0.00248799
0.00292484
0.0029811
0.00317338
0.00222793
0.00268421
0.00275367
0.00288992
0.00197522
0.00244651
0.00253038
0.00260905
0.00173117
0.00221251
0.00231108
0.0023324
0.00149724
0.00198226
0.00209801
0.00206196
0.00127489
0.00175639
0.00189127
0.00179977
0.00106589
0.001536
0.00169086
0.00154794
0.000872268
0.001323
0.001497
0.00130865
0.000696067
0.0011201
0.00131019
0.00108409
0.000539214
0.00092747
0.00113116
0.000876259
0.000403378
0.000747766
0.000960853
0.000687209
0.000289697
0.000583032
0.000800373
0.000519393
0.000198474
0.000435657
0.000650955
0.000375236
0.000128865
0.000308723
0.000511148
0.000256637
7.87865e-05
0.000204991
0.000369082
0.000164397
4.50711e-05
0.000125862
0.000246976
9.75599e-05
2.39586e-05
7.05239e-05
0.000149905
5.30837e-05
1.17296e-05
3.56295e-05
8.06252e-05
2.6225e-05
5.21959e-06
1.60384e-05
3.75563e-05
1.16321e-05
2.06714e-06
6.33087e-06
1.48345e-05
4.55267e-06
7.0401e-07
2.12948e-06
4.84456e-06
1.52475e-06
1.94702e-07
5.7806e-07
1.24976e-06
4.13512e-07
3.96243e-08
1.14433e-07
2.32118e-07
8.22379e-08
5.13691e-09
1.39447e-08
2.60645e-08
1.0217e-08
6.74262e-10
1.35881e-09
2.05587e-09
1.09591e-09
4.92663e-10
8.13575e-10
1.21358e-09
7.18198e-10
0.00241855
0.00427521
0.00919706
0.00251262
0.00217873
0.00417447
0.00911208
0.00234598
0.0019304
0.00408241
0.00902902
0.00224995
0.00167806
0.00399533
0.00893591
0.00222892
0.00142657
0.00391396
0.00883664
0.00227358
0.00118164
0.00384056
0.00873425
0.00235991
0.000949548
0.00377725
0.00863194
0.00247205
0.000736914
0.00372702
0.0085329
0.00259735
0.000550691
0.0036934
0.00843988
0.00272659
0.000398476
0.00368166
0.00835525
0.00285416
0.000289458
0.00369688
0.00828161
0.00297726
0.000235911
0.00374332
0.00822085
0.00309513
0.00025306
0.00382883
0.00817425
0.00320832
0.000353634
0.00395411
0.00814247
0.00331812
0.000539181
0.00411033
0.00812549
0.0034261
0.000792319
0.00428569
0.00812226
0.00353375
0.00107956
0.00447049
0.0081305
0.00364222
0.00137143
0.0046572
0.00814978
0.00375182
0.00165126
0.00484
0.00817904
0.00386331
0.00191171
0.00501424
0.0082146
0.00397779
0.00215009
0.00517596
0.00825328
0.00398768
0.00236584
0.00509058
0.00829203
0.00390227
0.00255924
0.00506729
0.00832813
0.00390042
0.0027309
0.00520681
0.00835933
0.00394559
0.00288239
0.00543825
0.00838006
0.0039908
0.00301657
0.00565429
0.00838702
0.00404533
0.00313665
0.0058099
0.00837813
0.00415475
0.00324489
0.00589841
0.00835169
0.0043032
0.00334221
0.00593176
0.00830654
0.00443776
0.00342833
0.00592478
0.00824194
0.00452649
0.0035021
0.00588485
0.00815757
0.00455948
0.00356216
0.00581822
0.00805351
0.00454729
0.00354155
0.0057457
0.00793019
0.00451285
0.00348571
0.00569529
0.00778697
0.00447977
0.00343608
0.00564805
0.00743499
0.00444674
0.00339316
0.00554186
0.00705132
0.00438136
0.00334996
0.00536253
0.00669369
0.00426591
0.00330194
0.00515291
0.00637901
0.00412105
0.00324693
0.00495489
0.00610132
0.00397512
0.00318459
0.004783
0.00585179
0.00383994
0.00311616
0.00463116
0.00562729
0.00371352
0.00304327
0.00448851
0.00542642
0.00359031
0.00296684
0.00434689
0.00524164
0.0034665
0.00288662
0.00420234
0.00505999
0.00334044
0.00280152
0.00405366
0.00487189
0.00321168
0.00271044
0.00390081
0.00467454
0.00308024
0.00261309
0.00374396
0.00446888
0.0029461
0.0025098
0.00358321
0.00425683
0.00280922
0.00240087
0.00341858
0.00404037
0.00266983
0.00228607
0.0032502
0.00382131
0.00252861
0.00216461
0.00307863
0.00360098
0.00238503
0.00203071
0.00290481
0.00338016
0.00223226
0.00188257
0.00272959
0.00315931
0.00207547
0.00174009
0.00255283
0.00293867
0.0019211
0.00160408
0.00237157
0.00271782
0.00176983
0.00147194
0.00218382
0.00249406
0.00162096
0.00134179
0.0019967
0.00227233
0.00147383
0.00121302
0.00181176
0.00205414
0.00132834
0.00108564
0.00162948
0.00184039
0.00118489
0.000959913
0.00145031
0.00163203
0.00104426
0.000836321
0.00127506
0.0014302
0.000907471
0.000714503
0.00110494
0.0012362
0.000766141
0.000580725
0.000941362
0.00105135
0.000618043
0.000450453
0.000781993
0.000875841
0.00048073
0.000333717
0.000613202
0.000698081
0.000357942
0.000234203
0.000459376
0.000529013
0.000253102
0.000154438
0.000325221
0.000380247
0.000168569
9.49899e-05
0.000214982
0.000256068
0.000104928
5.41674e-05
0.00013103
0.000159368
6.06287e-05
2.84874e-05
7.27665e-05
9.04124e-05
3.23212e-05
1.37293e-05
3.64341e-05
4.61617e-05
1.57847e-05
5.99837e-06
1.62688e-05
2.09457e-05
6.98364e-06
2.32998e-06
6.37403e-06
8.30703e-06
2.74502e-06
7.77696e-07
2.12723e-06
2.79754e-06
9.26632e-07
2.10268e-07
5.72293e-07
7.57964e-07
2.53329e-07
4.1405e-08
1.11997e-07
1.49272e-07
5.04778e-08
4.81919e-09
1.31222e-08
1.76634e-08
6.00068e-09
2.12966e-10
8.14725e-10
1.19536e-09
3.42053e-10
7.66994e-12
3.09387e-10
5.29687e-10
9.88066e-11
)
;

boundaryField
{
    leftWall
    {
        type            compressible::alphatWallFunction;
        Prt             0.85;
        value           uniform 0;
    }
    rightWall
    {
        type            compressible::alphatWallFunction;
        Prt             0.85;
        value           uniform 0;
    }
    leftSides_periodic0
    {
        type            cyclic;
    }
    leftSides_periodic1
    {
        type            cyclic;
    }
    rightSides_periodic0
    {
        type            cyclic;
    }
    rightSides_periodic1
    {
        type            cyclic;
    }
    leftInOut_periodic0
    {
        type            cyclic;
    }
    leftInOut_periodic1
    {
        type            cyclic;
    }
    rightInOut_periodic0
    {
        type            cyclic;
    }
    rightInOut_periodic1
    {
        type            cyclic;
    }
}


// ************************************************************************* //
