/*--------------------------------*- C++ -*----------------------------------*\
| =========                 |                                                 |
| \\      /  F ield         | OpenFOAM: The Open Source CFD Toolbox           |
|  \\    /   O peration     | Version:  v1912                                 |
|   \\  /    A nd           | Website:  www.openfoam.com                      |
|    \\/     M anipulation  |                                                 |
\*---------------------------------------------------------------------------*/
FoamFile
{
    version     2.0;
    format      ascii;
    class       volVectorField;
    location    "99.2";
    object      UMean;
}
// * * * * * * * * * * * * * * * * * * * * * * * * * * * * * * * * * * * * * //

dimensions      [0 1 -1 0 0 0 0];


internalField   nonuniform List<vector> 
2528
(
(-6.56953e-06 -0.000366666 -0.0081844)
(0.000420433 9.12147e-07 -0.00567087)
(-9.64033e-06 -2.22165e-06 -0.00784695)
(-0.000474839 4.40225e-06 -0.00847027)
(0.000393486 0.000624261 -0.022947)
(0.000849025 5.76724e-06 -0.0157923)
(-0.000440499 -1.07726e-05 -0.021886)
(-0.0010074 9.11501e-06 -0.0238226)
(0.00112223 -0.000567256 -0.0366137)
(0.000880298 5.68449e-06 -0.025085)
(-0.0011985 -1.94434e-05 -0.0347671)
(-0.0011415 7.37914e-06 -0.0380374)
(0.0018434 0.000297874 -0.0496683)
(0.000812384 1.20198e-05 -0.0339747)
(-0.00194849 -3.55285e-05 -0.0470553)
(-0.00118004 7.55187e-06 -0.0515134)
(0.00245089 -0.00019342 -0.0621603)
(0.000734081 1.47777e-05 -0.0425475)
(-0.00258522 -5.03277e-05 -0.0588683)
(-0.00121623 -1.86438e-06 -0.0643199)
(0.00299248 -7.98799e-05 -0.0739851)
(0.000590345 1.85465e-05 -0.0507444)
(-0.00315737 -6.73413e-05 -0.0701203)
(-0.00119984 -1.43867e-05 -0.0764117)
(0.00348591 -0.000127917 -0.0851142)
(0.00037064 2.27956e-05 -0.0585557)
(-0.0036832 -8.59967e-05 -0.0807907)
(-0.00112347 -3.05862e-05 -0.0878034)
(0.00393801 -0.00015565 -0.095542)
(8.02888e-05 2.75332e-05 -0.0659833)
(-0.00416947 -0.000106248 -0.0908729)
(-0.000993954 -5.04116e-05 -0.0985184)
(0.00435155 -0.000192288 -0.105262)
(-0.000268293 3.30228e-05 -0.0730273)
(-0.00461829 -0.000128033 -0.100356)
(-0.000823573 -7.35016e-05 -0.108565)
(0.00472737 -0.000224888 -0.114272)
(-0.000660062 3.91743e-05 -0.0796819)
(-0.00502968 -0.000151623 -0.109231)
(-0.000625611 -9.99572e-05 -0.117945)
(0.00506537 -0.000256383 -0.122592)
(-0.0010814 4.56739e-05 -0.0859404)
(-0.00540269 -0.000177732 -0.117505)
(-0.000410467 -0.000129399 -0.12667)
(0.00536625 -0.000287658 -0.130268)
(-0.00152131 5.26813e-05 -0.0918036)
(-0.00573675 -0.000206181 -0.125208)
(-0.000189375 -0.000161143 -0.134772)
(0.00563254 -0.000318679 -0.137355)
(-0.00196805 6.0834e-05 -0.0972847)
(-0.00603335 -0.000236603 -0.132381)
(2.48276e-05 -0.000195546 -0.142295)
(0.00586798 -0.000348188 -0.143893)
(-0.00240656 7.01057e-05 -0.102405)
(-0.0062958 -0.000268563 -0.139064)
(0.000222714 -0.000232965 -0.149287)
(0.0060768 -0.000375034 -0.149918)
(-0.00281972 7.96277e-05 -0.107188)
(-0.00652821 -0.000301967 -0.145291)
(0.00039693 -0.000273266 -0.15579)
(0.00626226 -0.000399784 -0.155476)
(-0.003194 8.91298e-05 -0.111658)
(-0.00673417 -0.00033701 -0.151097)
(0.000544849 -0.000315625 -0.16184)
(0.00642695 -0.000423392 -0.160612)
(-0.00352264 9.91821e-05 -0.115846)
(-0.00691655 -0.000373411 -0.15652)
(0.000666917 -0.000359563 -0.167475)
(0.00657294 -0.000446088 -0.165368)
(-0.0038043 0.000110386 -0.119779)
(-0.00707782 -0.000411183 -0.161593)
(0.000762439 -0.000405589 -0.172728)
(0.00670184 -0.000467667 -0.169783)
(-0.00403911 0.000122816 -0.123482)
(-0.00722001 -0.000450208 -0.166346)
(0.000831012 -0.000453144 -0.177631)
(0.00681499 -0.000487798 -0.173897)
(-0.00422733 0.000136321 -0.126978)
(-0.00734479 -0.000490088 -0.170805)
(0.000873053 -0.000502348 -0.182215)
(0.00691364 -0.000506754 -0.177746)
(-0.00437053 0.000150828 -0.130291)
(-0.00745336 -0.000529786 -0.174993)
(0.000889294 -0.000552641 -0.18651)
(0.00699873 -0.000524673 -0.181364)
(-0.00447222 0.000166318 -0.133441)
(-0.00754602 -0.000568374 -0.178938)
(0.000880263 -0.000602611 -0.190555)
(0.0070711 -0.000541971 -0.18478)
(-0.00453765 0.000182991 -0.13645)
(-0.00762257 -0.000606354 -0.182677)
(0.000846245 -0.000654669 -0.194406)
(0.00713183 -0.000558767 -0.188022)
(-0.00457287 0.00020109 -0.139336)
(-0.00768303 -0.000645938 -0.186246)
(0.000788327 -0.00071047 -0.198118)
(0.00718211 -0.000575125 -0.191107)
(-0.00458321 0.000220844 -0.142117)
(-0.00772857 -0.000689108 -0.189677)
(0.00071041 -0.000767961 -0.201703)
(0.0072231 -0.000590337 -0.19405)
(-0.00457242 0.000242312 -0.144807)
(-0.00776228 -0.000732577 -0.192975)
(0.000619524 -0.000822715 -0.20508)
(0.0072557 -0.000604544 -0.196868)
(-0.00454305 0.000265048 -0.147418)
(-0.00778849 -0.00077035 -0.19612)
(0.000520388 -0.000873509 -0.208183)
(0.00728054 -0.000618717 -0.199573)
(-0.00449762 0.000288834 -0.149956)
(-0.00781003 -0.00080036 -0.19909)
(0.000412295 -0.00092659 -0.211071)
(0.00729812 -0.000632727 -0.202179)
(-0.00443903 0.000314053 -0.152429)
(-0.00782597 -0.000830886 -0.201894)
(0.000295868 -0.000987152 -0.213825)
(0.00730915 -0.000646801 -0.204698)
(-0.0043699 0.000341051 -0.154842)
(-0.00783358 -0.000867171 -0.20456)
(0.000174931 -0.00104015 -0.216466)
(0.00731438 -0.000660004 -0.207138)
(-0.00429195 0.000369969 -0.157202)
(-0.00783162 -0.000904258 -0.207117)
(4.56312e-05 -0.00108507 -0.219033)
(0.00731451 -0.000671967 -0.209506)
(-0.00420582 0.000400443 -0.159512)
(-0.00782108 -0.000937232 -0.209583)
(-0.000101408 -0.00114393 -0.221634)
(0.00731036 -0.000683237 -0.211807)
(-0.0041118 0.000432154 -0.161775)
(-0.00780347 -0.000973175 -0.211958)
(-0.00026286 -0.00122254 -0.224373)
(0.00730299 -0.000702282 -0.214043)
(-0.00401062 0.000465286 -0.163993)
(-0.00776755 -0.00101099 -0.2143)
(-0.000410789 -0.00130449 -0.22712)
(0.00729228 -0.000720316 -0.216207)
(-0.00390319 0.000499911 -0.16617)
(-0.00769697 -0.00103448 -0.216747)
(-0.00050673 -0.00134756 -0.22943)
(0.00726478 -0.000727321 -0.218366)
(-0.00379004 0.000535944 -0.168306)
(-0.00760191 -0.00104288 -0.219414)
(-0.000571636 -0.001374 -0.231398)
(0.00720154 -0.000728543 -0.220721)
(-0.0036712 0.000573889 -0.170405)
(-0.00752198 -0.00105585 -0.22216)
(-0.000641965 -0.00141781 -0.233245)
(0.00711256 -0.000740377 -0.223477)
(-0.00354586 0.000612 -0.172468)
(-0.00749918 -0.00109688 -0.22449)
(-0.000730264 -0.00148454 -0.235037)
(0.0070416 -0.000786208 -0.226471)
(-0.0034123 0.00064977 -0.174495)
(-0.00749816 -0.00113774 -0.226419)
(-0.00083059 -0.00155334 -0.236733)
(0.00704485 -0.000820617 -0.228884)
(-0.00326687 0.000692576 -0.176484)
(-0.00747857 -0.00116315 -0.228237)
(-0.000931687 -0.00160882 -0.238319)
(0.00708132 -0.000800979 -0.230701)
(-0.00310435 0.000737971 -0.178433)
(-0.00743096 -0.00117088 -0.230055)
(-0.00102952 -0.00166305 -0.239804)
(0.00709851 -0.000726206 -0.232452)
(-0.00292448 0.000797872 -0.180342)
(-0.00737111 -0.0011836 -0.231819)
(-0.00112334 -0.00172007 -0.241199)
(0.0070762 -0.000740149 -0.234442)
(-0.00272584 0.000836682 -0.182274)
(-0.00731063 -0.00120169 -0.233503)
(-0.00121143 -0.00177686 -0.242509)
(0.00703203 -0.000808735 -0.236511)
(-0.00254712 0.000842586 -0.184458)
(-0.00724958 -0.00121781 -0.235103)
(-0.00129324 -0.00183354 -0.243738)
(0.00698574 -0.00078822 -0.2384)
(-0.00246362 0.000881784 -0.187211)
(-0.00716982 -0.00123676 -0.236754)
(-0.00136977 -0.00189077 -0.244884)
(0.00693026 -0.000790227 -0.240216)
(-0.0024837 0.00100134 -0.190559)
(-0.00703191 -0.00124712 -0.23877)
(-0.00144013 -0.00194908 -0.245948)
(0.00685665 -0.000884976 -0.24215)
(-0.0025188 0.00116609 -0.193387)
(-0.00681691 -0.00124716 -0.241371)
(-0.00150157 -0.0020101 -0.246933)
(0.00677032 -0.00113597 -0.244209)
(-0.00233549 0.00119113 -0.195163)
(-0.00656245 -0.00124286 -0.244268)
(-0.00155296 -0.00206978 -0.24784)
(0.0067085 -0.00113745 -0.245856)
(-0.00196024 0.00114154 -0.196487)
(-0.00641884 -0.00125558 -0.246058)
(-0.00160189 -0.00212555 -0.248671)
(0.00665905 -0.000869357 -0.247107)
(-0.00155364 0.00107359 -0.197873)
(-0.00635693 -0.00127014 -0.247045)
(-0.00166348 -0.00218092 -0.249423)
(0.00655547 -0.000663352 -0.248754)
(-0.00130546 0.00106547 -0.19948)
(-0.00628959 -0.00127442 -0.248033)
(-0.00174613 -0.00223593 -0.250095)
(0.00634928 -0.000619118 -0.25145)
(-0.00128095 0.00120844 -0.201297)
(-0.00618662 -0.00127149 -0.249218)
(-0.00184716 -0.00229418 -0.250691)
(0.00606504 -0.000843217 -0.254946)
(-0.00131442 0.00140791 -0.203101)
(-0.00606271 -0.00126916 -0.250438)
(-0.00195213 -0.00235788 -0.251212)
(0.00591336 -0.00107021 -0.257023)
(-0.00128783 0.00152507 -0.204812)
(-0.0059321 -0.00126307 -0.251575)
(-0.00204848 -0.00241993 -0.251639)
(0.00587227 -0.00112013 -0.257999)
(-0.00118419 0.00151284 -0.206494)
(-0.00578755 -0.00127047 -0.252683)
(-0.0021392 -0.00246705 -0.251967)
(0.00584192 -0.00106931 -0.258977)
(-0.00101566 0.00149268 -0.20813)
(-0.00560934 -0.00129838 -0.253945)
(-0.00223358 -0.00249146 -0.252265)
(0.00578328 -0.000992955 -0.260119)
(-0.000806547 0.00154406 -0.209926)
(-0.00538652 -0.00129556 -0.255478)
(-0.00232474 -0.00252959 -0.252696)
(0.00570738 -0.000999998 -0.261218)
(-0.000561072 0.00162237 -0.212231)
(-0.00511637 -0.00121481 -0.257238)
(-0.00239255 -0.00262982 -0.253244)
(0.00561313 -0.00104807 -0.262187)
(-0.000274828 0.00166723 -0.215327)
(-0.00488645 -0.00110305 -0.258463)
(-0.00245419 -0.00271462 -0.253595)
(0.00550596 -0.00108717 -0.263063)
(2.72339e-05 0.00168568 -0.218673)
(-0.00470163 -0.00108588 -0.259528)
(-0.00252043 -0.00275468 -0.253739)
(0.00539403 -0.00114724 -0.26385)
(0.000215325 0.00174828 -0.220953)
(-0.00451552 -0.00119391 -0.26092)
(-0.00257682 -0.00279302 -0.253739)
(0.00527867 -0.0011842 -0.264518)
(0.000310948 0.00182389 -0.222351)
(-0.00431717 -0.00123583 -0.262273)
(-0.0026238 -0.00284818 -0.253657)
(0.00516076 -0.00115324 -0.265108)
(0.000409511 0.00187303 -0.223546)
(-0.00411173 -0.00116915 -0.263279)
(-0.00266911 -0.00290252 -0.253517)
(0.00502533 -0.00107598 -0.265838)
(0.000552298 0.00190922 -0.224831)
(-0.00389423 -0.00110291 -0.263967)
(-0.00271057 -0.00295532 -0.25332)
(0.00485136 -0.00118244 -0.266911)
(0.000723137 0.00194059 -0.226093)
(-0.00366009 -0.00107991 -0.264542)
(-0.00274547 -0.00300755 -0.253066)
(0.00468184 -0.00132435 -0.267788)
(0.000893901 0.0019633 -0.227259)
(-0.00340695 -0.00105365 -0.265125)
(-0.00277216 -0.00305826 -0.252757)
(0.00452441 -0.00133993 -0.268359)
(0.00106814 0.00199833 -0.228328)
(-0.00313532 -0.0010171 -0.265685)
(-0.00279128 -0.00310586 -0.252394)
(0.00436882 -0.00123604 -0.26878)
(0.00126127 0.00208003 -0.229351)
(-0.00285358 -0.000983873 -0.266143)
(-0.00280386 -0.00314818 -0.25198)
(0.00420287 -0.00130977 -0.269279)
(0.00146222 0.00216867 -0.230494)
(-0.00256386 -0.000949588 -0.266496)
(-0.00280591 -0.0032155 -0.251516)
(0.00401202 -0.00156085 -0.269909)
(0.00164548 0.00214128 -0.231873)
(-0.00226501 -0.000907863 -0.266779)
(-0.0027715 -0.00332206 -0.251054)
(0.00382697 -0.00162032 -0.27034)
(0.0018353 0.00210946 -0.233189)
(-0.00196344 -0.000861389 -0.266991)
(-0.00269556 -0.00333929 -0.25065)
(0.00365623 -0.00142376 -0.270306)
(0.00204779 0.00213991 -0.234375)
(-0.00166307 -0.000818055 -0.267137)
(-0.00263545 -0.00319758 -0.250107)
(0.00346669 -0.00139528 -0.27021)
(0.00226899 0.00218337 -0.235464)
(-0.00136037 -0.000756177 -0.267312)
(-0.00267077 -0.00315353 -0.248811)
(0.0032647 -0.00153071 -0.270172)
(0.00248882 0.00221533 -0.236459)
(-0.00104885 -0.000692216 -0.267618)
(-0.00288181 -0.00358313 -0.246172)
(0.00305621 -0.00161287 -0.270109)
(0.00270238 0.00223905 -0.237358)
(-0.000719152 -0.000669613 -0.267969)
(-0.00298695 -0.00357615 -0.244197)
(0.00283636 -0.00164764 -0.270009)
(0.00292578 0.00222355 -0.238296)
(-0.000377552 -0.000687007 -0.267987)
(-0.00300012 -0.00344621 -0.24277)
(0.00258526 -0.00168993 -0.270006)
(0.00318169 0.00213262 -0.239737)
(-6.62548e-05 -0.000556358 -0.267376)
(-0.00296392 -0.00351552 -0.241526)
(0.00227686 -0.00173592 -0.270218)
(0.00344516 0.00217217 -0.242062)
(0.000241037 -0.000399234 -0.266887)
(-0.00290515 -0.00353337 -0.240579)
(0.00192203 -0.00177859 -0.270455)
(0.00372368 0.00229506 -0.245151)
(0.000579865 -0.000380273 -0.266721)
(-0.00277007 -0.00351543 -0.237806)
(-8.362e-05 -2.59287e-06 -0.00262703)
(-0.000132594 -4.22474e-09 -0.00330417)
(3.98835e-05 -3.28744e-06 -0.00489742)
(0.00012336 5.17639e-07 -0.00419926)
(-0.000201454 -7.63287e-06 -0.00817847)
(-0.000321678 -9.35415e-07 -0.010089)
(7.15032e-05 -9.74209e-06 -0.0146351)
(0.000293839 -1.01377e-06 -0.0125186)
(-0.000259344 -1.73084e-05 -0.0141127)
(-0.000400538 -4.74067e-06 -0.0171275)
(4.3751e-05 -2.10658e-05 -0.024459)
(0.000353987 -3.27799e-06 -0.0208529)
(-0.000304284 -2.67772e-05 -0.0203374)
(-0.000434384 -8.33997e-06 -0.0243964)
(4.0938e-06 -3.37369e-05 -0.0343758)
(0.000369877 -6.64826e-06 -0.0292983)
(-0.000357709 -3.76861e-05 -0.0267461)
(-0.000461002 -1.39568e-05 -0.0318083)
(-2.60563e-05 -4.67681e-05 -0.0442901)
(0.000379266 -1.15869e-05 -0.0378012)
(-0.000412279 -4.9345e-05 -0.0332863)
(-0.000474995 -2.02018e-05 -0.0392886)
(-5.36578e-05 -6.05178e-05 -0.0540986)
(0.00037723 -1.72815e-05 -0.0462556)
(-0.00046433 -6.15398e-05 -0.0398991)
(-0.000474882 -2.69637e-05 -0.0467696)
(-8.19679e-05 -7.45472e-05 -0.0637111)
(0.000362682 -2.34987e-05 -0.0545834)
(-0.000511796 -7.40138e-05 -0.0465195)
(-0.000461045 -3.39627e-05 -0.054178)
(-0.000112568 -8.86029e-05 -0.0730385)
(0.000336274 -3.00828e-05 -0.0627163)
(-0.000553358 -8.66075e-05 -0.0530821)
(-0.000434971 -4.08986e-05 -0.0614365)
(-0.000146152 -0.000102487 -0.0819947)
(0.000299518 -3.68099e-05 -0.0705928)
(-0.00058818 -9.91782e-05 -0.0595235)
(-0.000398935 -4.75321e-05 -0.0684703)
(-0.000182832 -0.000115966 -0.090508)
(0.000254437 -4.35128e-05 -0.078159)
(-0.000615871 -0.000111542 -0.0657886)
(-0.000355734 -5.36472e-05 -0.0752185)
(-0.000222201 -0.000128933 -0.0985357)
(0.000203319 -5.00802e-05 -0.0853748)
(-0.000636539 -0.000123665 -0.0718369)
(-0.000308359 -5.90542e-05 -0.081644)
(-0.000263614 -0.000141144 -0.10607)
(0.000148654 -5.6327e-05 -0.09222)
(-0.000650806 -0.000135418 -0.0776471)
(-0.000259848 -6.35965e-05 -0.0877346)
(-0.000306598 -0.000152368 -0.113132)
(9.2745e-05 -6.23212e-05 -0.0986943)
(-0.00065939 -0.000146578 -0.0832144)
(-0.000212864 -6.71969e-05 -0.0934987)
(-0.000350928 -0.000162574 -0.119768)
(3.72989e-05 -6.80671e-05 -0.104818)
(-0.000662777 -0.00015706 -0.0885498)
(-0.000169352 -6.978e-05 -0.098968)
(-0.000396493 -0.000171753 -0.126027)
(-1.62469e-05 -7.33811e-05 -0.110623)
(-0.000661368 -0.000166847 -0.0936675)
(-0.00013071 -7.11814e-05 -0.104184)
(-0.000443177 -0.000179937 -0.131951)
(-6.68356e-05 -7.81671e-05 -0.116146)
(-0.000655548 -0.000175964 -0.0985804)
(-9.76924e-05 -7.12225e-05 -0.109176)
(-0.000490816 -0.000187076 -0.137567)
(-0.000113915 -8.22661e-05 -0.121413)
(-0.000645754 -0.000184206 -0.103303)
(-7.07873e-05 -6.97939e-05 -0.113961)
(-0.000539221 -0.000193128 -0.142904)
(-0.000156908 -8.57256e-05 -0.126444)
(-0.00063254 -0.000191389 -0.107849)
(-5.04577e-05 -6.68635e-05 -0.118555)
(-0.000588186 -0.000198105 -0.147983)
(-0.000195244 -8.85652e-05 -0.131256)
(-0.00061645 -0.000197522 -0.112227)
(-3.69856e-05 -6.24197e-05 -0.122973)
(-0.000637497 -0.000202004 -0.152827)
(-0.000228584 -9.07562e-05 -0.135864)
(-0.000597883 -0.000202694 -0.116449)
(-3.04611e-05 -5.64586e-05 -0.127229)
(-0.000686935 -0.000204816 -0.157454)
(-0.000256779 -9.23446e-05 -0.140283)
(-0.000577115 -0.000206987 -0.120526)
(-3.08085e-05 -4.89579e-05 -0.131335)
(-0.000736306 -0.000206579 -0.161879)
(-0.000279818 -9.3322e-05 -0.144526)
(-0.000554277 -0.000210437 -0.124472)
(-3.7849e-05 -3.98198e-05 -0.1353)
(-0.000785434 -0.000207387 -0.166118)
(-0.000297753 -9.36289e-05 -0.148601)
(-0.000529498 -0.000212563 -0.128294)
(-5.13901e-05 -2.89359e-05 -0.139131)
(-0.000834172 -0.000207364 -0.170182)
(-0.000310621 -9.32736e-05 -0.152516)
(-0.000503221 -0.00021321 -0.131984)
(-7.12602e-05 -1.62762e-05 -0.142833)
(-0.000882396 -0.000206647 -0.174086)
(-0.000318516 -9.24466e-05 -0.156276)
(-0.000476369 -0.000213001 -0.135526)
(-9.7216e-05 -1.90597e-06 -0.14641)
(-0.000929979 -0.000205326 -0.177841)
(-0.00032175 -9.11018e-05 -0.159885)
(-0.000449974 -0.000212387 -0.138922)
(-0.000128838 1.39706e-05 -0.149867)
(-0.00097674 -0.000203457 -0.181456)
(-0.000320736 -8.93898e-05 -0.16335)
(-0.000424573 -0.000211351 -0.142191)
(-0.000165549 3.11181e-05 -0.153212)
(-0.00102239 -0.000201081 -0.184939)
(-0.000316049 -8.71177e-05 -0.166678)
(-0.000399985 -0.000209207 -0.145359)
(-0.000206689 4.92992e-05 -0.156453)
(-0.00106654 -0.000198286 -0.188297)
(-0.000308266 -8.40841e-05 -0.169884)
(-0.000375478 -0.000205508 -0.148443)
(-0.000251489 6.83552e-05 -0.159601)
(-0.0011088 -0.000195193 -0.191539)
(-0.000297941 -8.11293e-05 -0.172989)
(-0.000350045 -0.000199863 -0.151432)
(-0.000299099 8.83064e-05 -0.162669)
(-0.00114901 -0.000191929 -0.194674)
(-0.000286246 -7.9117e-05 -0.17602)
(-0.000323555 -0.000194081 -0.154287)
(-0.000348743 0.000109404 -0.165667)
(-0.00118747 -0.000188483 -0.197708)
(-0.0002742 -7.83829e-05 -0.178999)
(-0.000297725 -0.000190805 -0.156982)
(-0.000399952 0.000131769 -0.168598)
(-0.00122511 -0.000184583 -0.200643)
(-0.000261828 -7.78728e-05 -0.181919)
(-0.000274211 -0.000189357 -0.15956)
(-0.000452519 0.000154814 -0.171456)
(-0.00126293 -0.000182053 -0.203467)
(-0.000248666 -7.54406e-05 -0.184743)
(-0.000252109 -0.000188465 -0.162123)
(-0.000506216 0.000178267 -0.174238)
(-0.0013006 -0.000180235 -0.20617)
(-0.000234423 -7.01642e-05 -0.187436)
(-0.000230473 -0.000181671 -0.164752)
(-0.000561169 0.000202494 -0.176943)
(-0.00133661 -0.000178222 -0.208753)
(-0.000220665 -6.43397e-05 -0.189999)
(-0.000212137 -0.000168515 -0.16741)
(-0.000617429 0.000227191 -0.179583)
(-0.00136977 -0.000178183 -0.211239)
(-0.000209909 -6.03968e-05 -0.192454)
(-0.000200607 -0.000156215 -0.170019)
(-0.000674064 0.000251378 -0.182191)
(-0.0013984 -0.000176496 -0.213652)
(-0.000202113 -5.80436e-05 -0.19481)
(-0.000193903 -0.000144112 -0.172567)
(-0.000730393 0.000274649 -0.184807)
(-0.00142161 -0.000171585 -0.216005)
(-0.000194025 -5.62129e-05 -0.197054)
(-0.000181385 -0.000136135 -0.175013)
(-0.000785677 0.000298331 -0.187448)
(-0.00144055 -0.00016556 -0.218308)
(-0.000182961 -5.47139e-05 -0.199174)
(-0.000156962 -0.000129776 -0.177316)
(-0.000837159 0.000325778 -0.190088)
(-0.00145841 -0.000162148 -0.220544)
(-0.000168726 -5.06876e-05 -0.201186)
(-0.000128839 -0.000122093 -0.179447)
(-0.000881243 0.000358707 -0.192679)
(-0.00147885 -0.000168849 -0.222684)
(-0.000151925 -4.56021e-05 -0.203122)
(-0.000106599 -0.000115427 -0.181382)
(-0.000918381 0.000395062 -0.195173)
(-0.00150154 -0.000177829 -0.224745)
(-0.000136252 -4.63202e-05 -0.205018)
(-9.26469e-05 -0.000108236 -0.183164)
(-0.000954892 0.000430767 -0.197539)
(-0.00152319 -0.000178891 -0.226752)
(-0.000125097 -4.99173e-05 -0.20689)
(-8.18378e-05 -0.000102255 -0.18489)
(-0.000998297 0.00046342 -0.199766)
(-0.00154165 -0.000175126 -0.228709)
(-0.000113374 -5.13454e-05 -0.208707)
(-6.683e-05 -9.81412e-05 -0.186677)
(-0.00104981 0.000493611 -0.20187)
(-0.00155681 -0.000172497 -0.230631)
(-9.67547e-05 -4.6664e-05 -0.21041)
(-4.88493e-05 -8.91133e-05 -0.188592)
(-0.00110689 0.000522379 -0.20388)
(-0.00156994 -0.000177359 -0.232547)
(-7.97206e-05 -4.08751e-05 -0.212025)
(-3.84072e-05 -7.50037e-05 -0.190595)
(-0.0011672 0.000550667 -0.205818)
(-0.00158237 -0.000187849 -0.234473)
(-6.36964e-05 -4.11828e-05 -0.213603)
(-3.98417e-05 -5.96074e-05 -0.192679)
(-0.00122901 0.000579149 -0.207704)
(-0.00159502 -0.000196665 -0.236397)
(-4.7553e-05 -4.30497e-05 -0.215127)
(-4.70561e-05 -4.55709e-05 -0.194752)
(-0.00129288 0.000608846 -0.20955)
(-0.00160739 -0.000204259 -0.238269)
(-3.10642e-05 -4.01168e-05 -0.21655)
(-3.89991e-05 -4.84372e-05 -0.196477)
(-0.00136062 0.000640037 -0.211362)
(-0.00161787 -0.000210306 -0.240062)
(-1.36706e-05 -3.58145e-05 -0.217878)
(-1.51441e-05 -5.65253e-05 -0.197911)
(-0.00143496 0.000672487 -0.213139)
(-0.00162608 -0.0002147 -0.24178)
(5.49935e-06 -3.53651e-05 -0.219134)
(1.23806e-05 -5.4886e-05 -0.199353)
(-0.00151544 0.000704387 -0.214901)
(-0.00163207 -0.000221744 -0.243412)
(2.62849e-05 -3.86912e-05 -0.22033)
(3.73274e-05 -4.4277e-05 -0.200958)
(-0.00159896 0.00073107 -0.216691)
(-0.00163658 -0.000230341 -0.244982)
(4.81984e-05 -4.26751e-05 -0.221467)
(5.66336e-05 -3.74524e-05 -0.202603)
(-0.00169037 0.0007551 -0.218536)
(-0.00163975 -0.000241237 -0.246521)
(7.0109e-05 -4.46306e-05 -0.222552)
(6.74539e-05 -4.37552e-05 -0.20405)
(-0.00179621 0.000784751 -0.220395)
(-0.00164008 -0.000253599 -0.247986)
(9.08467e-05 -4.53215e-05 -0.223592)
(7.33642e-05 -4.88864e-05 -0.205344)
(-0.00190487 0.000819224 -0.222219)
(-0.00163642 -0.000267271 -0.249331)
(0.000110618 -4.73146e-05 -0.224589)
(7.8243e-05 -4.61824e-05 -0.206614)
(-0.00199384 0.000853432 -0.224008)
(-0.00163111 -0.00028506 -0.25064)
(0.000129814 -5.08426e-05 -0.225544)
(8.19833e-05 -4.01408e-05 -0.207891)
(-0.00206312 0.000877425 -0.225699)
(-0.00162818 -0.000303324 -0.252102)
(0.000148293 -5.52639e-05 -0.22646)
(8.26505e-05 -3.48987e-05 -0.209137)
(-0.00212868 0.000891947 -0.227275)
(-0.00163109 -0.000315841 -0.253772)
(0.000166156 -6.0921e-05 -0.227338)
(7.88267e-05 -3.15737e-05 -0.210324)
(-0.0022011 0.00090782 -0.228777)
(-0.00163539 -0.000324464 -0.255409)
(0.000183999 -6.78987e-05 -0.228177)
(7.20159e-05 -2.86823e-05 -0.211494)
(-0.00227807 0.000927335 -0.230274)
(-0.00163215 -0.000339069 -0.256776)
(0.000202237 -7.51854e-05 -0.228976)
(6.9212e-05 -2.19262e-05 -0.212733)
(-0.00235173 0.000946103 -0.231812)
(-0.00161958 -0.000362671 -0.257929)
(0.00021969 -8.446e-05 -0.229739)
(7.5317e-05 -7.40906e-06 -0.214092)
(-0.00241599 0.000961938 -0.23335)
(-0.00160102 -0.000389883 -0.258979)
(0.000235554 -9.67528e-05 -0.230464)
(8.59906e-05 9.91916e-06 -0.215451)
(-0.00246785 0.000976101 -0.234821)
(-0.0015794 -0.000414957 -0.259982)
(0.000249837 -0.000109989 -0.231156)
(9.29651e-05 2.38448e-05 -0.216666)
(-0.00250724 0.000989571 -0.236225)
(-0.00155487 -0.000439588 -0.260951)
(0.00026194 -0.000122862 -0.231827)
(9.30703e-05 3.28245e-05 -0.217737)
(-0.00253617 0.00100446 -0.237568)
(-0.00152706 -0.000465313 -0.261887)
(0.000271652 -0.000136394 -0.23248)
(8.83213e-05 4.0386e-05 -0.218724)
(-0.00255669 0.00102306 -0.238834)
(-0.0014955 -0.000492025 -0.262785)
(0.000278929 -0.000149752 -0.233121)
(8.10092e-05 4.8651e-05 -0.21967)
(-0.00256864 0.00104226 -0.240028)
(-0.00145962 -0.000520827 -0.263642)
(0.000283198 -0.000162959 -0.233757)
(7.08397e-05 5.93645e-05 -0.220589)
(-0.00257074 0.00105789 -0.241181)
(-0.00141912 -0.00055198 -0.26449)
(0.000284094 -0.000175551 -0.2344)
(5.61943e-05 6.72201e-05 -0.221489)
(-0.00256152 0.00106959 -0.242321)
(-0.00137526 -0.000580289 -0.265371)
(0.000282083 -0.000190416 -0.235059)
(3.50444e-05 7.07589e-05 -0.222376)
(-0.00253955 0.00107988 -0.243452)
(-0.00132841 -0.000606064 -0.266217)
(0.000280239 -0.000209107 -0.235739)
(5.18911e-06 7.78058e-05 -0.223246)
(-0.00250237 0.00109024 -0.244576)
(-0.0012774 -0.000634559 -0.266946)
(0.000284284 -0.000229265 -0.236438)
(-3.52557e-05 8.51597e-05 -0.224105)
(-0.0024461 0.0011016 -0.245705)
(-0.00122189 -0.000665693 -0.267563)
(0.000293928 -0.000249288 -0.23712)
(-8.77807e-05 9.12853e-05 -0.224954)
(-0.00237168 0.00111562 -0.24682)
(-0.00116217 -0.000697168 -0.268092)
(0.000292557 -0.000271174 -0.237704)
(-0.000153431 9.58487e-05 -0.22578)
(-0.00229447 0.00113135 -0.24784)
(-0.00109828 -0.000729453 -0.268537)
(0.000273447 -0.000296324 -0.238164)
(-0.00023291 9.97039e-05 -0.226563)
(-0.0022225 0.00115006 -0.248707)
(-0.00103033 -0.000759778 -0.268899)
(0.000238023 -0.000321082 -0.238477)
(-0.000326873 0.000100827 -0.227284)
(-0.00215629 0.00116587 -0.249397)
(-0.000958072 -0.000787381 -0.269159)
(0.000195024 -0.000343508 -0.238586)
(-0.000437217 9.89077e-05 -0.227923)
(-0.00209348 0.00116825 -0.249909)
(-0.000879926 -0.000810546 -0.269299)
(0.000161796 -0.000364961 -0.238431)
(0.00026725 -3.14667e-06 -0.0051588)
(-0.000118677 3.78141e-06 -0.00287862)
(-0.000287742 -4.28436e-06 -0.00488736)
(4.22387e-05 3.02485e-06 -0.00551223)
(0.000749139 -2.44091e-06 -0.0164364)
(-0.00024419 1.49606e-05 -0.00963344)
(-0.000812164 -5.49862e-06 -0.0157018)
(1.57559e-05 7.59134e-06 -0.0172811)
(0.00115647 -3.72954e-06 -0.0282365)
(-0.000347281 3.43944e-05 -0.0170255)
(-0.00126376 -1.1831e-05 -0.0271388)
(-3.39089e-05 1.77536e-05 -0.0294213)
(0.00152881 4.21995e-07 -0.039964)
(-0.000477279 6.02102e-05 -0.024586)
(-0.00168108 -1.24881e-05 -0.0385509)
(-5.94719e-05 2.68056e-05 -0.0414333)
(0.00189375 7.02795e-06 -0.0514274)
(-0.000637485 8.99539e-05 -0.0321734)
(-0.0020919 -1.26958e-05 -0.0497152)
(-5.82762e-05 3.63711e-05 -0.0531436)
(0.00224795 1.64245e-05 -0.0626258)
(-0.000817374 0.000124338 -0.039809)
(-0.00249239 -1.15877e-05 -0.0606366)
(-4.10626e-05 4.55329e-05 -0.0645368)
(0.00258751 2.81562e-05 -0.0735112)
(-0.00100916 0.000162774 -0.0474667)
(-0.00287823 -9.71429e-06 -0.0712722)
(-1.5461e-05 5.40382e-05 -0.0755724)
(0.00290919 4.20982e-05 -0.0840145)
(-0.00120647 0.000204942 -0.0550904)
(-0.00324589 -7.32628e-06 -0.0815594)
(1.27097e-05 6.18153e-05 -0.086203)
(0.00321063 5.81036e-05 -0.0940631)
(-0.00140387 0.000250472 -0.0626137)
(-0.00359274 -4.68003e-06 -0.0914347)
(3.89383e-05 6.869e-05 -0.096383)
(0.00349046 7.57493e-05 -0.103598)
(-0.00159653 0.000299193 -0.0699725)
(-0.00391694 -1.83364e-06 -0.100847)
(6.00598e-05 7.47166e-05 -0.106074)
(0.00374859 9.50616e-05 -0.112585)
(-0.00177938 0.000350805 -0.0771133)
(-0.00421768 1.15127e-06 -0.109764)
(7.32032e-05 7.99638e-05 -0.11525)
(0.00398656 0.000115604 -0.121025)
(-0.00194899 0.000404947 -0.0839986)
(-0.00449578 4.21867e-06 -0.118184)
(7.76142e-05 8.3895e-05 -0.12392)
(0.00420706 0.0001375 -0.128953)
(-0.00210526 0.000461557 -0.0906078)
(-0.0047534 7.49317e-06 -0.126136)
(7.53249e-05 8.65569e-05 -0.132121)
(0.00441253 0.000161163 -0.136415)
(-0.00225037 0.000520399 -0.0969393)
(-0.00499262 1.10147e-05 -0.133655)
(6.82787e-05 8.83092e-05 -0.139884)
(0.00460467 0.000185958 -0.14344)
(-0.00238704 0.000581526 -0.103006)
(-0.00521478 1.47659e-05 -0.140761)
(5.77115e-05 8.93579e-05 -0.147233)
(0.0047844 0.000211432 -0.150055)
(-0.00251498 0.000644714 -0.108821)
(-0.00542074 1.85798e-05 -0.147473)
(4.21469e-05 8.96041e-05 -0.154189)
(0.00495213 0.000236846 -0.156292)
(-0.0026339 0.000709609 -0.11439)
(-0.00561142 2.21535e-05 -0.153809)
(1.97467e-05 8.8276e-05 -0.160773)
(0.00510747 0.000261676 -0.162189)
(-0.00274632 0.000776052 -0.119706)
(-0.00578774 2.49168e-05 -0.159793)
(-6.53745e-06 8.4355e-05 -0.166986)
(0.00524958 0.000288697 -0.167777)
(-0.0028568 0.00084344 -0.124762)
(-0.0059497 2.63044e-05 -0.165459)
(-2.8973e-05 7.82631e-05 -0.172822)
(0.00537946 0.000318478 -0.173058)
(-0.00297193 0.000912092 -0.129557)
(-0.00609624 2.69178e-05 -0.17084)
(-4.12392e-05 7.23385e-05 -0.178287)
(0.00549902 0.000347534 -0.178012)
(-0.00309259 0.000983234 -0.134105)
(-0.00622685 2.88982e-05 -0.175951)
(-4.67723e-05 6.84709e-05 -0.183431)
(0.00561007 0.000374819 -0.18265)
(-0.00320885 0.00105818 -0.13846)
(-0.0063429 3.22405e-05 -0.180772)
(-6.22023e-05 6.54685e-05 -0.188336)
(0.00571361 0.000400435 -0.187012)
(-0.00330003 0.00113474 -0.142698)
(-0.00644613 3.48168e-05 -0.185284)
(-0.000105972 5.67675e-05 -0.193065)
(0.00580804 0.000428505 -0.191134)
(-0.00335521 0.0012079 -0.146849)
(-0.0065379 3.49175e-05 -0.189518)
(-0.000172435 4.14862e-05 -0.197582)
(0.0058911 0.000461279 -0.195045)
(-0.00339094 0.00127924 -0.150819)
(-0.00661876 3.16532e-05 -0.193526)
(-0.000239653 2.62885e-05 -0.201782)
(0.00596221 0.000489594 -0.198754)
(-0.00342883 0.00135413 -0.154507)
(-0.00668811 2.65555e-05 -0.19734)
(-0.000292283 1.40255e-05 -0.205643)
(0.00602326 0.000512 -0.202261)
(-0.00348283 0.00143229 -0.157899)
(-0.00674632 2.02139e-05 -0.200958)
(-0.000326517 2.28727e-06 -0.209204)
(0.00607736 0.000537342 -0.205556)
(-0.00355287 0.00150916 -0.161029)
(-0.00679692 1.38838e-05 -0.204345)
(-0.000350027 -1.71901e-05 -0.212518)
(0.00612726 0.000559367 -0.208643)
(-0.00362922 0.00158341 -0.163956)
(-0.00684304 9.67985e-06 -0.207457)
(-0.000358882 -4.32454e-05 -0.215616)
(0.00617817 0.000586702 -0.21152)
(-0.00370697 0.00165862 -0.166733)
(-0.00688447 9.04986e-06 -0.210309)
(-0.000342117 -6.5406e-05 -0.218503)
(0.00623659 0.000617604 -0.214137)
(-0.0037788 0.00173908 -0.169396)
(-0.00691912 1.75988e-05 -0.212998)
(-0.000320779 -7.59063e-05 -0.221236)
(0.00630202 0.000642471 -0.216483)
(-0.00383484 0.00182351 -0.171943)
(-0.00694487 2.06617e-05 -0.215608)
(-0.000366097 -7.56688e-05 -0.22401)
(0.00636002 0.000663295 -0.218745)
(-0.00387093 0.00190471 -0.174351)
(-0.00696273 -2.46446e-06 -0.218123)
(-0.000560138 -9.71739e-05 -0.227065)
(0.00638237 0.000686013 -0.22134)
(-0.00388574 0.0019858 -0.176621)
(-0.00696975 -4.84438e-05 -0.220533)
(-0.000853605 -0.000156444 -0.23024)
(0.00636774 0.000723718 -0.224349)
(-0.00387555 0.00206647 -0.178774)
(-0.00695187 -7.7533e-05 -0.223045)
(-0.00109001 -0.000201098 -0.232929)
(0.00633856 0.000735321 -0.227101)
(-0.00386379 0.00213157 -0.180789)
(-0.00691201 -5.5346e-05 -0.225738)
(-0.00122677 -0.000222993 -0.235073)
(0.00630384 0.000725897 -0.229493)
(-0.00389733 0.00217879 -0.182618)
(-0.00686524 -3.9954e-05 -0.228175)
(-0.00128203 -0.000238086 -0.236893)
(0.00627458 0.000731269 -0.231867)
(-0.00397588 0.00226743 -0.184349)
(-0.00681466 -5.16222e-05 -0.230255)
(-0.00132317 -0.0002694 -0.238562)
(0.00623894 0.00080001 -0.234486)
(-0.00396091 0.00241393 -0.186371)
(-0.00676903 -7.68114e-05 -0.23209)
(-0.00138425 -0.000308074 -0.240123)
(0.00620327 0.00085333 -0.237009)
(-0.00366232 0.00250686 -0.189157)
(-0.00672193 -9.10442e-05 -0.233809)
(-0.00144889 -0.000352353 -0.241562)
(0.00617891 0.000845546 -0.239063)
(-0.00304441 0.00252172 -0.192528)
(-0.00666512 -9.90658e-05 -0.235464)
(-0.00148452 -0.000395798 -0.242844)
(0.00615642 0.000823697 -0.240771)
(-0.00230194 0.00252994 -0.19589)
(-0.00660052 -0.000107751 -0.237049)
(-0.00149424 -0.000419306 -0.243972)