/*--------------------------------*- C++ -*----------------------------------*\
| =========                 |                                                 |
| \\      /  F ield         | OpenFOAM: The Open Source CFD Toolbox           |
|  \\    /   O peration     | Version:  v1912                                 |
|   \\  /    A nd           | Website:  www.openfoam.com                      |
|    \\/     M anipulation  |                                                 |
\*---------------------------------------------------------------------------*/
FoamFile
{
    version     2.0;
    format      ascii;
    class       volSymmTensorField;
    location    "99.2";
    object      UPrime2Mean;
}
// * * * * * * * * * * * * * * * * * * * * * * * * * * * * * * * * * * * * * //

dimensions      [0 2 -2 0 0 0 0];


internalField   nonuniform List<symmTensor> 
2528
(
(1.32445e-07 2.47913e-08 -1.01457e-08 1.15114e-07 -1.98287e-07 1.15478e-05)
(1.08592e-05 1.16314e-07 1.91912e-06 1.37887e-09 1.5914e-08 5.63011e-06)
(1.31266e-07 -1.84361e-09 4.39303e-09 5.38216e-10 -1.876e-08 1.08557e-05)
(1.05894e-05 -1.07322e-07 -2.69778e-06 1.19696e-09 2.1781e-08 1.11767e-05)
(9.50964e-07 -7.333e-08 -1.49451e-06 8.77909e-08 -1.30084e-06 6.51094e-05)
(3.66783e-05 6.36267e-07 -1.40661e-06 1.17193e-08 -1.33669e-08 2.95818e-05)
(9.11008e-07 -2.50518e-08 1.21928e-06 5.9281e-09 -6.17135e-08 5.94382e-05)
(3.47831e-05 -6.11607e-07 -2.75948e-06 1.15635e-08 6.59878e-08 6.79984e-05)
(2.42818e-06 3.22279e-07 -5.40616e-06 2.43091e-07 2.19002e-06 0.000153696)
(3.18095e-05 1.01157e-06 -9.76774e-06 3.44514e-08 -1.95347e-07 7.32621e-05)
(2.26753e-06 -8.46527e-08 4.05034e-06 1.6705e-08 1.3817e-08 0.00013907)
(2.83201e-05 -9.45361e-07 2.79028e-06 3.45094e-08 4.62076e-08 0.000164838)
(4.57291e-06 2.12601e-07 -1.1292e-05 1.52842e-07 -8.43556e-07 0.000280267)
(2.43852e-05 1.38802e-06 -1.47046e-05 8.79844e-08 -5.34622e-07 0.000137818)
(4.22649e-06 -1.86088e-07 8.03154e-06 4.37346e-08 1.62599e-07 0.000254023)
(1.97551e-05 -1.25823e-06 5.39039e-06 9.05033e-08 2.42028e-08 0.000300598)
(7.17533e-06 5.75656e-07 -1.84435e-05 3.19378e-07 2.37095e-06 0.0004377)
(2.36061e-05 1.71847e-06 -1.84679e-05 1.46586e-07 -8.53946e-07 0.000217787)
(6.61274e-06 -2.94999e-07 1.27076e-05 7.47985e-08 3.26926e-07 0.00039857)
(1.7629e-05 -1.50291e-06 6.63897e-06 1.54197e-07 1.16886e-07 0.000467354)
(1.00719e-05 7.35783e-07 -2.65948e-05 4.39852e-07 2.25369e-06 0.000618383)
(2.4618e-05 2.12881e-06 -2.14715e-05 2.24245e-07 -1.20669e-06 0.000310738)
(9.27939e-06 -4.19069e-07 1.78997e-05 1.16677e-07 5.21488e-07 0.000566787)
(1.73434e-05 -1.79728e-06 7.42475e-06 2.40247e-07 3.06539e-07 0.000657976)
(1.31431e-05 9.65912e-07 -3.54814e-05 6.16877e-07 3.33734e-06 0.000816423)
(2.58395e-05 2.5609e-06 -2.33442e-05 3.18103e-07 -1.5897e-06 0.000415036)
(1.21221e-05 -5.52593e-07 2.3462e-05 1.67876e-07 7.65758e-07 0.000753867)
(1.75346e-05 -2.08751e-06 7.77564e-06 3.46373e-07 5.93052e-07 0.000866984)
(1.62903e-05 1.1992e-06 -4.48647e-05 8.30161e-07 4.40467e-06 0.00102664)
(2.66697e-05 2.97825e-06 -2.36916e-05 4.26951e-07 -2.00572e-06 0.000528947)
(1.50552e-05 -6.9299e-07 2.92896e-05 2.28003e-07 1.08138e-06 0.00095517)
(1.77513e-05 -2.34061e-06 7.61654e-06 4.71958e-07 9.73827e-07 0.00108959)
(1.94281e-05 1.43544e-06 -5.4527e-05 1.07344e-06 5.68487e-06 0.00124414)
(2.69105e-05 3.35614e-06 -2.22527e-05 5.51009e-07 -2.46059e-06 0.000650537)
(1.80047e-05 -8.38706e-07 3.52855e-05 2.98156e-07 1.48369e-06 0.00116606)
(1.78603e-05 -2.53397e-06 6.90801e-06 6.17924e-07 1.4421e-06 0.00132116)
(2.2485e-05 1.66199e-06 -6.42633e-05 1.35141e-06 7.05296e-06 0.00146446)
(2.65813e-05 3.67446e-06 -1.89303e-05 6.90091e-07 -2.95183e-06 0.000777693)
(2.09073e-05 -9.88811e-07 4.13281e-05 3.78316e-07 1.98735e-06 0.00138219)
(1.78676e-05 -2.65003e-06 5.66053e-06 7.84498e-07 1.99108e-06 0.00155727)
(2.54057e-05 1.8716e-06 -7.38831e-05 1.66076e-06 8.51151e-06 0.00168394)
(2.5858e-05 3.92626e-06 -1.37505e-05 8.4414e-07 -3.46787e-06 0.000908286)
(2.37104e-05 -1.14402e-06 4.72636e-05 4.67261e-07 2.60938e-06 0.00160002)
(1.78755e-05 -2.68384e-06 3.91516e-06 9.72059e-07 2.61343e-06 0.00179411)
(2.81527e-05 2.06213e-06 -8.3236e-05 1.99173e-06 1.00287e-05 0.00190012)
(2.4989e-05 4.1141e-06 -6.82827e-06 1.01052e-06 -3.99956e-06 0.00104046)
(2.63703e-05 -1.30429e-06 5.29434e-05 5.64375e-07 3.34286e-06 0.001817)
(1.80219e-05 -2.64192e-06 1.78769e-06 1.17924e-06 3.30486e-06 0.00202888)
(3.07036e-05 2.23096e-06 -9.22318e-05 2.33879e-06 1.15681e-05 0.00211128)
(2.41927e-05 4.24835e-06 1.61381e-06 1.18628e-06 -4.54427e-06 0.00117282)
(2.8852e-05 -1.46976e-06 5.83024e-05 6.69734e-07 4.17801e-06 0.00203134)
(1.83854e-05 -2.53849e-06 -5.56072e-07 1.40176e-06 4.07711e-06 0.00225963)
(3.30489e-05 2.37326e-06 -0.000100833 2.69952e-06 1.30939e-05 0.00231581)
(2.36199e-05 4.34377e-06 1.11599e-05 1.37059e-06 -5.09103e-06 0.0013043)
(3.11337e-05 -1.63686e-06 6.33189e-05 7.82937e-07 5.1075e-06 0.00224175)
(1.89536e-05 -2.38932e-06 -2.96565e-06 1.63651e-06 4.9344e-06 0.00248506)
(3.51912e-05 2.48645e-06 -0.000109055 3.07576e-06 1.45893e-05 0.0025126)
(2.32991e-05 4.40855e-06 2.12368e-05 1.56276e-06 -5.61259e-06 0.00143391)
(3.3215e-05 -1.80396e-06 6.79744e-05 9.02327e-07 6.12763e-06 0.00244729)
(1.9638e-05 -2.20604e-06 -5.30535e-06 1.88487e-06 5.86565e-06 0.00270424)
(3.71354e-05 2.575e-06 -0.000116911 3.46658e-06 1.60531e-05 0.00270118)
(2.316e-05 4.44662e-06 3.1285e-05 1.76222e-06 -6.0996e-06 0.0015609)
(3.5102e-05 -1.97411e-06 7.22608e-05 1.02768e-06 7.24269e-06 0.00264741)
(2.03464e-05 -1.99202e-06 -7.49524e-06 2.14933e-06 6.85503e-06 0.00291646)
(3.88938e-05 2.64545e-06 -0.000124385 3.86848e-06 1.74867e-05 0.00288146)
(2.31201e-05 4.464e-06 4.08925e-05 1.96815e-06 -6.56258e-06 0.00168479)
(3.68033e-05 -2.14995e-06 7.61665e-05 1.16008e-06 8.44674e-06 0.00284179)
(2.10203e-05 -1.74873e-06 -9.48439e-06 2.43015e-06 7.89451e-06 0.00312129)
(4.04775e-05 2.70013e-06 -0.000131468 4.28218e-06 1.88907e-05 0.00305355)
(2.30956e-05 4.46583e-06 4.98109e-05 2.18119e-06 -7.01373e-06 0.00180529)
(3.83267e-05 -2.33354e-06 7.96994e-05 1.29959e-06 9.73871e-06 0.00303023)
(2.16176e-05 -1.48132e-06 -1.12015e-05 2.72589e-06 8.98702e-06 0.00331854)
(4.1895e-05 2.73978e-06 -0.000138143 4.70611e-06 2.02573e-05 0.00321782)
(2.30155e-05 4.45268e-06 5.78506e-05 2.40149e-06 -7.4537e-06 0.00192216)
(3.96749e-05 -2.52474e-06 8.28937e-05 1.44542e-06 1.11205e-05 0.00321252)
(2.21077e-05 -1.19835e-06 -1.25903e-05 3.03605e-06 1.01225e-05 0.00350817)
(4.31538e-05 2.76491e-06 -0.000144401 5.13875e-06 2.1577e-05 0.00337479)
(2.28376e-05 4.42473e-06 6.48423e-05 2.62867e-06 -7.87462e-06 0.0020353)
(4.08482e-05 -2.72145e-06 8.58165e-05 1.59962e-06 1.25801e-05 0.0033884)
(2.24704e-05 -9.04483e-07 -1.35947e-05 3.36103e-06 1.13002e-05 0.00369036)
(4.42612e-05 2.7783e-06 -0.000150243 5.58043e-06 2.28504e-05 0.00352509)
(2.25423e-05 4.38353e-06 7.06717e-05 2.86396e-06 -8.27519e-06 0.00214465)
(4.18507e-05 -2.91782e-06 8.85424e-05 1.76896e-06 1.40791e-05 0.00355758)
(2.26929e-05 -6.04876e-07 -1.41543e-05 3.70072e-06 1.25092e-05 0.00386529)
(4.52239e-05 2.78188e-06 -0.000155668 6.03036e-06 2.40803e-05 0.00366944)
(2.21364e-05 4.33152e-06 7.53077e-05 3.10746e-06 -8.65534e-06 0.00225025)
(4.26963e-05 -3.10816e-06 9.10913e-05 1.95888e-06 1.55741e-05 0.00372023)
(2.27663e-05 -3.11519e-07 -1.41466e-05 4.05391e-06 1.37277e-05 0.00403368)
(4.60482e-05 2.77896e-06 -0.000160687 6.48907e-06 2.52723e-05 0.00380851)
(2.16473e-05 4.27297e-06 7.88199e-05 3.35771e-06 -9.01678e-06 0.00235233)
(4.34118e-05 -3.29516e-06 9.338e-05 2.16184e-06 1.7052e-05 0.00387733)
(2.26929e-05 -1.93225e-08 -1.33921e-05 4.41917e-06 1.49962e-05 0.00419685)
(4.67416e-05 2.77204e-06 -0.00016532 6.95668e-06 2.6426e-05 0.00394286)
(2.11069e-05 4.21272e-06 8.13372e-05 3.61341e-06 -9.36608e-06 0.00245119)
(4.4027e-05 -3.49423e-06 9.52445e-05 2.35458e-06 1.85678e-05 0.00403037)
(2.24862e-05 2.79094e-07 -1.17677e-05 4.79727e-06 1.63471e-05 0.00435652)
(4.73116e-05 2.76388e-06 -0.000169584 7.43075e-06 2.75375e-05 0.00407289)
(2.0536e-05 4.15434e-06 8.29951e-05 3.87515e-06 -9.71174e-06 0.00254719)
(4.45526e-05 -3.71794e-06 9.65673e-05 2.51721e-06 2.01932e-05 0.0041806)
(2.2155e-05 5.77885e-07 -9.40396e-06 5.19202e-06 1.77541e-05 0.00451333)
(4.77647e-05 2.75041e-06 -0.000173489 7.91865e-06 2.86067e-05 0.00419892)
(1.99421e-05 4.09841e-06 8.38944e-05 4.14479e-06 -1.00574e-05 0.00264064)
(4.49651e-05 -3.947e-06 9.74427e-05 2.66041e-06 2.18574e-05 0.00432769)
(2.1689e-05 8.65455e-07 -6.8896e-06 5.60931e-06 1.91314e-05 0.00466432)
(4.81074e-05 2.73268e-06 -0.000177045 8.42062e-06 2.96361e-05 0.00432128)
(1.93282e-05 4.04365e-06 8.41091e-05 4.42422e-06 -1.03896e-05 0.00273178)
(4.52168e-05 -4.14336e-06 9.82426e-05 2.82579e-06 2.3406e-05 0.00446942)
(2.10834e-05 1.12738e-06 -4.65079e-06 6.04716e-06 2.04548e-05 0.00480619)
(4.83453e-05 2.71901e-06 -0.00018026 8.92842e-06 3.06318e-05 0.00444035)
(1.87003e-05 3.98875e-06 8.37215e-05 4.71291e-06 -1.07023e-05 0.00282085)
(4.52795e-05 -4.29464e-06 9.93643e-05 3.06786e-06 2.47667e-05 0.00460348)
(2.03825e-05 1.35804e-06 -2.42061e-06 6.49337e-06 2.18776e-05 0.00494068)
(4.84821e-05 2.70722e-06 -0.000183145 9.44423e-06 3.15938e-05 0.00455647)
(1.80669e-05 3.93332e-06 8.28328e-05 5.00827e-06 -1.10142e-05 0.00290815)
(4.51834e-05 -4.46268e-06 0.000100874 3.3838e-06 2.6204e-05 0.00472982)
(1.96709e-05 1.55923e-06 -1.61047e-08 6.95074e-06 2.35024e-05 0.00507045)
(4.85217e-05 2.6987e-06 -0.00018572 9.96783e-06 3.25297e-05 0.00467)
(1.74308e-05 3.87748e-06 8.15435e-05 5.31006e-06 -1.134e-05 0.00299392)
(4.49884e-05 -4.68059e-06 0.000102561 3.68793e-06 2.79067e-05 0.0048504)
(1.90562e-05 1.71394e-06 2.30907e-06 7.44101e-06 2.49645e-05 0.00519606)
(4.84682e-05 2.69049e-06 -0.000188032 1.0508e-05 3.34379e-05 0.00478128)
(1.67893e-05 3.81952e-06 7.99244e-05 5.61951e-06 -1.16863e-05 0.00307835)
(4.47355e-05 -4.91087e-06 0.000104217 3.92898e-06 2.9648e-05 0.00496721)
(1.86164e-05 1.83744e-06 4.76484e-06 7.96079e-06 2.62277e-05 0.00531894)
(4.83273e-05 2.68277e-06 -0.000190101 1.10703e-05 3.43189e-05 0.00489052)
(1.61377e-05 3.75593e-06 7.80025e-05 5.93922e-06 -1.20425e-05 0.00316156)
(4.44367e-05 -5.14058e-06 0.000105739 4.13137e-06 3.13376e-05 0.00508123)
(1.83402e-05 1.98121e-06 8.32122e-06 8.46634e-06 2.78189e-05 0.00544387)
(4.81045e-05 2.68233e-06 -0.000191942 1.16496e-05 3.51741e-05 0.00499786)
(1.5475e-05 3.68326e-06 7.57948e-05 6.27049e-06 -1.23995e-05 0.00324365)
(4.40943e-05 -5.32241e-06 0.000107103 4.34572e-06 3.29192e-05 0.0051923)
(1.8106e-05 2.17042e-06 1.35878e-05 8.92129e-06 2.9932e-05 0.00557761)
(4.78074e-05 2.69795e-06 -0.000193563 1.22434e-05 3.62227e-05 0.00510329)
(1.4805e-05 3.60021e-06 7.33266e-05 6.61152e-06 -1.27679e-05 0.00332471)
(4.36029e-05 -5.49048e-06 0.0001086 4.61307e-06 3.43609e-05 0.00529992)
(1.76793e-05 2.37766e-06 1.93033e-05 9.38037e-06 3.21124e-05 0.00571628)
(4.74592e-05 2.76504e-06 -0.000194955 1.28528e-05 3.72703e-05 0.00520634)
(1.41302e-05 3.50705e-06 7.0629e-05 6.9619e-06 -1.31538e-05 0.00340483)
(4.27882e-05 -5.69308e-06 0.000110859 4.90385e-06 3.55175e-05 0.00540531)
(1.68401e-05 2.51589e-06 2.21441e-05 9.96566e-06 3.30695e-05 0.00583256)
(4.69546e-05 2.83003e-06 -0.000196228 1.34669e-05 3.80425e-05 0.00530996)
(1.34463e-05 3.40267e-06 6.77248e-05 7.32172e-06 -1.35624e-05 0.00348406)
(4.16737e-05 -5.853e-06 0.000114256 5.16986e-06 3.60373e-05 0.00551395)
(1.58272e-05 2.67634e-06 2.29366e-05 1.06568e-05 3.35063e-05 0.00593024)
(4.6054e-05 2.81237e-06 -0.000197771 1.40694e-05 3.86477e-05 0.00542404)
(1.27466e-05 3.28251e-06 6.46253e-05 7.68838e-06 -1.40173e-05 0.00356245)
(4.04949e-05 -5.98821e-06 0.000118041 5.45331e-06 3.67446e-05 0.00563204)
(1.48891e-05 2.88425e-06 2.3825e-05 1.13192e-05 3.45064e-05 0.00602305)
(4.47081e-05 2.80545e-06 -0.000200077 1.4824e-05 3.94909e-05 0.00556141)
(1.20299e-05 3.14141e-06 6.13264e-05 8.06746e-06 -1.44663e-05 0.00363996)
(3.96366e-05 -6.09354e-06 0.000120455 5.75072e-06 3.8585e-05 0.00575105)
(1.40709e-05 3.11362e-06 2.54728e-05 1.19188e-05 3.6242e-05 0.00611416)
(4.31657e-05 2.91983e-06 -0.000202773 1.56877e-05 4.11182e-05 0.00571807)
(1.13114e-05 2.97372e-06 5.77933e-05 8.4745e-06 -1.49044e-05 0.00371653)
(3.89972e-05 -6.20239e-06 0.000121755 6.05636e-06 4.05088e-05 0.00585801)
(1.33277e-05 3.29241e-06 2.75132e-05 1.25003e-05 3.80648e-05 0.00620084)
(4.20661e-05 3.08591e-06 -0.000204773 1.63869e-05 4.24353e-05 0.00584505)
(1.06278e-05 2.77416e-06 5.39073e-05 8.87512e-06 -1.55286e-05 0.00379192)
(3.82935e-05 -6.34465e-06 0.000122846 6.37938e-06 4.19605e-05 0.00595512)
(1.26315e-05 3.41087e-06 2.9562e-05 1.31474e-05 3.9492e-05 0.0062821)
(4.13734e-05 3.1421e-06 -0.000205929 1.68937e-05 4.25181e-05 0.0059385)
(1.0026e-05 2.4926e-06 4.94833e-05 9.33053e-06 -1.62568e-05 0.00386615)
(3.74519e-05 -6.50073e-06 0.000123828 6.69378e-06 4.27519e-05 0.0060473)
(1.19929e-05 3.51308e-06 3.15637e-05 1.38442e-05 4.08437e-05 0.00635836)
(4.06839e-05 2.98594e-06 -0.000206287 1.71159e-05 4.15293e-05 0.00602848)
(9.48214e-06 2.15391e-06 4.45503e-05 9.74296e-06 -1.71408e-05 0.00393973)
(3.65506e-05 -6.64146e-06 0.000124552 7.01672e-06 4.36059e-05 0.00613624)
(1.1415e-05 3.59324e-06 3.3529e-05 1.45482e-05 4.22383e-05 0.00643009)
(3.9846e-05 3.23647e-06 -0.000205575 1.7437e-05 4.2606e-05 0.00613256)
(8.89832e-06 1.88887e-06 3.94386e-05 1.04234e-05 -1.71466e-05 0.00401135)
(3.56441e-05 -6.77093e-06 0.000125044 7.35849e-06 4.46582e-05 0.00622246)
(1.08829e-05 3.65731e-06 3.54103e-05 1.5278e-05 4.36003e-05 0.00649771)
(3.89223e-05 3.39339e-06 -0.000204248 1.9134e-05 4.72141e-05 0.0062443)
(8.19206e-06 2.11042e-06 3.62005e-05 1.13204e-05 -1.6419e-05 0.00408025)
(3.4754e-05 -6.88059e-06 0.000125257 7.69677e-06 4.55735e-05 0.00630586)
(1.03771e-05 3.73049e-06 3.71537e-05 1.60292e-05 4.4924e-05 0.0065614)
(3.79964e-05 2.9705e-06 -0.000203104 2.15211e-05 5.03416e-05 0.00634586)
(7.67167e-06 3.29124e-06 3.7539e-05 1.14342e-05 -1.68206e-05 0.00415352)
(3.37253e-05 -6.93884e-06 0.000125745 8.03056e-06 4.63847e-05 0.00638941)
(9.89249e-06 3.83844e-06 3.87469e-05 1.67941e-05 4.62188e-05 0.0066212)
(3.72097e-05 2.84165e-06 -0.000201349 2.24166e-05 5.04309e-05 0.00643662)
(8.2158e-06 4.81623e-06 4.29453e-05 1.06921e-05 -1.90613e-05 0.00424653)
(3.21594e-05 -6.95902e-06 0.000127776 8.38738e-06 4.68224e-05 0.00648076)
(9.43601e-06 3.98833e-06 4.01555e-05 1.75697e-05 4.74855e-05 0.00667713)
(3.6675e-05 3.48717e-06 -0.000197638 2.14939e-05 4.77773e-05 0.00652336)
(9.33351e-06 5.87992e-06 4.79739e-05 1.06922e-05 -2.17303e-05 0.00435051)
(2.98858e-05 -6.92901e-06 0.000131737 8.77224e-06 4.66648e-05 0.00659047)
(9.01669e-06 4.1735e-06 4.13154e-05 1.83452e-05 4.87544e-05 0.0067293)
(3.63051e-05 5.11462e-06 -0.000191828 2.06597e-05 4.69689e-05 0.0066123)
(9.63667e-06 6.04842e-06 4.25129e-05 1.30287e-05 -2.06611e-05 0.00442761)
(2.73625e-05 -6.8421e-06 0.00013558 9.17105e-06 4.60566e-05 0.00671917)
(8.63617e-06 4.39324e-06 4.21933e-05 1.9195e-05 4.99087e-05 0.00677784)
(3.55254e-05 4.78612e-06 -0.00018869 2.34839e-05 4.5841e-05 0.0066928)
(1.0319e-05 5.36044e-06 2.84215e-05 1.49694e-05 -1.78453e-05 0.00448192)
(2.5991e-05 -6.7265e-06 0.000135544 9.50949e-06 4.62694e-05 0.00680915)
(8.26887e-06 4.61629e-06 4.29836e-05 2.01416e-05 5.08894e-05 0.00682279)
(3.40939e-05 2.78289e-06 -0.000189839 2.6448e-05 4.14638e-05 0.00676395)
(1.19201e-05 4.51739e-06 1.34646e-05 1.46218e-05 -1.40993e-05 0.00453365)
(2.53165e-05 -6.61098e-06 0.000133454 9.82192e-06 4.70069e-05 0.00686619)
(7.87597e-06 4.7802e-06 4.41069e-05 2.10876e-05 5.18585e-05 0.00686395)
(3.19646e-05 1.46053e-06 -0.000192376 2.57393e-05 3.8018e-05 0.00685906)
(1.26601e-05 3.78097e-06 4.51811e-06 1.3335e-05 -1.26374e-05 0.00460101)
(2.45404e-05 -6.51304e-06 0.000131374 1.01811e-05 4.75706e-05 0.00692439)
(7.44596e-06 4.85215e-06 4.58352e-05 2.19785e-05 5.28698e-05 0.00690122)
(2.90783e-05 1.32021e-06 -0.000193527 2.4218e-05 3.90418e-05 0.007016)
(1.07207e-05 3.48834e-06 3.76272e-06 1.41286e-05 -1.88376e-05 0.00469139)
(2.34891e-05 -6.44546e-06 0.000129786 1.0617e-05 4.79084e-05 0.00699041)
(7.00562e-06 4.83684e-06 4.81414e-05 2.28765e-05 5.40255e-05 0.00693481)
(2.59327e-05 2.55212e-06 -0.000191409 2.59839e-05 4.83644e-05 0.00723363)
(8.24415e-06 2.9005e-06 6.44019e-06 1.62911e-05 -2.8202e-05 0.00478483)
(2.23945e-05 -6.37236e-06 0.000128244 1.10642e-05 4.81681e-05 0.00705726)
(6.60508e-06 4.77227e-06 5.06459e-05 2.39382e-05 5.5324e-05 0.00696463)
(2.41757e-05 3.46009e-06 -0.000187518 3.01507e-05 5.86373e-05 0.00735843)
(6.77725e-06 1.94227e-06 7.90864e-06 1.7388e-05 -3.28024e-05 0.00486811)
(2.141e-05 -6.23925e-06 0.00012645 1.14095e-05 4.81799e-05 0.00712012)
(6.27531e-06 4.69872e-06 5.30105e-05 2.5034e-05 5.64203e-05 0.00698957)
(2.34268e-05 3.41522e-06 -0.000184872 3.20622e-05 6.27773e-05 0.00740449)
(6.25279e-06 1.28725e-06 6.56196e-06 1.75947e-05 -3.1365e-05 0.00494543)
(2.04425e-05 -6.17234e-06 0.000124528 1.18948e-05 4.84496e-05 0.00718068)
(6.00513e-06 4.68695e-06 5.53183e-05 2.58664e-05 5.68805e-05 0.00700923)
(2.28201e-05 3.4848e-06 -0.000183782 3.2503e-05 6.16787e-05 0.00745246)
(6.27208e-06 1.00822e-06 2.54903e-06 1.78058e-05 -2.9238e-05 0.00501732)
(1.92737e-05 -6.25484e-06 0.000123066 1.27268e-05 4.9008e-05 0.00724445)
(5.76046e-06 4.80467e-06 5.77582e-05 2.63648e-05 5.69396e-05 0.00702754)
(2.20027e-05 3.49267e-06 -0.000182884 3.25563e-05 5.90427e-05 0.00751513)
(6.36572e-06 8.33792e-07 -2.29334e-06 1.83727e-05 -3.01841e-05 0.00508579)
(1.78032e-05 -6.19043e-06 0.000122386 1.34193e-05 4.77775e-05 0.00731803)
(5.54336e-06 4.94972e-06 5.99445e-05 2.70625e-05 5.8742e-05 0.00705448)
(2.10679e-05 3.54725e-06 -0.000181323 3.32242e-05 5.90381e-05 0.00757753)
(6.36634e-06 6.4496e-07 -6.83934e-06 1.90085e-05 -3.32318e-05 0.00515672)
(1.61554e-05 -5.59116e-06 0.000120987 1.32927e-05 4.29572e-05 0.00740975)
(5.38899e-06 4.93067e-06 6.12429e-05 2.86638e-05 6.39293e-05 0.0070914)
(1.99978e-05 3.60593e-06 -0.00017876 3.4378e-05 6.05466e-05 0.00763282)
(6.36418e-06 5.26267e-07 -1.12274e-05 1.95801e-05 -3.68418e-05 0.0052464)
(1.49397e-05 -4.55997e-06 0.000117676 1.2306e-05 3.81676e-05 0.00747962)
(5.24603e-06 4.96799e-06 6.25546e-05 3.01181e-05 6.79211e-05 0.00711772)
(1.88723e-05 3.5884e-06 -0.000175542 3.53978e-05 6.19033e-05 0.00768262)
(6.51783e-06 4.79656e-07 -1.62696e-05 2.01659e-05 -4.0456e-05 0.00536064)
(1.41884e-05 -4.3417e-06 0.00011237 1.25234e-05 3.87772e-05 0.00754235)
(5.07993e-06 5.16724e-06 6.43494e-05 3.09193e-05 6.92408e-05 0.00713064)
(1.77907e-05 3.61989e-06 -0.000171999 3.6772e-05 6.38824e-05 0.00772721)
(6.88927e-06 2.98402e-07 -2.01826e-05 2.07999e-05 -4.29019e-05 0.00545364)
(1.36016e-05 -5.02401e-06 0.000105517 1.45132e-05 4.56504e-05 0.00763252)
(4.92298e-06 5.31291e-06 6.59978e-05 3.16754e-05 6.98566e-05 0.0071338)
(1.67465e-05 3.60453e-06 -0.000168216 3.78651e-05 6.49027e-05 0.00776464)
(7.31318e-06 -1.52509e-08 -2.2222e-05 2.14405e-05 -4.4452e-05 0.00552124)
(1.28754e-05 -5.15687e-06 9.9784e-05 1.57767e-05 4.95593e-05 0.00772154)
(4.76645e-06 5.34768e-06 6.74086e-05 3.26558e-05 7.09687e-05 0.00713174)
(1.57292e-05 3.50371e-06 -0.000164219 3.82783e-05 6.38994e-05 0.0077976)
(7.70071e-06 -3.30134e-07 -2.4576e-05 2.20264e-05 -4.54728e-05 0.00558213)
(1.20601e-05 -4.61178e-06 9.5291e-05 1.5606e-05 4.76653e-05 0.00778422)
(4.58511e-06 5.34789e-06 6.88505e-05 3.36042e-05 7.20675e-05 0.00712617)
(1.47506e-05 3.42532e-06 -0.000159479 3.83117e-05 6.24282e-05 0.00783966)
(8.02734e-06 -5.86686e-07 -2.81135e-05 2.25821e-05 -4.65275e-05 0.00564369)
(1.12591e-05 -4.07314e-06 9.09916e-05 1.54241e-05 4.49231e-05 0.00782293)
(4.37891e-06 5.32063e-06 7.02474e-05 3.45177e-05 7.31193e-05 0.00711706)
(1.38375e-05 3.53983e-06 -0.00015311 4.02609e-05 6.90089e-05 0.00790722)
(8.32226e-06 -7.83277e-07 -3.23172e-05 2.31691e-05 -4.75535e-05 0.00570296)
(1.04855e-05 -3.76483e-06 8.62819e-05 1.57949e-05 4.37956e-05 0.00785285)
(4.1533e-06 5.27503e-06 7.15132e-05 3.54067e-05 7.41719e-05 0.00710445)
(1.29336e-05 3.75348e-06 -0.000146828 4.16961e-05 7.6161e-05 0.00796628)
(8.66526e-06 -9.38693e-07 -3.65583e-05 2.3792e-05 -4.83311e-05 0.00575814)
(9.71929e-06 -3.4485e-06 8.10524e-05 1.61786e-05 4.26189e-05 0.0078825)
(3.91564e-06 5.21955e-06 7.25918e-05 3.62672e-05 7.51876e-05 0.00708844)
(1.20154e-05 3.58541e-06 -0.000141343 4.27565e-05 7.8116e-05 0.0080043)
(9.04044e-06 -1.19354e-06 -4.10367e-05 2.4326e-05 -4.94454e-05 0.00580911)
(8.97353e-06 -3.08295e-06 7.52503e-05 1.64737e-05 4.10927e-05 0.00791055)
(3.6788e-06 5.16869e-06 7.3483e-05 3.7125e-05 7.60913e-05 0.00706909)
(1.10839e-05 2.97353e-06 -0.000135961 4.55211e-05 7.65609e-05 0.00802813)
(9.34374e-06 -1.73709e-06 -4.59559e-05 2.46202e-05 -5.16656e-05 0.00585835)
(8.28349e-06 -2.69897e-06 6.89957e-05 1.67621e-05 3.9755e-05 0.00793206)
(3.456e-06 5.128e-06 7.41848e-05 3.79084e-05 7.68162e-05 0.00704652)
(1.02023e-05 2.91407e-06 -0.000129797 4.53459e-05 7.52398e-05 0.00804834)
(9.63558e-06 -2.32465e-06 -5.03084e-05 2.48819e-05 -5.37322e-05 0.00591433)
(7.65061e-06 -2.30439e-06 6.2353e-05 1.70587e-05 3.84463e-05 0.00794671)
(3.23735e-06 5.17963e-06 7.45539e-05 3.86978e-05 7.82256e-05 0.00702089)
(9.47225e-06 3.21611e-06 -0.000122663 4.19484e-05 7.49435e-05 0.00807145)
(1.00826e-05 -2.33483e-06 -5.29132e-05 2.55377e-05 -5.20703e-05 0.00598517)
(7.04946e-06 -1.9087e-06 5.53372e-05 1.73598e-05 3.68835e-05 0.00795685)
(2.87905e-06 5.28409e-06 7.40172e-05 4.00042e-05 8.09589e-05 0.00699508)
(8.67307e-06 2.88314e-06 -0.000116226 4.23004e-05 7.35687e-05 0.00808905)
(1.04685e-05 -2.30839e-06 -5.57767e-05 2.62686e-05 -4.99447e-05 0.00605537)
(6.46788e-06 -1.52376e-06 4.81905e-05 1.76787e-05 3.50727e-05 0.00796259)
(2.28479e-06 4.8612e-06 7.28353e-05 4.23546e-05 8.21949e-05 0.00697154)
(7.77062e-06 1.90997e-06 -0.000111454 4.77757e-05 7.14748e-05 0.00808936)
(1.07366e-05 -2.63269e-06 -5.97902e-05 2.66277e-05 -5.02038e-05 0.00611848)
(5.90798e-06 -1.17472e-06 4.11106e-05 1.79137e-05 3.33128e-05 0.0079644)
(1.73609e-06 3.57017e-06 7.23969e-05 4.28674e-05 8.14445e-05 0.00693808)
(6.98707e-06 1.38814e-06 -0.000106284 5.00718e-05 7.25182e-05 0.00808619)
(1.10794e-05 -3.06837e-06 -6.43809e-05 2.68508e-05 -5.11988e-05 0.00617611)
(5.39676e-06 -8.94716e-07 3.41085e-05 1.83247e-05 3.03513e-05 0.00796919)
(1.66362e-06 2.39377e-06 7.38073e-05 3.76096e-05 8.55848e-05 0.00685706)
(6.28152e-06 1.23577e-06 -0.000100525 4.87009e-05 7.49151e-05 0.00808339)
(1.15418e-05 -3.43187e-06 -6.91978e-05 2.72074e-05 -5.15622e-05 0.00622888)
(4.96505e-06 -6.42387e-07 2.69626e-05 1.86843e-05 2.6296e-05 0.0079849)
(2.79415e-06 3.5033e-06 7.63891e-05 3.58624e-05 9.90698e-05 0.00670568)
(5.63225e-06 8.78796e-07 -9.45481e-05 4.84387e-05 7.58387e-05 0.00807797)
(1.20113e-05 -3.79234e-06 -7.401e-05 2.75643e-05 -5.15088e-05 0.00627748)
(4.61312e-06 -2.62762e-07 1.91953e-05 1.83874e-05 2.36523e-05 0.00800489)
(4.04719e-06 5.04004e-06 7.52815e-05 4.34332e-05 9.35525e-05 0.00660635)
(5.0312e-06 3.3996e-07 -8.83359e-05 4.91359e-05 7.58785e-05 0.00807079)
(1.24391e-05 -4.1083e-06 -7.88596e-05 2.76051e-05 -5.08133e-05 0.00632648)
(4.32466e-06 2.89132e-07 1.0715e-05 1.74298e-05 2.49991e-05 0.00799631)
(4.76135e-06 5.32094e-06 7.43313e-05 4.58472e-05 8.89468e-05 0.00653729)
(4.48054e-06 -2.42217e-07 -8.11796e-05 4.9674e-05 7.58947e-05 0.00807135)
(1.28588e-05 -4.23012e-06 -8.41342e-05 2.74276e-05 -4.99154e-05 0.00639042)
(4.19129e-06 5.01089e-07 2.7929e-06 1.85472e-05 2.41328e-05 0.00793874)
(4.75624e-06 5.13721e-06 7.46608e-05 4.37171e-05 9.51441e-05 0.00648812)
(4.07216e-06 -8.74035e-07 -7.17617e-05 4.94924e-05 7.55511e-05 0.00809016)
(1.32526e-05 -4.11616e-06 -9.01506e-05 2.78333e-05 -5.41321e-05 0.00648969)
(4.25621e-06 5.277e-07 -5.22288e-06 2.02261e-05 2.15181e-05 0.00789881)
(4.52058e-06 5.17317e-06 7.38705e-05 4.32623e-05 9.98979e-05 0.00644642)
(3.98165e-06 -1.54644e-06 -5.96774e-05 4.90296e-05 7.49934e-05 0.00811771)
(1.33722e-05 -4.24694e-06 -9.64794e-05 2.74381e-05 -6.36611e-05 0.00665069)
(4.44705e-06 9.7535e-07 -1.41063e-05 1.92884e-05 2.1212e-05 0.00788505)
(4.70052e-06 4.94789e-06 7.09053e-05 4.24405e-05 9.6407e-05 0.00629175)
(2.08032e-08 7.41027e-10 2.04385e-07 1.03804e-10 1.61725e-08 4.80319e-06)
(1.16674e-07 -9.68168e-11 -6.22883e-08 9.43529e-12 1.09085e-09 1.53846e-06)
(2.29599e-08 -8.55803e-10 -1.3008e-07 9.60065e-11 1.2759e-08 4.34761e-06)
(8.88938e-08 3.33653e-10 -7.08367e-08 6.77677e-12 8.03237e-11 2.37395e-06)
(7.63519e-08 4.41794e-09 8.29532e-07 5.62447e-10 5.96873e-08 1.83611e-05)
(5.89757e-07 -2.43501e-09 -4.36564e-07 4.78632e-11 7.39264e-09 1.35274e-05)
(7.88586e-08 -4.10563e-09 -4.38078e-07 4.78424e-10 4.91795e-08 2.76489e-05)
(3.87487e-07 2.15518e-09 -2.90301e-07 4.07382e-11 -1.21632e-10 1.98334e-05)
(1.06001e-07 1.02786e-08 1.07551e-06 1.94548e-09 9.99041e-08 3.34801e-05)
(9.26487e-07 -4.90283e-09 -4.83191e-07 1.50909e-10 1.83163e-08 3.75891e-05)
(9.41343e-08 -7.99303e-09 -4.90065e-07 1.86049e-09 1.1097e-07 7.08599e-05)
(5.45007e-07 3.3876e-09 -3.87795e-07 1.6001e-10 -2.57967e-09 5.44944e-05)
(1.5537e-07 1.60075e-08 1.2606e-06 3.82828e-09 1.46418e-07 5.98703e-05)
(1.26685e-06 -1.20576e-08 -1.31975e-07 3.92395e-10 4.84066e-08 7.43179e-05)
(1.22584e-07 -1.05274e-08 -5.10679e-07 3.9306e-09 2.06168e-07 0.000137256)
(7.48269e-07 4.17012e-09 -3.97882e-07 5.2517e-10 -3.75436e-09 0.00010692)
(2.28433e-07 2.16635e-08 1.615e-06 6.12256e-09 2.33207e-07 9.85825e-05)
(1.73311e-06 -1.76906e-08 3.03241e-07 6.8858e-10 8.90744e-08 0.000124053)
(1.74286e-07 -1.30391e-08 -5.68929e-07 6.49968e-09 3.4927e-07 0.000226284)
(1.07585e-06 2.28301e-09 -3.38419e-07 1.02732e-09 -5.62172e-10 0.000176746)
(3.15556e-07 2.75618e-08 2.05987e-06 9.01377e-09 3.59477e-07 0.000148427)
(2.26552e-06 -2.3835e-08 7.86336e-07 1.11112e-09 1.45383e-07 0.000186651)
(2.39549e-07 -1.59124e-08 -5.99747e-07 9.75302e-09 5.39217e-07 0.000336111)
(1.47897e-06 -1.73509e-09 -1.74653e-07 1.79225e-09 6.14535e-09 0.000263018)
(4.12889e-07 3.31277e-08 2.54479e-06 1.24997e-08 5.2127e-07 0.000208802)
(2.82561e-06 -2.96238e-08 1.285e-06 1.64573e-09 2.16434e-07 0.000261577)
(3.14479e-07 -1.89564e-08 -5.65949e-07 1.36691e-08 7.66883e-07 0.000464453)
(1.92961e-06 -8.34026e-09 1.09585e-07 2.83172e-09 1.60134e-08 0.000364321)
(5.1725e-07 3.7927e-08 3.03366e-06 1.65842e-08 7.14093e-07 0.000278921)
(3.38524e-06 -3.45804e-08 1.76726e-06 2.28956e-09 3.0121e-07 0.000347767)
(3.96122e-07 -2.20262e-08 -4.41018e-07 1.82648e-08 1.02306e-06 0.000608383)
(2.40924e-06 -1.77996e-08 5.19495e-07 4.15945e-09 2.88091e-08 0.00047874)
(6.25269e-07 4.16389e-08 3.49792e-06 2.12601e-08 9.33412e-07 0.000357686)
(3.92272e-06 -3.83371e-08 2.20301e-06 3.05821e-09 3.98482e-07 0.000443655)
(4.81549e-07 -2.50308e-08 -2.0664e-07 2.35192e-08 1.29846e-06 0.000764396)
(2.90428e-06 -3.03937e-08 1.0505e-06 5.81594e-09 4.31132e-08 0.000603917)
(7.33386e-07 4.40179e-08 3.91484e-06 2.65003e-08 1.1741e-06 0.000443705)
(4.42183e-06 -4.04163e-08 2.56872e-06 3.97248e-09 5.06333e-07 0.000547282)
(5.67877e-07 -2.789e-08 1.46356e-07 2.94032e-08 1.58323e-06 0.000928763)
(3.40429e-06 -4.63813e-08 1.68996e-06 7.84241e-09 5.77862e-08 0.000737221)
(8.38058e-07 4.4977e-08 4.26866e-06 3.22613e-08 1.43053e-06 0.00053545)
(4.8724e-06 -4.03952e-08 2.8512e-06 5.05722e-09 6.21929e-07 0.000656543)
(6.52566e-07 -3.0669e-08 6.16176e-07 3.5862e-08 1.87035e-06 0.00109807)
(3.90184e-06 -6.59936e-08 2.4217e-06 1.02892e-08 7.11654e-08 0.000876069)
(9.36107e-07 4.46435e-08 4.55265e-06 3.85537e-08 1.69859e-06 0.000631469)
(5.27019e-06 -3.78111e-08 3.04863e-06 6.35152e-09 7.42065e-07 0.000769492)
(7.337e-07 -3.34748e-08 1.19384e-06 4.27564e-08 2.15298e-06 0.00126963)
(4.39181e-06 -8.93857e-08 3.22982e-06 1.32135e-08 8.08363e-08 0.00101825)
(1.0249e-06 4.31711e-08 4.77191e-06 4.53459e-08 1.97428e-06 0.000730547)
(5.61653e-06 -3.25102e-08 3.16856e-06 7.90813e-09 8.63677e-07 0.000884551)
(8.09948e-07 -3.6391e-08 1.8709e-06 4.99982e-08 2.42684e-06 0.00144161)
(4.87321e-06 -1.16354e-07 4.10095e-06 1.66504e-08 8.62014e-08 0.00116208)
(1.10233e-06 4.07652e-08 4.93739e-06 5.26005e-08 2.25432e-06 0.000831752)
(5.91858e-06 -2.44606e-08 3.22285e-06 9.73226e-09 9.8253e-07 0.00100057)
(8.80661e-07 -3.94152e-08 2.6414e-06 5.74943e-08 2.69028e-06 0.00161314)
(5.34957e-06 -1.46716e-07 5.03431e-06 2.05961e-08 8.61732e-08 0.00130659)
(1.16696e-06 3.74786e-08 5.05682e-06 6.03217e-08 2.53915e-06 0.000934545)
(6.18418e-06 -1.31164e-08 3.23734e-06 1.18178e-08 1.09454e-06 0.00111703)
(9.45529e-07 -4.23808e-08 3.49839e-06 6.5234e-08 2.94036e-06 0.00178396)
(5.82367e-06 -1.80553e-07 6.02216e-06 2.50327e-08 7.73521e-08 0.00145137)
(1.21812e-06 3.33022e-08 5.13389e-06 6.84615e-08 2.82925e-06 0.00103857)
(6.41803e-06 1.75907e-09 3.24435e-06 1.42164e-08 1.19606e-06 0.00123384)
(1.00421e-06 -4.52149e-08 4.43618e-06 7.32927e-08 3.17507e-06 0.00195366)
(6.29841e-06 -2.18046e-07 7.04085e-06 2.99969e-08 5.67679e-08 0.00159612)
(1.25595e-06 2.8533e-08 5.17199e-06 7.70829e-08 3.12267e-06 0.00114349)
(6.62352e-06 2.01165e-08 3.26202e-06 1.70223e-08 1.28353e-06 0.00135088)
(1.05661e-06 -4.79072e-08 5.45022e-06 8.16752e-08 3.39186e-06 0.00212183)
(6.77599e-06 -2.59431e-07 8.07105e-06 3.55736e-08 2.20427e-08 0.00174045)
(1.28113e-06 2.33923e-08 5.17692e-06 8.62363e-08 3.41543e-06 0.00124902)
(6.8027e-06 4.18488e-08 3.30895e-06 2.03365e-08 1.35339e-06 0.00146788)
(1.10294e-06 -5.04494e-08 6.5344e-06 9.04206e-08 3.58805e-06 0.00228817)
(7.25649e-06 -3.04896e-07 9.10114e-06 4.18394e-08 -2.71321e-08 0.00188404)
(1.29458e-06 1.80833e-08 5.15706e-06 9.59324e-08 3.70417e-06 0.00135492)
(6.95749e-06 6.6863e-08 3.4011e-06 2.41939e-08 1.40173e-06 0.00158465)
(1.14351e-06 -5.28333e-08 7.68234e-06 9.95619e-08 3.76235e-06 0.00245243)
(7.74027e-06 -3.54449e-07 1.01228e-05 4.88058e-08 -9.11847e-08 0.0020266)
(1.29739e-06 1.2751e-08 5.1171e-06 1.0614e-07 3.98587e-06 0.00146094)
(7.09075e-06 9.5143e-08 3.54839e-06 2.86192e-08 1.4251e-06 0.00170106)
(1.17868e-06 -5.50397e-08 8.88718e-06 1.0912e-07 3.91258e-06 0.00261448)