/*--------------------------------*- C++ -*----------------------------------*\
| =========                 |                                                 |
| \\      /  F ield         | OpenFOAM: The Open Source CFD Toolbox           |
|  \\    /   O peration     | Version:  v1912                                 |
|   \\  /    A nd           | Website:  www.openfoam.com                      |
|    \\/     M anipulation  |                                                 |
\*---------------------------------------------------------------------------*/
FoamFile
{
    version     2.0;
    format      ascii;
    class       volScalarField;
    location    "198";
    object      nut;
}
// * * * * * * * * * * * * * * * * * * * * * * * * * * * * * * * * * * * * * //

dimensions      [0 2 -1 0 0 0 0];


internalField   nonuniform List<scalar> 
10147
(
9.01133e-12
1.18747e-11
1.42057e-11
1.35238e-11
1.32059e-11
1.3211e-11
1.31436e-11
1.31241e-11
1.31089e-11
1.31292e-11
1.31506e-11
1.32208e-11
1.32144e-11
1.35334e-11
1.42224e-11
1.18944e-11
1.41169e-11
1.86626e-11
2.24458e-11
2.16567e-11
2.10332e-11
2.10489e-11
2.0933e-11
2.08995e-11
2.08731e-11
2.09104e-11
2.09499e-11
2.1072e-11
2.10539e-11
2.16811e-11
2.24698e-11
1.86914e-11
1.31146e-10
1.70701e-10
1.98679e-10
2.07107e-10
2.00097e-10
2.00252e-10
1.99079e-10
1.98724e-10
1.9846e-10
1.98855e-10
1.993e-10
2.0055e-10
2.00368e-10
2.07431e-10
1.99038e-10
1.71041e-10
9.12108e-10
1.16488e-09
1.33587e-09
1.42048e-09
1.37306e-09
1.37358e-09
1.36568e-09
1.36315e-09
1.3614e-09
1.36405e-09
1.36721e-09
1.37564e-09
1.37494e-09
1.42273e-09
1.33851e-09
1.16729e-09
3.86165e-09
4.83073e-09
5.46903e-09
5.87679e-09
5.68786e-09
5.6878e-09
5.65622e-09
5.64558e-09
5.63877e-09
5.6492e-09
5.66244e-09
5.69613e-09
5.69552e-09
5.88591e-09
5.48003e-09
4.84056e-09
1.17512e-08
1.43754e-08
1.60489e-08
1.73847e-08
1.68537e-08
1.68483e-08
1.67597e-08
1.67285e-08
1.67097e-08
1.67387e-08
1.67774e-08
1.6872e-08
1.68756e-08
1.74107e-08
1.60807e-08
1.44035e-08
2.84342e-08
3.39965e-08
3.73762e-08
4.07701e-08
3.9601e-08
3.95819e-08
3.93884e-08
3.93183e-08
3.92776e-08
3.93409e-08
3.94279e-08
3.96346e-08
3.96497e-08
4.08282e-08
3.7448e-08
3.4059e-08
5.81626e-08
6.79873e-08
7.35288e-08
8.07179e-08
7.85688e-08
7.85336e-08
7.81848e-08
7.80572e-08
7.79835e-08
7.80987e-08
7.82579e-08
7.8631e-08
7.86588e-08
8.0826e-08
7.36634e-08
6.8103e-08
1.04735e-07
1.19753e-07
1.27307e-07
1.40602e-07
1.37167e-07
1.37139e-07
1.36601e-07
1.36407e-07
1.36291e-07
1.36473e-07
1.36718e-07
1.37295e-07
1.3731e-07
1.40777e-07
1.27526e-07
1.19939e-07
1.70852e-07
1.91155e-07
1.99655e-07
2.21838e-07
2.16921e-07
2.16979e-07
2.16252e-07
2.16004e-07
2.15839e-07
2.16097e-07
2.16419e-07
2.17201e-07
2.17125e-07
2.22092e-07
1.99975e-07
1.91421e-07
2.57902e-07
2.82414e-07
2.89744e-07
3.23973e-07
3.17534e-07
3.17833e-07
3.16967e-07
3.16706e-07
3.16491e-07
3.16826e-07
3.17183e-07
3.18122e-07
3.17796e-07
3.24309e-07
2.90174e-07
2.82759e-07
3.66158e-07
3.925e-07
3.95513e-07
4.45288e-07
4.37443e-07
4.38245e-07
4.37342e-07
4.37144e-07
4.36881e-07
4.37287e-07
4.376e-07
4.3859e-07
4.37753e-07
4.45703e-07
3.96052e-07
3.92914e-07
4.95199e-07
5.19686e-07
5.07333e-07
5.83474e-07
5.74486e-07
5.76175e-07
5.75398e-07
5.75376e-07
5.75073e-07
5.75534e-07
5.75684e-07
5.7656e-07
5.74825e-07
5.83957e-07
5.07899e-07
5.20151e-07
6.44317e-07
6.62088e-07
6.21342e-07
7.28178e-07
7.21107e-07
7.26937e-07
7.2791e-07
7.29087e-07
7.2888e-07
7.29183e-07
7.28081e-07
7.27185e-07
7.21307e-07
7.28616e-07
6.21984e-07
6.62577e-07
8.12789e-07
8.10187e-07
7.44282e-07
8.80314e-07
8.73442e-07
8.82602e-07
8.84696e-07
8.86747e-07
8.86566e-07
8.86813e-07
8.848e-07
8.82774e-07
8.73555e-07
8.80744e-07
7.44995e-07
8.10455e-07
1e-06
9.67331e-07
8.76576e-07
1.0455e-06
1.03897e-06
1.05242e-06
1.05593e-06
1.05912e-06
1.05897e-06
1.05914e-06
1.05594e-06
1.05248e-06
1.03895e-06
1.0459e-06
8.7735e-07
9.67497e-07
1.20546e-06
1.13791e-06
1.0182e-06
1.22462e-06
1.21886e-06
1.23815e-06
1.24361e-06
1.24834e-06
1.24823e-06
1.2483e-06
1.24346e-06
1.23803e-06
1.21865e-06
1.22493e-06
1.01901e-06
1.13795e-06
1.42875e-06
1.32293e-06
1.16916e-06
1.41803e-06
1.41366e-06
1.44076e-06
1.44882e-06
1.45555e-06
1.4555e-06
1.45542e-06
1.44846e-06
1.44038e-06
1.41316e-06
1.41819e-06
1.17e-06
1.32279e-06
1.66922e-06
1.52304e-06
1.32961e-06
1.62608e-06
1.62387e-06
1.66087e-06
1.67211e-06
1.68047e-06
1.68043e-06
1.68028e-06
1.67146e-06
1.66016e-06
1.62296e-06
1.62601e-06
1.33043e-06
1.52267e-06
1.92674e-06
1.7389e-06
1.49983e-06
1.84909e-06
1.84984e-06
1.89662e-06
1.91e-06
1.91514e-06
1.91472e-06
1.91518e-06
1.90918e-06
1.8957e-06
1.84845e-06
1.84867e-06
1.5006e-06
1.73823e-06
2.20132e-06
1.97101e-06
1.68031e-06
2.08657e-06
2.09052e-06
2.13361e-06
2.13945e-06
2.14501e-06
2.1446e-06
2.14498e-06
2.13944e-06
2.13364e-06
2.08882e-06
2.08575e-06
1.68098e-06
1.97e-06
2.49296e-06
2.21852e-06
1.87169e-06
2.33384e-06
2.33816e-06
2.36657e-06
2.37424e-06
2.38122e-06
2.38086e-06
2.38111e-06
2.37411e-06
2.36644e-06
2.33772e-06
2.33282e-06
1.87219e-06
2.21732e-06
2.8016e-06
2.475e-06
2.07426e-06
2.56864e-06
2.57038e-06
2.60438e-06
2.61411e-06
2.62282e-06
2.62257e-06
2.62262e-06
2.61384e-06
2.60406e-06
2.56969e-06
2.56894e-06
2.07456e-06
2.47461e-06
3.12575e-06
2.72103e-06
2.28538e-06
2.80036e-06
2.80702e-06
2.84719e-06
2.85936e-06
2.87003e-06
2.86992e-06
2.86973e-06
2.85892e-06
2.84667e-06
2.80605e-06
2.80053e-06
2.2856e-06
2.72036e-06
3.46475e-06
2.97396e-06
2.4882e-06
3.03466e-06
3.04725e-06
3.09434e-06
3.10942e-06
3.12226e-06
3.1223e-06
3.12183e-06
3.10875e-06
3.09355e-06
3.04596e-06
3.03467e-06
2.48907e-06
2.97301e-06
3.81785e-06
3.23384e-06
2.66628e-06
3.27075e-06
3.29019e-06
3.34525e-06
3.3637e-06
3.37891e-06
3.37914e-06
3.37835e-06
3.36277e-06
3.34414e-06
3.28855e-06
3.27055e-06
2.66704e-06
3.23257e-06
4.1842e-06
3.50027e-06
2.84407e-06
3.50819e-06
3.53512e-06
3.59938e-06
3.62162e-06
3.63949e-06
3.63992e-06
3.63879e-06
3.62041e-06
3.59792e-06
3.53308e-06
3.50775e-06
2.84468e-06
3.49866e-06
4.56288e-06
3.77283e-06
3.02146e-06
3.74656e-06
3.78163e-06
3.85622e-06
3.88265e-06
3.90348e-06
3.90416e-06
3.90262e-06
3.88113e-06
3.85438e-06
3.77915e-06
3.74584e-06
3.02191e-06
3.77086e-06
4.95292e-06
4.05111e-06
3.19843e-06
3.98542e-06
4.02931e-06
4.11529e-06
4.14629e-06
4.17036e-06
4.17133e-06
4.16932e-06
4.14444e-06
4.11304e-06
4.02635e-06
3.98438e-06
3.19867e-06
4.04876e-06
5.35329e-06
4.33466e-06
3.37502e-06
4.22432e-06
4.27773e-06
4.37611e-06
4.41204e-06
4.4396e-06
4.44092e-06
4.43839e-06
4.40985e-06
4.37343e-06
4.27425e-06
4.22293e-06
3.37505e-06
4.33192e-06
5.76291e-06
4.62303e-06
3.55136e-06
4.46283e-06
4.52645e-06
4.63819e-06
4.67942e-06
4.71071e-06
4.71241e-06
4.70932e-06
4.67686e-06
4.63505e-06
4.52242e-06
4.46105e-06
3.55114e-06
4.6199e-06
6.18069e-06
4.91578e-06
3.72763e-06
4.70052e-06
4.77504e-06
4.90104e-06
4.94791e-06
4.98316e-06
4.98528e-06
4.98158e-06
4.94497e-06
4.89743e-06
4.77043e-06
4.69832e-06
3.72714e-06
4.91225e-06
6.60551e-06
5.21241e-06
3.90406e-06
4.937e-06
5.02308e-06
5.16416e-06
5.21698e-06
5.2564e-06
5.25898e-06
5.25464e-06
5.21365e-06
5.16005e-06
5.01785e-06
4.93435e-06
3.90328e-06
5.20848e-06
7.03624e-06
5.5124e-06
4.08096e-06
5.1719e-06
5.27014e-06
5.42702e-06
5.48609e-06
5.52988e-06
5.53295e-06
5.52792e-06
5.48236e-06
5.4224e-06
5.26428e-06
5.16878e-06
4.07986e-06
5.50809e-06
7.47168e-06
5.81519e-06
4.25866e-06
5.40493e-06
5.51588e-06
5.6891e-06
5.75468e-06
5.803e-06
5.8066e-06
5.80086e-06
5.75054e-06
5.68396e-06
5.50938e-06
5.40132e-06
4.25723e-06
5.8105e-06
7.91055e-06
6.12028e-06
4.43754e-06
5.63583e-06
5.75999e-06
5.9499e-06
6.02219e-06
6.07516e-06
6.07933e-06
6.07284e-06
6.01764e-06
5.94423e-06
5.75285e-06
5.63171e-06
4.43575e-06
6.11523e-06
8.35158e-06
6.42731e-06
4.61798e-06
5.8644e-06
6.00221e-06
6.20891e-06
6.28805e-06
6.34577e-06
6.35054e-06
6.34326e-06
6.2831e-06
6.20272e-06
5.99445e-06
5.85975e-06
4.61581e-06
6.42194e-06
8.79348e-06
6.73601e-06
4.80035e-06
6.0905e-06
6.24236e-06
6.46567e-06
6.55173e-06
6.6142e-06
6.6196e-06
6.61152e-06
6.54639e-06
6.45898e-06
6.23398e-06
6.0853e-06
4.7978e-06
6.73033e-06
9.23495e-06
7.04614e-06
4.98502e-06
6.31405e-06
6.48024e-06
6.71976e-06
6.8127e-06
6.87987e-06
6.88593e-06
6.87702e-06
6.80699e-06
6.71259e-06
6.47126e-06
6.30831e-06
4.98207e-06
7.04018e-06
9.67473e-06
7.35754e-06
5.17228e-06
6.53496e-06
6.71568e-06
6.97073e-06
7.07043e-06
7.14214e-06
7.1489e-06
7.13914e-06
7.06439e-06
6.96312e-06
6.70612e-06
6.52869e-06
5.16892e-06
7.35132e-06
1.01116e-05
7.67008e-06
5.36239e-06
6.75284e-06
6.94834e-06
7.21802e-06
7.32427e-06
7.4003e-06
7.40778e-06
7.39717e-06
7.31793e-06
7.21e-06
6.93823e-06
6.74608e-06
5.35862e-06
7.66364e-06
1.05442e-05
7.98369e-06
5.55554e-06
6.96706e-06
7.17754e-06
7.46119e-06
7.57381e-06
7.65389e-06
7.66213e-06
7.65065e-06
7.5672e-06
7.4528e-06
7.16693e-06
6.95985e-06
5.55134e-06
7.97705e-06
1.09713e-05
8.29838e-06
5.75181e-06
7.17698e-06
7.40257e-06
7.69958e-06
7.81843e-06
7.90243e-06
7.91143e-06
7.89907e-06
7.81159e-06
7.69083e-06
7.3915e-06
7.16932e-06
5.74719e-06
8.29157e-06
1.13917e-05
8.61417e-06
5.95122e-06
7.38207e-06
7.62277e-06
7.93255e-06
8.05734e-06
8.14496e-06
8.15475e-06
8.1415e-06
8.0503e-06
7.92348e-06
7.6113e-06
7.37397e-06
5.94618e-06
8.60722e-06
1.18039e-05
8.93118e-06
6.15366e-06
7.58219e-06
7.8378e-06
8.1596e-06
8.28977e-06
8.38032e-06
8.39094e-06
8.37679e-06
8.28257e-06
8.15031e-06
7.82604e-06
7.57373e-06
6.14821e-06
8.92411e-06
1.22064e-05
9.24961e-06
6.35895e-06
7.77743e-06
8.04771e-06
8.38015e-06
8.51456e-06
8.6067e-06
8.61816e-06
8.60311e-06
8.5073e-06
8.37072e-06
8.0358e-06
7.76869e-06
6.35311e-06
9.24244e-06
1.25975e-05
9.5698e-06
6.56681e-06
7.96787e-06
8.25268e-06
8.59309e-06
8.73053e-06
8.82391e-06
8.83622e-06
8.82029e-06
8.72325e-06
8.58364e-06
8.24072e-06
7.95895e-06
6.56059e-06
9.56254e-06
1.28593e-05
9.89222e-06
6.77687e-06
8.15344e-06
8.45261e-06
8.79727e-06
8.93747e-06
9.03178e-06
9.04493e-06
9.02814e-06
8.93024e-06
8.78787e-06
8.44072e-06
8.14441e-06
6.77031e-06
9.88487e-06
1.30153e-05
1.02175e-05
6.98905e-06
8.3337e-06
8.64679e-06
8.99244e-06
9.13515e-06
9.23007e-06
9.24406e-06
9.22644e-06
9.12801e-06
8.98315e-06
8.63504e-06
8.32464e-06
6.98217e-06
1.02101e-05
1.31142e-05
1.05463e-05
7.20327e-06
8.5079e-06
8.83371e-06
9.17823e-06
9.32318e-06
9.41839e-06
9.43323e-06
9.41479e-06
9.31618e-06
9.16911e-06
8.82215e-06
8.49887e-06
7.19607e-06
1.05388e-05
1.3181e-05
1.08762e-05
7.41899e-06
8.67543e-06
9.01188e-06
9.35422e-06
9.50112e-06
9.59627e-06
9.61194e-06
9.59272e-06
9.49431e-06
9.34535e-06
9.00061e-06
8.66656e-06
7.41151e-06
1.08686e-05
1.32298e-05
1.1202e-05
7.63558e-06
8.83662e-06
9.18112e-06
9.52012e-06
9.66862e-06
9.76333e-06
9.77982e-06
9.75986e-06
9.66208e-06
9.51158e-06
9.17031e-06
8.82805e-06
7.62785e-06
1.11945e-05
1.32681e-05
1.14829e-05
7.85239e-06
8.99052e-06
9.34333e-06
9.67591e-06
9.8257e-06
9.91959e-06
9.93688e-06
9.91623e-06
9.81952e-06
9.66782e-06
9.33316e-06
8.98216e-06
7.84445e-06
1.14786e-05
1.33007e-05
1.17701e-05
8.06893e-06
9.13537e-06
9.4976e-06
9.82202e-06
9.97292e-06
1.00659e-05
1.0084e-05
1.00627e-05
9.96719e-06
9.81448e-06
9.48802e-06
9.12713e-06
8.06081e-06
1.17679e-05
1.33321e-05
1.20857e-05
8.28488e-06
9.2698e-06
9.64203e-06
9.95843e-06
1.01114e-05
1.02037e-05
1.02226e-05
1.02007e-05
1.01062e-05
9.95147e-06
9.63296e-06
9.26167e-06
8.27665e-06
1.20852e-05
1.33671e-05
1.24281e-05
8.5002e-06
9.39359e-06
9.77513e-06
1.00869e-05
1.02408e-05
1.03333e-05
1.03532e-05
1.03304e-05
1.0236e-05
1.00804e-05
9.76658e-06
9.38565e-06
8.49191e-06
1.24273e-05
1.34097e-05
1.27402e-05
8.7151e-06
9.50765e-06
9.89661e-06
1.02051e-05
1.03613e-05
1.04535e-05
1.04746e-05
1.04508e-05
1.03569e-05
1.01991e-05
9.88867e-06
9.50002e-06
8.70683e-06
1.27325e-05
1.34664e-05
1.30237e-05
8.92991e-06
9.61372e-06
1.00076e-05
1.03125e-05
1.04714e-05
1.05637e-05
1.05862e-05
1.05612e-05
1.04675e-05
1.03071e-05
1.00004e-05
9.60656e-06
8.92173e-06
1.3016e-05
1.35506e-05
1.32979e-05
9.14497e-06
9.71408e-06
1.011e-05
1.04106e-05
1.05717e-05
1.0664e-05
1.06878e-05
1.06617e-05
1.05683e-05
1.04059e-05
1.01037e-05
9.70754e-06
9.13695e-06
1.32903e-05
1.36889e-05
1.35623e-05
9.3606e-06
9.81137e-06
1.02063e-05
1.05018e-05
1.06643e-05
1.07563e-05
1.07813e-05
1.07543e-05
1.06616e-05
1.04981e-05
1.02011e-05
9.80561e-06
9.35284e-06
1.35548e-05
1.39279e-05
1.38163e-05
9.57714e-06
9.90851e-06
1.02997e-05
1.059e-05
1.07526e-05
1.08439e-05
1.08698e-05
1.08422e-05
1.07506e-05
1.05873e-05
1.02957e-05
9.90367e-06
9.56972e-06
1.38088e-05
1.43345e-05
1.40587e-05
9.7948e-06
1.00085e-05
1.03917e-05
1.06731e-05
1.08345e-05
1.0925e-05
1.09515e-05
1.09236e-05
1.08332e-05
1.06713e-05
1.03891e-05
1.00047e-05
9.78782e-06
1.40512e-05
1.49789e-05
1.42879e-05
1.00137e-05
1.01145e-05
1.04849e-05
1.07549e-05
1.09136e-05
1.10022e-05
1.1029e-05
1.10012e-05
1.09132e-05
1.07543e-05
1.04837e-05
1.01119e-05
1.00072e-05
1.42804e-05
1.58821e-05
1.4502e-05
1.02336e-05
1.02295e-05
1.05826e-05
1.08391e-05
1.09937e-05
1.10794e-05
1.11064e-05
1.10789e-05
1.09941e-05
1.08397e-05
1.0583e-05
1.02283e-05
1.02278e-05
1.44946e-05
1.68857e-05
1.46991e-05
1.04542e-05
1.03564e-05
1.06885e-05
1.09294e-05
1.10784e-05
1.11606e-05
1.11873e-05
1.11605e-05
1.10799e-05
1.09314e-05
1.06907e-05
1.03568e-05
1.04491e-05
1.46918e-05
1.73946e-05
1.48775e-05
1.06746e-05
1.0497e-05
1.08059e-05
1.10293e-05
1.11715e-05
1.12494e-05
1.12756e-05
1.12499e-05
1.11741e-05
1.10328e-05
1.08098e-05
1.04988e-05
1.06703e-05
1.48703e-05
1.74695e-05
1.50357e-05
1.08939e-05
1.06503e-05
1.09376e-05
1.11423e-05
1.12765e-05
1.13494e-05
1.13747e-05
1.13505e-05
1.12801e-05
1.11474e-05
1.09433e-05
1.06534e-05
1.08904e-05
1.50287e-05
1.7521e-05
1.51725e-05
1.11106e-05
1.08087e-05
1.10835e-05
1.12718e-05
1.13969e-05
1.14643e-05
1.14885e-05
1.1466e-05
1.14017e-05
1.12785e-05
1.10904e-05
1.08123e-05
1.1108e-05
1.51657e-05
1.75493e-05
1.52862e-05
1.13234e-05
1.09682e-05
1.12361e-05
1.14184e-05
1.15329e-05
1.15935e-05
1.16162e-05
1.15958e-05
1.15388e-05
1.14263e-05
1.12434e-05
1.09722e-05
1.13218e-05
1.52795e-05
1.75552e-05
1.53744e-05
1.15306e-05
1.11285e-05
1.13877e-05
1.15732e-05
1.16812e-05
1.17354e-05
1.17563e-05
1.17382e-05
1.16877e-05
1.15813e-05
1.1395e-05
1.11332e-05
1.15301e-05
1.53678e-05
1.75387e-05
1.54342e-05
1.17304e-05
1.12896e-05
1.15361e-05
1.17228e-05
1.18279e-05
1.18802e-05
1.18995e-05
1.1883e-05
1.18341e-05
1.17306e-05
1.15433e-05
1.12952e-05
1.1731e-05
1.54278e-05
1.74994e-05
1.54632e-05
1.19206e-05
1.14511e-05
1.16804e-05
1.1862e-05
1.19609e-05
1.20121e-05
1.20295e-05
1.20146e-05
1.19666e-05
1.18697e-05
1.16875e-05
1.14577e-05
1.19224e-05
1.54571e-05
1.74361e-05
1.54598e-05
1.20993e-05
1.16118e-05
1.18197e-05
1.19906e-05
1.20795e-05
1.21266e-05
1.21419e-05
1.2129e-05
1.20849e-05
1.19981e-05
1.18267e-05
1.16195e-05
1.21023e-05
1.5454e-05
1.7347e-05
1.54229e-05
1.22641e-05
1.17702e-05
1.19534e-05
1.21089e-05
1.21852e-05
1.22255e-05
1.22385e-05
1.22279e-05
1.21905e-05
1.21165e-05
1.19614e-05
1.17789e-05
1.22683e-05
1.54176e-05
1.72285e-05
1.53518e-05
1.24127e-05
1.19239e-05
1.20824e-05
1.22172e-05
1.22786e-05
1.23103e-05
1.23206e-05
1.23127e-05
1.22839e-05
1.22249e-05
1.20913e-05
1.19336e-05
1.24182e-05
1.53471e-05
1.70719e-05
1.52466e-05
1.2543e-05
1.20704e-05
1.22048e-05
1.23151e-05
1.236e-05
1.23813e-05
1.23888e-05
1.23838e-05
1.23655e-05
1.23231e-05
1.22145e-05
1.20811e-05
1.25497e-05
1.52426e-05
1.68668e-05
1.5108e-05
1.26514e-05
1.22064e-05
1.23181e-05
1.24016e-05
1.24287e-05
1.24388e-05
1.24433e-05
1.24414e-05
1.24344e-05
1.24099e-05
1.23284e-05
1.22181e-05
1.26593e-05
1.51049e-05
1.66099e-05
1.49376e-05
1.27368e-05
1.23285e-05
1.24202e-05
1.24763e-05
1.24851e-05
1.24826e-05
1.24841e-05
1.24853e-05
1.24911e-05
1.24849e-05
1.24311e-05
1.23409e-05
1.27458e-05
1.49354e-05
1.63034e-05
1.47377e-05
1.27985e-05
1.24339e-05
1.25084e-05
1.25377e-05
1.25282e-05
1.25125e-05
1.25109e-05
1.25154e-05
1.25344e-05
1.25466e-05
1.25198e-05
1.24471e-05
1.28086e-05
1.47366e-05
1.64022e-11
1.29531e-11
1.07443e-11
1.16719e-11
1.18546e-11
1.19544e-11
1.19866e-11
1.20079e-11
1.20035e-11
1.20144e-11
1.20011e-11
1.19729e-11
1.18727e-11
1.16892e-11
1.0756e-11
1.29609e-11
3.08964e-11
2.24526e-11
1.82747e-11
2.04816e-11
2.09458e-11
2.14034e-11
2.15671e-11
2.16815e-11
2.16818e-11
2.16957e-11
2.15972e-11
2.14418e-11
2.098e-11
2.05164e-11
1.83003e-11
2.24637e-11
3.42221e-10
2.3477e-10
1.89213e-10
2.17418e-10
2.23605e-10
2.31068e-10
2.338e-10
2.35725e-10
2.35807e-10
2.35898e-10
2.34154e-10
2.31522e-10
2.2398e-10
2.1782e-10
1.8953e-10
2.3486e-10
2.36353e-09
1.63983e-09
1.33368e-09
1.52817e-09
1.57125e-09
1.62432e-09
1.64379e-09
1.65751e-09
1.65814e-09
1.65869e-09
1.6462e-09
1.62741e-09
1.57377e-09
1.53091e-09
1.33589e-09
1.64042e-09
9.71022e-09
6.85933e-09
5.6482e-09
6.43552e-09
6.61078e-09
6.83046e-09
6.91115e-09
6.96805e-09
6.97079e-09
6.97276e-09
6.92071e-09
6.84277e-09
6.62071e-09
6.44642e-09
5.65719e-09
6.86152e-09
2.84047e-08
2.04536e-08
1.70852e-08
1.93419e-08
1.98447e-08
2.04897e-08
2.07267e-08
2.08946e-08
2.09029e-08
2.09077e-08
2.07533e-08
2.0524e-08
1.98719e-08
1.93723e-08
1.7111e-08
2.04591e-08
6.56727e-08
4.8179e-08
4.0864e-08
4.59545e-08
4.70843e-08
4.85772e-08
4.91255e-08
4.95171e-08
4.95367e-08
4.95455e-08
4.91827e-08
4.86513e-08
4.71421e-08
4.60203e-08
4.09214e-08
4.81891e-08
1.27822e-07
9.54292e-08
8.21943e-08
9.18295e-08
9.395e-08
9.68502e-08
9.7915e-08
9.86836e-08
9.87223e-08
9.87343e-08
9.80169e-08
9.69823e-08
9.40508e-08
9.19474e-08
8.23006e-08
9.54425e-08
2.18375e-07
1.65716e-07
1.44881e-07
1.60848e-07
1.64319e-07
1.69251e-07
1.71062e-07
1.72385e-07
1.72452e-07
1.72463e-07
1.71219e-07
1.69454e-07
1.64469e-07
1.6103e-07
1.45051e-07
1.65726e-07
3.37541e-07
2.60005e-07
2.30556e-07
2.5445e-07
2.59567e-07
2.67143e-07
2.6993e-07
2.7199e-07
2.72094e-07
2.72098e-07
2.70145e-07
2.67422e-07
2.59766e-07
2.54702e-07
2.30801e-07
2.60002e-07
4.83043e-07
3.77099e-07
3.38826e-07
3.71903e-07
3.78869e-07
3.89647e-07
3.9362e-07
3.96594e-07
3.96744e-07
3.96729e-07
3.93889e-07
3.89997e-07
3.79106e-07
3.72222e-07
3.3915e-07
3.77065e-07
6.51408e-07
5.14537e-07
4.68009e-07
5.11164e-07
5.2009e-07
5.34565e-07
5.39915e-07
5.4397e-07
5.44175e-07
5.44127e-07
5.40227e-07
5.34971e-07
5.20346e-07
5.11539e-07
4.68411e-07
5.14452e-07
8.381e-07
6.69467e-07
6.15919e-07
6.69709e-07
6.80634e-07
6.99243e-07
7.06145e-07
7.11443e-07
7.11709e-07
7.11613e-07
7.06485e-07
6.99687e-07
6.80885e-07
6.70125e-07
6.16393e-07
6.69306e-07
1.02827e-06
8.35874e-07
7.80396e-07
8.45052e-07
8.57951e-07
8.81084e-07
8.89696e-07
8.96393e-07
8.96727e-07
8.96567e-07
8.90045e-07
8.81539e-07
8.58168e-07
8.4549e-07
7.80937e-07
8.35538e-07
1.23245e-06
1.00607e-06
9.59538e-07
1.03437e-06
1.04828e-06
1.07615e-06
1.08666e-06
1.09533e-06
1.09565e-06
1.09543e-06
1.08689e-06
1.07644e-06
1.04828e-06
1.03469e-06
9.60136e-07
1.0056e-06
1.45073e-06
1.18724e-06
1.14965e-06
1.22589e-06
1.24155e-06
1.27395e-06
1.28638e-06
1.29676e-06
1.29714e-06
1.29682e-06
1.28656e-06
1.27418e-06
1.24142e-06
1.22618e-06
1.15019e-06
1.18664e-06
1.68141e-06
1.37944e-06
1.34338e-06
1.42728e-06
1.44478e-06
1.48167e-06
1.49612e-06
1.5082e-06
1.50866e-06
1.50822e-06
1.49623e-06
1.48183e-06
1.44453e-06
1.42752e-06
1.34394e-06
1.37869e-06
1.92221e-06
1.58166e-06
1.54617e-06
1.63874e-06
1.65804e-06
1.69938e-06
1.71591e-06
1.72973e-06
1.73029e-06
1.72969e-06
1.71595e-06
1.69945e-06
1.65764e-06
1.63893e-06
1.54675e-06
1.58075e-06
2.17055e-06
1.79266e-06
1.75809e-06
1.85924e-06
1.88022e-06
1.92579e-06
1.94438e-06
1.95987e-06
1.96055e-06
1.95977e-06
1.94434e-06
1.92574e-06
1.87966e-06
1.85937e-06
1.75867e-06
1.79158e-06
2.42373e-06
2.01118e-06
1.97823e-06
2.08754e-06
2.10998e-06
2.15914e-06
2.17964e-06
2.19668e-06
2.19749e-06
2.1965e-06
2.17951e-06
2.15896e-06
2.10923e-06
2.08759e-06
1.97881e-06
2.00993e-06
2.67912e-06
2.23599e-06
2.20566e-06
2.32219e-06
2.3457e-06
2.3974e-06
2.41959e-06
2.43803e-06
2.43901e-06
2.43777e-06
2.41938e-06
2.3971e-06
2.34476e-06
2.32217e-06
2.20622e-06
2.23456e-06
2.9344e-06
2.46578e-06
2.43955e-06
2.56145e-06
2.58547e-06
2.63853e-06
2.66222e-06
2.6819e-06
2.68306e-06
2.68154e-06
2.66192e-06
2.6381e-06
2.58437e-06
2.56137e-06
2.44008e-06
2.46418e-06
3.18773e-06
2.69899e-06
2.67906e-06
2.8034e-06
2.82735e-06
2.88067e-06
2.90567e-06
2.92641e-06
2.92778e-06
2.92595e-06
2.90527e-06
2.88011e-06
2.82608e-06
2.8033e-06
2.67956e-06
2.69724e-06
3.43788e-06
2.93396e-06
2.92283e-06
3.04624e-06
3.06953e-06
3.12209e-06
3.14821e-06
3.16982e-06
3.17142e-06
3.16924e-06
3.1477e-06
3.12139e-06
3.0681e-06
3.04612e-06
2.9233e-06
2.93208e-06
3.68442e-06
3.16904e-06
3.16907e-06
3.28855e-06
3.31059e-06
3.36145e-06
3.38849e-06
3.41075e-06
3.41261e-06
3.41005e-06
3.38786e-06
3.36058e-06
3.30899e-06
3.28841e-06
3.16952e-06
3.16706e-06
3.92752e-06
3.40306e-06
3.41606e-06
3.52923e-06
3.5494e-06
3.59764e-06
3.6254e-06
3.64811e-06
3.65024e-06
3.64727e-06
3.62464e-06
3.59662e-06
3.54763e-06
3.52908e-06
3.41651e-06
3.401e-06
4.16723e-06
3.63498e-06
3.6624e-06
3.76743e-06
3.78505e-06
3.82987e-06
3.85814e-06
3.88108e-06
3.8835e-06
3.8801e-06
3.85723e-06
3.82867e-06
3.78311e-06
3.76725e-06
3.66285e-06
3.63287e-06
4.40073e-06
3.86398e-06
3.90706e-06
4.00253e-06
4.01692e-06
4.05761e-06
4.08618e-06
4.10916e-06
4.11188e-06
4.10803e-06
4.08512e-06
4.05623e-06
4.01479e-06
4.00232e-06
3.90751e-06
3.86184e-06
4.61417e-06
4.08942e-06
4.14924e-06
4.23417e-06
4.24459e-06
4.28059e-06
4.30928e-06
4.33212e-06
4.33515e-06
4.33085e-06
4.30806e-06
4.27902e-06
4.24226e-06
4.23391e-06
4.1497e-06
4.08729e-06
4.80227e-06
4.31091e-06
4.38835e-06
4.4622e-06
4.46792e-06
4.49881e-06
4.52744e-06
4.54999e-06
4.55333e-06
4.54857e-06
4.52604e-06
4.49702e-06
4.46536e-06
4.46187e-06
4.38882e-06
4.30879e-06
4.97631e-06
4.52827e-06
4.62399e-06
4.68665e-06
4.68694e-06
4.71245e-06
4.74087e-06
4.76301e-06
4.76665e-06
4.76143e-06
4.73927e-06
4.71044e-06
4.68413e-06
4.68623e-06
4.62447e-06
4.5262e-06
5.13556e-06
4.74164e-06
4.85592e-06
4.90773e-06
4.90187e-06
4.92188e-06
4.94996e-06
4.9716e-06
4.97553e-06
4.96985e-06
4.94815e-06
4.91963e-06
4.89878e-06
4.9072e-06
4.85642e-06
4.73965e-06
5.27953e-06
4.95147e-06
5.08406e-06
5.12578e-06
5.11307e-06
5.12763e-06
5.15526e-06
5.17634e-06
5.18055e-06
5.17442e-06
5.15322e-06
5.12511e-06
5.10967e-06
5.12512e-06
5.08458e-06
4.94957e-06
5.40789e-06
5.15852e-06
5.30848e-06
5.34124e-06
5.321e-06
5.33032e-06
5.35742e-06
5.37792e-06
5.38239e-06
5.37583e-06
5.35514e-06
5.32751e-06
5.31726e-06
5.3404e-06
5.30902e-06
5.15673e-06
5.52052e-06
5.36394e-06
5.52938e-06
5.5546e-06
5.52623e-06
5.53067e-06
5.55722e-06
5.57715e-06
5.58186e-06
5.57489e-06
5.55466e-06
5.52754e-06
5.52211e-06
5.55356e-06
5.52996e-06
5.36228e-06
5.61748e-06
5.56931e-06
5.74711e-06
5.76642e-06
5.72938e-06
5.72948e-06
5.75548e-06
5.77493e-06
5.77984e-06
5.77249e-06
5.75262e-06
5.726e-06
5.72483e-06
5.76514e-06
5.74772e-06
5.56781e-06
5.69902e-06
5.77656e-06
5.9621e-06
5.97727e-06
5.93113e-06
5.92764e-06
5.95315e-06
5.97227e-06
5.97734e-06
5.96963e-06
5.94998e-06
5.92377e-06
5.92612e-06
5.97572e-06
5.96275e-06
5.77523e-06
5.76553e-06
5.98763e-06
6.17493e-06
6.18777e-06
6.13228e-06
6.1262e-06
6.15136e-06
6.17034e-06
6.17552e-06
6.1675e-06
6.14782e-06
6.1219e-06
6.12677e-06
6.18592e-06
6.17562e-06
5.98652e-06
5.81762e-06
6.2037e-06
6.38627e-06
6.39863e-06
6.33379e-06
6.32647e-06
6.35147e-06
6.3706e-06
6.37584e-06
6.36756e-06
6.34754e-06
6.32169e-06
6.32774e-06
6.39645e-06
6.387e-06
6.20284e-06
5.85601e-06
6.42275e-06
6.59693e-06
6.61082e-06
6.53701e-06
6.53025e-06
6.55535e-06
6.57499e-06
6.58021e-06
6.57174e-06
6.55099e-06
6.52493e-06
6.53038e-06
6.60828e-06
6.59771e-06
6.42222e-06
5.88161e-06
6.63386e-06
6.80782e-06
6.82587e-06
6.74395e-06
6.74006e-06
6.7655e-06
6.78605e-06
6.79115e-06
6.78259e-06
6.76068e-06
6.73416e-06
6.7367e-06
6.82293e-06
6.80864e-06
6.63385e-06
5.89545e-06
6.80047e-06
7.01994e-06
7.04632e-06
6.95765e-06
6.95925e-06
6.98507e-06
7.00683e-06
7.01168e-06
7.00317e-06
6.97979e-06
6.95277e-06
6.94975e-06
7.04295e-06
7.0208e-06
6.80145e-06
5.89873e-06
6.9483e-06
7.23441e-06
7.27608e-06
7.18223e-06
7.19125e-06
7.21682e-06
7.23962e-06
7.2441e-06
7.23582e-06
7.21116e-06
7.18428e-06
7.17366e-06
7.27223e-06
7.23532e-06
6.94969e-06
5.89276e-06
7.08958e-06
7.45241e-06
7.52013e-06
7.4219e-06
7.43664e-06
7.4595e-06
7.48185e-06
7.48589e-06
7.47808e-06
7.45381e-06
7.42961e-06
7.41283e-06
7.5158e-06
7.45338e-06
7.0914e-06
5.87899e-06
7.22436e-06
7.675e-06
7.78287e-06
7.67797e-06
7.68623e-06
7.69973e-06
7.7168e-06
7.72056e-06
7.71346e-06
7.69494e-06
7.68036e-06
7.66896e-06
7.77821e-06
7.67604e-06
7.22663e-06
5.85901e-06
7.35267e-06
7.90324e-06
8.06354e-06
7.94175e-06
7.9023e-06
7.89032e-06
7.88954e-06
7.89378e-06
7.88753e-06
7.88873e-06
7.90061e-06
7.93436e-06
8.05907e-06
7.9044e-06
7.3554e-06
5.83463e-06
7.47448e-06
8.13879e-06
8.34524e-06
8.1753e-06
8.04307e-06
8.02192e-06
8.01466e-06
8.01852e-06
8.01274e-06
8.02062e-06
8.04179e-06
8.17332e-06
8.34241e-06
8.14014e-06
7.47768e-06
5.80787e-06
7.58969e-06
8.38497e-06
8.56781e-06
8.33922e-06
8.18155e-06
8.1504e-06
8.13612e-06
8.13954e-06
8.1343e-06
8.14942e-06
8.18073e-06
8.33778e-06
8.57011e-06
8.38667e-06
7.59337e-06
5.78098e-06
7.69816e-06
8.64824e-06
8.75085e-06
8.50288e-06
8.31777e-06
8.27575e-06
8.25392e-06
8.25683e-06
8.25223e-06
8.27513e-06
8.31744e-06
8.50204e-06
8.75394e-06
8.65049e-06
7.70233e-06
5.75627e-06
7.79955e-06
8.93933e-06
8.93552e-06
8.66625e-06
8.45167e-06
8.39794e-06
8.36804e-06
8.37035e-06
8.36649e-06
8.39772e-06
8.45189e-06
8.66606e-06
8.93949e-06
8.94243e-06
7.80423e-06
5.73628e-06
7.89602e-06
9.27316e-06
9.12187e-06
8.82919e-06
8.58323e-06
8.51695e-06
8.47848e-06
8.4801e-06
8.4771e-06
8.51718e-06
8.58406e-06
8.82973e-06
9.1268e-06
9.27751e-06
7.9012e-06
5.72351e-06
7.99206e-06
9.66558e-06
9.30988e-06
8.99164e-06
8.71249e-06
8.63287e-06
8.58535e-06
8.58619e-06
8.58417e-06
8.63359e-06
8.71399e-06
8.99296e-06
9.31582e-06
9.67159e-06
7.99771e-06
5.72002e-06
8.08849e-06
1.01223e-05
9.49869e-06
9.15356e-06
8.83964e-06
8.74597e-06
8.68902e-06
8.68898e-06
8.68807e-06
8.74725e-06
8.84188e-06
9.15573e-06
9.50557e-06
1.01302e-05
8.0946e-06
5.72746e-06
8.18551e-06
1.06114e-05
9.68709e-06
9.31496e-06
8.96506e-06
8.85678e-06
8.79011e-06
8.78909e-06
8.78942e-06
8.85866e-06
8.96808e-06
9.31804e-06
9.6948e-06
1.06204e-05
8.19204e-06
5.7472e-06
8.28336e-06
1.10017e-05
9.87393e-06
9.47565e-06
9.08912e-06
8.96583e-06
8.88929e-06
8.88723e-06
8.88888e-06
8.9683e-06
9.09293e-06
9.47966e-06
9.88237e-06
1.10092e-05
8.29029e-06
5.78038e-06
8.38246e-06
1.11889e-05
1.00585e-05
9.63529e-06
9.21187e-06
9.07319e-06
8.9867e-06
8.98353e-06
8.98655e-06
9.07624e-06
9.21645e-06
9.64021e-06
1.00676e-05
1.11969e-05
8.38975e-06
5.82793e-06
8.48338e-06
1.13705e-05
1.02411e-05
9.79359e-06
9.33327e-06
9.17885e-06
9.08231e-06
9.07796e-06
9.08244e-06
9.18248e-06
9.33862e-06
9.79943e-06
1.02507e-05
1.1379e-05
8.491e-06
5.89064e-06
8.58686e-06
1.15459e-05
1.04229e-05
9.95048e-06
9.45354e-06
9.28315e-06
9.17655e-06
9.17094e-06
9.17698e-06
9.28739e-06
9.4597e-06
9.95728e-06
1.0433e-05
1.15548e-05
8.5948e-06
5.96912e-06
8.69375e-06
1.17147e-05
1.06043e-05
1.01061e-05
9.57314e-06
9.38666e-06
9.27007e-06
9.26314e-06
9.27083e-06
9.39152e-06
9.58014e-06
1.01139e-05
1.0615e-05
1.17239e-05
8.70198e-06
6.06378e-06
8.80502e-06
1.18767e-05
1.07854e-05
1.02609e-05
9.69264e-06
9.49011e-06
9.36372e-06
9.35541e-06
9.36482e-06
9.49563e-06
9.70054e-06
1.02697e-05
1.07967e-05
1.18862e-05
8.81349e-06
6.17476e-06
8.92165e-06
1.20319e-05
1.09666e-05
1.04153e-05
9.81226e-06
9.59426e-06
9.45829e-06
9.44864e-06
9.45982e-06
9.60058e-06
9.82108e-06
1.04252e-05
1.09785e-05
1.20417e-05
8.93034e-06
6.30194e-06
9.0447e-06
1.21805e-05
1.11482e-05
1.05721e-05
9.93955e-06
9.70659e-06
9.56106e-06
9.55001e-06
9.56312e-06
9.71386e-06
9.94953e-06
1.05832e-05
1.11608e-05
1.21906e-05
9.05355e-06
6.44547e-06
9.17524e-06
1.23228e-05
1.13307e-05
1.07336e-05
1.0076e-05
9.82925e-06
9.67524e-06
9.66273e-06
9.67786e-06
9.83748e-06
1.00872e-05
1.07459e-05
1.13439e-05
1.23331e-05
9.18421e-06
6.60604e-06
9.31436e-06
1.24588e-05
1.15146e-05
1.09011e-05
1.02235e-05
9.96428e-06
9.80295e-06
9.78897e-06
9.80617e-06
9.9735e-06
1.02358e-05
1.09144e-05
1.15285e-05
1.24692e-05
9.3234e-06
6.78491e-06
9.46319e-06
1.25882e-05
1.16999e-05
1.10751e-05
1.03834e-05
1.01138e-05
9.94652e-06
9.9311e-06
9.95035e-06
1.01239e-05
1.03968e-05
1.10893e-05
1.17143e-05
1.25987e-05
9.47224e-06
6.98388e-06
9.62285e-06
1.27103e-05
1.18863e-05
1.12553e-05
1.05565e-05
1.0279e-05
1.01077e-05
1.00909e-05
1.01121e-05
1.02901e-05
1.05709e-05
1.12703e-05
1.19012e-05
1.27206e-05
9.63185e-06
7.20505e-06
9.79439e-06
1.28241e-05
1.20709e-05
1.14399e-05
1.07419e-05
1.04596e-05
1.02861e-05
1.02682e-05
1.0291e-05
1.04714e-05
1.07571e-05
1.14553e-05
1.20855e-05
1.28342e-05
9.80326e-06
7.4504e-06
9.97866e-06
1.29289e-05
1.22509e-05
1.16261e-05
1.09378e-05
1.06538e-05
1.04802e-05
1.04614e-05
1.04856e-05
1.06663e-05
1.09537e-05
1.16415e-05
1.2265e-05
1.29388e-05
9.98733e-06
7.72169e-06
1.01762e-05
1.30245e-05
1.24216e-05
1.181e-05
1.1142e-05
1.08601e-05
1.06888e-05
1.06692e-05
1.06946e-05
1.08729e-05
1.11581e-05
1.18249e-05
1.24351e-05
1.3034e-05
1.01846e-05
8.02033e-06
1.03871e-05
1.31106e-05
1.25801e-05
1.19858e-05
1.13502e-05
1.10751e-05
1.09091e-05
1.08891e-05
1.09151e-05
1.1088e-05
1.13662e-05
1.20003e-05
1.25928e-05
1.31196e-05
1.0395e-05
8.34707e-06
1.06107e-05
1.3187e-05
1.27237e-05
1.21516e-05
1.1557e-05
1.12935e-05
1.11361e-05
1.11162e-05
1.11421e-05
1.13062e-05
1.15726e-05
1.21655e-05
1.27355e-05
1.31953e-05
1.06182e-05
8.70179e-06
1.08459e-05
1.32533e-05
1.28504e-05
1.23051e-05
1.17575e-05
1.15096e-05
1.13637e-05
1.13444e-05
1.13697e-05
1.15218e-05
1.17724e-05
1.23186e-05
1.28613e-05
1.32609e-05
1.08528e-05
9.08316e-06
1.1091e-05
1.33095e-05
1.29587e-05
1.24445e-05
1.19462e-05
1.17184e-05
1.15864e-05
1.15681e-05
1.15922e-05
1.173e-05
1.196e-05
1.24576e-05
1.29686e-05
1.33163e-05
1.10971e-05
9.48832e-06
1.13432e-05
1.33552e-05
1.30475e-05
1.25675e-05
1.21186e-05
1.19163e-05
1.17996e-05
1.17828e-05
1.18051e-05
1.19272e-05
1.21314e-05
1.25792e-05
1.30564e-05
1.33611e-05
1.13486e-05
9.91254e-06
1.15994e-05