0 	0 	0 	0
5.01672e-05 	-2.17794e-05 	-4.44366e-06 	0.0203384
0.000100334 	-4.35589e-05 	-8.88731e-06 	0.0406768
0.000150502 	-6.53383e-05 	-1.3331e-05 	0.0610153
0.000200669 	-8.71177e-05 	-1.77746e-05 	0.0813537
0.000250836 	-0.000108897 	-2.22183e-05 	0.101692
0.000301003 	-0.000130677 	-2.66619e-05 	0.122031
0.000351171 	-0.000150474 	-3.18121e-05 	0.140262
0.000401338 	-0.000162776 	-3.96338e-05 	0.150529
0.000451505 	-0.000175078 	-4.74555e-05 	0.160795
0.000501672 	-0.00018738 	-5.52772e-05 	0.171061
0.000551839 	-0.000199682 	-6.30989e-05 	0.181327
0.000602007 	-0.000211984 	-7.09206e-05 	0.191593
0.000652174 	-0.000224286 	-7.87424e-05 	0.20186
0.000702341 	-0.000236588 	-8.65641e-05 	0.212126
0.000752508 	-0.000246161 	-9.46139e-05 	0.220961
0.000802676 	-0.000248968 	-0.000103229 	0.226247
0.000852843 	-0.000251775 	-0.000111844 	0.231534
0.00090301 	-0.000254583 	-0.00012046 	0.23682
0.000953177 	-0.00025739 	-0.000129075 	0.242106
0.00100334 	-0.000260197 	-0.00013769 	0.247393
0.00105351 	-0.000263004 	-0.000146306 	0.252679
0.00110368 	-0.000265812 	-0.000154921 	0.257966
0.00115385 	-0.000268619 	-0.000163536 	0.263252
0.00120401 	-0.000271229 	-0.000172111 	0.268433
0.00125418 	-0.000269795 	-0.000179849 	0.271447
0.00130435 	-0.000268361 	-0.000187587 	0.274461
0.00135452 	-0.000266927 	-0.000195325 	0.277474
0.00140468 	-0.000265492 	-0.000203064 	0.280488
0.00145485 	-0.000264058 	-0.000210802 	0.283502
0.00150502 	-0.000262624 	-0.00021854 	0.286516
0.00155518 	-0.00026119 	-0.000226278 	0.289529
0.00160535 	-0.000259756 	-0.000234017 	0.292543
0.00165552 	-0.000258322 	-0.000241755 	0.295557
0.00170569 	-0.000256888 	-0.000249493 	0.298571
0.00175585 	-0.000255201 	-0.000256833 	0.301295
0.00180602 	-0.000252819 	-0.000263076 	0.303226
0.00185619 	-0.000250437 	-0.000269319 	0.305156
0.00190635 	-0.000248054 	-0.000275562 	0.307086
0.00195652 	-0.000245672 	-0.000281805 	0.309017
0.00200669 	-0.00024329 	-0.000288048 	0.310947
0.00205686 	-0.000240908 	-0.000294291 	0.312877
0.00210702 	-0.000238526 	-0.000300534 	0.314808
0.00215719 	-0.000236144 	-0.000306777 	0.316738
0.00220736 	-0.000233762 	-0.00031302 	0.318668
0.00225753 	-0.000231379 	-0.000319263 	0.320599
0.00230769 	-0.000228997 	-0.000325506 	0.322529
0.00235786 	-0.000226615 	-0.000331749 	0.324459
0.00240803 	-0.000224468 	-0.00033684 	0.325957
0.00245819 	-0.000222426 	-0.000341418 	0.327262
0.00250836 	-0.000220384 	-0.000345995 	0.328566
0.00255853 	-0.000218342 	-0.000350573 	0.329871
0.0026087 	-0.0002163 	-0.000355151 	0.331176
0.00265886 	-0.000214258 	-0.000359728 	0.33248
0.00270903 	-0.000212216 	-0.000364306 	0.333785
0.0027592 	-0.000210174 	-0.000368883 	0.335089
0.00280936 	-0.000208132 	-0.000373461 	0.336394
0.00285953 	-0.00020609 	-0.000378038 	0.337699
0.0029097 	-0.000204048 	-0.000382616 	0.339003
0.00295987 	-0.000202007 	-0.000387193 	0.340308
0.00301003 	-0.000199965 	-0.000391771 	0.341613
0.0030602 	-0.000197923 	-0.000396349 	0.342917
0.00311037 	-0.000195894 	-0.000400896 	0.344212
0.00316054 	-0.000194464 	-0.000404137 	0.345089
0.0032107 	-0.000193033 	-0.000407377 	0.345965
0.00326087 	-0.000191602 	-0.000410618 	0.346842
0.00331104 	-0.000190172 	-0.000413859 	0.347718
0.0033612 	-0.000188741 	-0.000417099 	0.348595
0.00341137 	-0.00018731 	-0.00042034 	0.349471
0.00346154 	-0.00018588 	-0.000423581 	0.350348
0.00351171 	-0.000184449 	-0.000426821 	0.351224
0.00356187 	-0.000183018 	-0.000430062 	0.352101
0.00361204 	-0.000181588 	-0.000433303 	0.352978
0.00366221 	-0.000180157 	-0.000436544 	0.353854
0.00371237 	-0.000178726 	-0.000439784 	0.354731
0.00376254 	-0.000177296 	-0.000443025 	0.355607
0.00381271 	-0.000175865 	-0.000446266 	0.356484
0.00386288 	-0.000174434 	-0.000449506 	0.35736
0.00391304 	-0.000173004 	-0.000452747 	0.358237
0.00396321 	-0.000171573 	-0.000455988 	0.359113
0.00401338 	-0.000170542 	-0.000458386 	0.359692
0.00406355 	-0.00016955 	-0.000460702 	0.360242
0.00411371 	-0.000168558 	-0.000463018 	0.360792
0.00416388 	-0.000167566 	-0.000465334 	0.361342
0.00421405 	-0.000166574 	-0.000467649 	0.361891
0.00426421 	-0.000165581 	-0.000469965 	0.362441
0.00431438 	-0.000164589 	-0.000472281 	0.362991
0.00436455 	-0.000163597 	-0.000474597 	0.363541
0.00441472 	-0.000162605 	-0.000476913 	0.36409
0.00446488 	-0.000161613 	-0.000479228 	0.36464
0.00451505 	-0.000160621 	-0.000481544 	0.36519
0.00456522 	-0.000159629 	-0.00048386 	0.36574
0.00461538 	-0.000158637 	-0.000486176 	0.36629
0.00466555 	-0.000157645 	-0.000488492 	0.366839
0.00471572 	-0.000156653 	-0.000490807 	0.367389
0.00476589 	-0.000155661 	-0.000493123 	0.367939
0.00481605 	-0.000154669 	-0.000495439 	0.368489
0.00486622 	-0.000153677 	-0.000497755 	0.369039
0.00491639 	-0.000152684 	-0.000500071 	0.369588
0.00496656 	-0.000151692 	-0.000502387 	0.370138
0.00501672 	-0.000150905 	-0.000503985 	0.370439
0.00506689 	-0.000150129 	-0.000505546 	0.370726
0.00511706 	-0.000149353 	-0.000507106 	0.371013
0.00516722 	-0.000148577 	-0.000508667 	0.371301
0.00521739 	-0.000147801 	-0.000510227 	0.371588
0.00526756 	-0.000147025 	-0.000511788 	0.371875
0.00531773 	-0.000146249 	-0.000513348 	0.372163
0.00536789 	-0.000145473 	-0.000514909 	0.37245
0.00541806 	-0.000144697 	-0.000516469 	0.372737
0.00546823 	-0.000143921 	-0.00051803 	0.373024
0.00551839 	-0.000143145 	-0.00051959 	0.373312
0.00556856 	-0.000142368 	-0.000521151 	0.373599
0.00561873 	-0.000141592 	-0.000522711 	0.373886
0.0056689 	-0.000140816 	-0.000524272 	0.374174
0.00571906 	-0.00014004 	-0.000525832 	0.374461
0.00576923 	-0.000139264 	-0.000527392 	0.374748
0.0058194 	-0.000138488 	-0.000528953 	0.375036
0.00586957 	-0.000137712 	-0.000530513 	0.375323
0.00591973 	-0.000136936 	-0.000532074 	0.37561
0.0059699 	-0.00013616 	-0.000533634 	0.375898
0.00602007 	-0.000135384 	-0.000535195 	0.376185
0.00607023 	-0.000134608 	-0.000536755 	0.376472
0.0061204 	-0.000133832 	-0.000538316 	0.376759
0.00617057 	-0.000133152 	-0.000539362 	0.376901
0.00622074 	-0.000132522 	-0.000540148 	0.376968
0.0062709 	-0.000131892 	-0.000540933 	0.377035
0.00632107 	-0.000131262 	-0.000541719 	0.377102
0.00637124 	-0.000130632 	-0.000542504 	0.377169
0.0064214 	-0.000130002 	-0.00054329 	0.377236
0.00647157 	-0.000129372 	-0.000544076 	0.377303
0.00652174 	-0.000128742 	-0.000544861 	0.37737
0.00657191 	-0.000128112 	-0.000545647 	0.377437
0.00662207 	-0.000127482 	-0.000546432 	0.377504
0.00667224 	-0.000126852 	-0.000547218 	0.377571
0.00672241 	-0.000126222 	-0.000548004 	0.377638
0.00677258 	-0.000125592 	-0.000548789 	0.377705
0.00682274 	-0.000124962 	-0.000549575 	0.377772
0.00687291 	-0.000124332 	-0.00055036 	0.377839
0.00692308 	-0.000123702 	-0.000551146 	0.377906
0.00697324 	-0.000123071 	-0.000551931 	0.377973
0.00702341 	-0.000122441 	-0.000552717 	0.37804
0.00707358 	-0.000121811 	-0.000553503 	0.378107
0.00712375 	-0.000121181 	-0.000554288 	0.378174
0.00717391 	-0.000120551 	-0.000555074 	0.378241
0.00722408 	-0.000119921 	-0.000555859 	0.378308
0.00727425 	-0.000119291 	-0.000556645 	0.378375
0.00732441 	-0.000118661 	-0.00055743 	0.378442
0.00737458 	-0.000118031 	-0.000558216 	0.378509
0.00742475 	-0.000117401 	-0.000559002 	0.378576
0.00747492 	-0.000116771 	-0.000559787 	0.378643
0.00752508 	-0.000116198 	-0.000560189 	0.378611
0.00757525 	-0.000115683 	-0.000560206 	0.37848
0.00762542 	-0.000115168 	-0.000560223 	0.378349
0.00767559 	-0.000114652 	-0.00056024 	0.378218
0.00772575 	-0.000114137 	-0.000560258 	0.378087
0.00777592 	-0.000113622 	-0.000560275 	0.377956
0.00782609 	-0.000113106 	-0.000560292 	0.377824
0.00787625 	-0.000112591 	-0.000560309 	0.377693
0.00792642 	-0.000112076 	-0.000560327 	0.377562
0.00797659 	-0.00011156 	-0.000560344 	0.377431
0.00802676 	-0.000111045 	-0.000560361 	0.3773
0.00807692 	-0.00011053 	-0.000560378 	0.377169
0.00812709 	-0.000110014 	-0.000560396 	0.377038
0.00817726 	-0.000109499 	-0.000560413 	0.376906
0.00822742 	-0.000108984 	-0.00056043 	0.376775
0.00827759 	-0.000108469 	-0.000560447 	0.376644
0.00832776 	-0.000107953 	-0.000560465 	0.376513
0.00837793 	-0.000107438 	-0.000560482 	0.376382
0.00842809 	-0.000106923 	-0.000560499 	0.376251
0.00847826 	-0.000106407 	-0.000560516 	0.37612
0.00852843 	-0.000105892 	-0.000560534 	0.375988
0.0085786 	-0.000105377 	-0.000560551 	0.375857
0.00862876 	-0.000104861 	-0.000560568 	0.375726
0.00867893 	-0.000104346 	-0.000560585 	0.375595
0.0087291 	-0.000103831 	-0.000560603 	0.375464
0.00877926 	-0.000103315 	-0.00056062 	0.375333
0.00882943 	-0.0001028 	-0.000560637 	0.375201
0.0088796 	-0.000102338 	-0.000560338 	0.37499
0.00892977 	-0.000101982 	-0.000559416 	0.374619
0.00897993 	-0.000101626 	-0.000558494 	0.374248
0.0090301 	-0.00010127 	-0.000557572 	0.373877
0.00908027 	-0.000100914 	-0.00055665 	0.373506
0.00913043 	-0.000100558 	-0.000555728 	0.373135
0.0091806 	-0.000100202 	-0.000554806 	0.372764
0.00923077 	-9.98455e-05 	-0.000553884 	0.372393
0.00928094 	-9.94894e-05 	-0.000552961 	0.372022
0.0093311 	-9.91333e-05 	-0.000552039 	0.371651
0.00938127 	-9.87772e-05 	-0.000551117 	0.37128
0.00943144 	-9.8421e-05 	-0.000550195 	0.370909
0.00948161 	-9.80649e-05 	-0.000549273 	0.370538
0.00953177 	-9.77088e-05 	-0.000548351 	0.370167
0.00958194 	-9.73527e-05 	-0.000547429 	0.369796
0.00963211 	-9.69965e-05 	-0.000546507 	0.369425
0.00968227 	-9.66404e-05 	-0.000545585 	0.369054
0.00973244 	-9.62843e-05 	-0.000544662 	0.368683
0.00978261 	-9.59282e-05 	-0.00054374 	0.368312
0.00983278 	-9.55721e-05 	-0.000542818 	0.367941
0.00988294 	-9.52159e-05 	-0.000541896 	0.36757
0.00993311 	-9.48598e-05 	-0.000540974 	0.367199
0.00998328 	-9.45037e-05 	-0.000540052 	0.366828
0.0100334 	-9.4165e-05 	-0.000539074 	0.366443
0.0100836 	-9.41519e-05 	-0.000537051 	0.365789
0.0101338 	-9.41389e-05 	-0.000535028 	0.365134
0.0101839 	-9.41258e-05 	-0.000533005 	0.36448
0.0102341 	-9.41128e-05 	-0.000530982 	0.363825
0.0102843 	-9.40997e-05 	-0.000528959 	0.363171
0.0103344 	-9.40867e-05 	-0.000526936 	0.362517
0.0103846 	-9.40736e-05 	-0.000524913 	0.361862
0.0104348 	-9.40606e-05 	-0.00052289 	0.361208
0.0104849 	-9.40475e-05 	-0.000520867 	0.360553
0.0105351 	-9.40344e-05 	-0.000518844 	0.359899
0.0105853 	-9.40214e-05 	-0.000516821 	0.359244
0.0106355 	-9.40083e-05 	-0.000514798 	0.35859
0.0106856 	-9.39953e-05 	-0.000512775 	0.357936
0.0107358 	-9.39822e-05 	-0.000510752 	0.357281
0.010786 	-9.39692e-05 	-0.000508729 	0.356627
0.0108361 	-9.39561e-05 	-0.000506706 	0.355972
0.0108863 	-9.39431e-05 	-0.000504683 	0.355318
0.0109365 	-9.393e-05 	-0.00050266 	0.354664
0.0109866 	-9.39169e-05 	-0.000500638 	0.354009
0.0110368 	-9.39588e-05 	-0.000498472 	0.353322
0.011087 	-9.456e-05 	-0.000494856 	0.3523
0.0111371 	-9.51612e-05 	-0.00049124 	0.351279
0.0111873 	-9.57625e-05 	-0.000487624 	0.350258
0.0112375 	-9.63637e-05 	-0.000484008 	0.349236
0.0112876 	-9.69649e-05 	-0.000480392 	0.348215
0.0113378 	-9.75662e-05 	-0.000476776 	0.347193
0.011388 	-9.81674e-05 	-0.00047316 	0.346172
0.0114381 	-9.87686e-05 	-0.000469544 	0.345151
0.0114883 	-9.93699e-05 	-0.000465927 	0.344129
0.0115385 	-9.99711e-05 	-0.000462311 	0.343108
0.0115886 	-0.000100572 	-0.000458695 	0.342086
0.0116388 	-0.000101174 	-0.000455079 	0.341065
0.011689 	-0.000101775 	-0.000451463 	0.340044
0.0117391 	-0.000102376 	-0.000447847 	0.339022
0.0117893 	-0.000102977 	-0.000444231 	0.338001
0.0118395 	-0.000103578 	-0.000440615 	0.336979
0.0118896 	-0.00010418 	-0.000436999 	0.335958
0.0119398 	-0.00010565 	-0.000430895 	0.3344
0.01199 	-0.00010714 	-0.000424735 	0.332829
0.0120401 	-0.00010863 	-0.000418574 	0.331259
0.0120903 	-0.00011012 	-0.000412413 	0.329688
0.0121405 	-0.00011161 	-0.000406253 	0.328118
0.0121906 	-0.0001131 	-0.000400092 	0.326547
0.0122408 	-0.00011459 	-0.000393931 	0.324977
0.012291 	-0.00011608 	-0.00038777 	0.323406
0.0123411 	-0.00011757 	-0.00038161 	0.321836
0.0123913 	-0.00011906 	-0.000375449 	0.320265
0.0124415 	-0.00012055 	-0.000369288 	0.318695
0.0124916 	-0.00012204 	-0.000363128 	0.317124
0.0125418 	-0.00012353 	-0.000356967 	0.315554
0.012592 	-0.00012502 	-0.000350806 	0.313983
0.0126421 	-0.00012676 	-0.000343683 	0.312129
0.0126923 	-0.00012906 	-0.000334403 	0.309638
0.0127425 	-0.00013136 	-0.000325122 	0.307146
0.0127926 	-0.00013366 	-0.000315842 	0.304655
0.0128428 	-0.00013596 	-0.000306561 	0.302164
0.012893 	-0.00013826 	-0.00029728 	0.299673
0.0129431 	-0.000140561 	-0.000288 	0.297182
0.0129933 	-0.000142861 	-0.000278719 	0.294691
0.0130435 	-0.000145161 	-0.000269438 	0.292199
0.0130936 	-0.000147461 	-0.000260158 	0.289708
0.0131438 	-0.000149761 	-0.000250877 	0.287217
0.013194 	-0.000152061 	-0.000241597 	0.284726
0.0132441 	-0.000154362 	-0.000232316 	0.282235
0.0132943 	-0.00015636 	-0.000221443 	0.278531
0.0133445 	-0.000158249 	-0.000209991 	0.274387
0.0133946 	-0.000160138 	-0.000198539 	0.270243
0.0134448 	-0.000162027 	-0.000187087 	0.266098
0.013495 	-0.000163917 	-0.000175635 	0.261954
0.0135452 	-0.000165806 	-0.000164182 	0.25781
0.0135953 	-0.000167695 	-0.00015273 	0.253665
0.0136455 	-0.000169584 	-0.000141278 	0.249521
0.0136957 	-0.000171473 	-0.000129826 	0.245376
0.0137458 	-0.000173362 	-0.000118374 	0.241232
0.013796 	-0.000175251 	-0.000106922 	0.237088
0.0138462 	-0.000173256 	-9.70833e-05 	0.22965
0.0138963 	-0.000171073 	-8.73231e-05 	0.222052
0.0139465 	-0.000168889 	-7.75629e-05 	0.214454
0.0139967 	-0.000166705 	-6.78028e-05 	0.206856
0.0140468 	-0.000164521 	-5.80426e-05 	0.199258
0.014097 	-0.000162337 	-4.82824e-05 	0.191659
0.0141472 	-0.000160154 	-3.85223e-05 	0.184061
0.0141973 	-0.00015797 	-2.87621e-05 	0.176463
0.0142475 	-0.000155786 	-1.90019e-05 	0.168865
0.0142977 	-0.000148373 	-1.38828e-05 	0.15832
0.0143478 	-0.000138851 	-1.06356e-05 	0.146587
0.014398 	-0.00012933 	-7.38829e-06 	0.134854
0.0144482 	-0.000119808 	-4.14101e-06 	0.123121
0.0144983 	-0.000110286 	-8.93725e-07 	0.111388
0.0145485 	-0.000100764 	2.35355e-06 	0.0996547
0.0145987 	-9.12426e-05 	5.60084e-06 	0.0879216
0.0146488 	-8.17209e-05 	8.84812e-06 	0.0761885
0.014699 	-7.04442e-05 	8.4177e-06 	0.0651476
0.0147492 	-5.87035e-05 	7.01475e-06 	0.0542896
0.0147993 	-4.69628e-05 	5.6118e-06 	0.0434317
0.0148495 	-3.52221e-05 	4.20885e-06 	0.0325738
0.0148997 	-2.34814e-05 	2.8059e-06 	0.0217159
0.0149498 	-1.17407e-05 	1.40295e-06 	0.0108579
0.015 	0 	0 	0
