-0.0075 	0 	0 	0
-0.00715932 	-0.000182643 	-3.41916e-05 	0.1391
-0.00676191 	-0.000294718 	-0.000102305 	0.220271
-0.00629832 	-0.000322969 	-0.000188238 	0.269581
-0.00575752 	-0.00030391 	-0.000276301 	0.30254
-0.00512667 	-0.000269084 	-0.00035724 	0.327206
-0.00439077 	-0.000235354 	-0.000424653 	0.346619
-0.00353231 	-0.000208705 	-0.000479287 	0.361762
-0.00253089 	-0.000187697 	-0.000524466 	0.372751
-0.00136271 	-0.000168636 	-0.000559125 	0.379353
0 	-0.000150501 	-0.000577506 	0.381028
0.00136271 	-0.000135601 	-0.000573613 	0.377273
0.00253089 	-0.00012689 	-0.000546674 	0.368384
0.00353231 	-0.000127356 	-0.000500961 	0.355015
0.00439077 	-0.00014033 	-0.00043472 	0.337167
0.00512667 	-0.000167211 	-0.000341343 	0.313669
0.00575752 	-0.000202445 	-0.000222998 	0.281719
0.00629832 	-0.000226378 	-9.97105e-05 	0.236176
0.00676191 	-0.000199307 	-1.18033e-05 	0.165469
0.00715932 	-0.000103362 	1.11543e-05 	0.0735196
0.0075 	0 	0 	0
