/*--------------------------------*- C++ -*----------------------------------*\
| =========                 |                                                 |
| \\      /  F ield         | OpenFOAM: The Open Source CFD Toolbox           |
|  \\    /   O peration     | Version:  v1912                                 |
|   \\  /    A nd           | Website:  www.openfoam.com                      |
|    \\/     M anipulation  |                                                 |
\*---------------------------------------------------------------------------*/
FoamFile
{
    version     2.0;
    format      ascii;
    class       volScalarField;
    location    "198.4";
    object      k;
}
// * * * * * * * * * * * * * * * * * * * * * * * * * * * * * * * * * * * * * //

dimensions      [0 2 -2 0 0 0 0];


internalField   nonuniform List<scalar> 
40448
(
1.7713e-06
1.3184e-06
2.69911e-07
7.12391e-07
6.94531e-07
8.17095e-07
8.42287e-07
8.74934e-07
8.72639e-07
8.73347e-07
8.38323e-07
8.11663e-07
6.88375e-07
7.07105e-07
2.67922e-07
1.31225e-06
4.85912e-07
3.85636e-07
4.14531e-07
4.49578e-07
4.47075e-07
4.64888e-07
4.71347e-07
4.81461e-07
4.80114e-07
4.80865e-07
4.70626e-07
4.64177e-07
4.4633e-07
4.48994e-07
4.15136e-07
3.8504e-07
1.85342e-06
1.36028e-06
2.55073e-06
2.37412e-06
2.37185e-06
2.37398e-06
2.39313e-06
2.43005e-06
2.42302e-06
2.42759e-06
2.39217e-06
2.37452e-06
2.37286e-06
2.37536e-06
2.55682e-06
1.36211e-06
7.00544e-06
4.47591e-06
8.7717e-06
8.16795e-06
8.15587e-06
8.14944e-06
8.21202e-06
8.33543e-06
8.31098e-06
8.32729e-06
8.20944e-06
8.15232e-06
8.16049e-06
8.17321e-06
8.79312e-06
4.48281e-06
1.93125e-05
1.08749e-05
2.14893e-05
2.02079e-05
2.01624e-05
2.01534e-05
2.03065e-05
2.061e-05
2.05489e-05
2.05903e-05
2.03007e-05
2.01612e-05
2.01744e-05
2.02215e-05
2.15417e-05
1.08914e-05
4.34228e-05
2.18096e-05
4.28717e-05
4.09281e-05
4.07997e-05
4.08265e-05
4.11371e-05
4.17533e-05
4.16283e-05
4.1714e-05
4.11255e-05
4.08422e-05
4.08235e-05
4.09552e-05
4.29745e-05
2.18413e-05
8.50151e-05
3.84522e-05
7.41299e-05
7.23927e-05
7.20856e-05
7.22935e-05
7.28544e-05
7.39614e-05
7.37377e-05
7.38922e-05
7.28318e-05
7.23174e-05
7.21217e-05
7.24357e-05
7.43006e-05
3.85027e-05
0.000149925
6.14753e-05
0.000114441
0.000115389
0.00011473
0.000115492
0.000116426
0.000118246
0.000117884
0.000118135
0.000116381
0.000115516
0.000114769
0.000115442
0.000114688
6.15424e-05
0.000241608
9.04886e-05
0.000160446
0.000168416
0.000167137
0.00016912
0.000170569
0.000173349
0.00017281
0.000173183
0.000170484
0.000169127
0.000167154
0.000168459
0.000160764
9.05609e-05
0.000358555
0.000123838
0.000207264
0.000227756
0.000225515
0.000229603
0.000231702
0.00023567
0.000234924
0.000235439
0.000231555
0.000229563
0.000225478
0.000227761
0.000207638
0.000123895
0.00049493
0.000159074
0.000250376
0.000288865
0.000285299
0.000292429
0.000295288
0.000300634
0.000299657
0.000300331
0.000295058
0.000292313
0.000285171
0.0002888
0.000250787
0.000159094
0.000643997
0.000193837
0.000287784
0.000347974
0.000342749
0.00035374
0.000357431
0.000364276
0.000363055
0.000363897
0.000357102
0.000353524
0.0003425
0.000347814
0.000288221
0.000193806
0.000800427
0.000227491
0.000318491
0.000403221
0.000396134
0.000411369
0.000415897
0.000424258
0.00042279
0.000423807
0.000415467
0.000411047
0.000395753
0.000402956
0.000318944
0.000227398
0.000960803
0.000259386
0.000342085
0.000453674
0.000444475
0.000464619
0.000470045
0.00048005
0.00047832
0.000479524
0.000469501
0.000464173
0.000443945
0.000453286
0.000342546
0.000259222
0.00112345
0.000289141
0.000358762
0.000498385
0.00048689
0.000512477
0.000518835
0.000530574
0.00052857
0.000529971
0.000518169
0.000511894
0.000486197
0.000497863
0.000359225
0.000288902
0.00128912
0.000316619
0.000369149
0.000536852
0.000522963
0.000554361
0.00056165
0.000575158
0.000572875
0.000574481
0.000560859
0.000553634
0.000522102
0.000536186
0.000369609
0.000316303
0.00145899
0.000341876
0.000374144
0.000568977
0.000552688
0.000590109
0.000598298
0.000613556
0.000610997
0.000612809
0.000597383
0.000589237
0.000551657
0.000568165
0.000374598
0.000341486
0.00163088
0.000365075
0.000374773
0.000594983
0.000576377
0.000619902
0.000628928
0.000645872
0.000643045
0.000645061
0.000627898
0.00061889
0.000575179
0.000594026
0.000375217
0.000364613
0.00180249
0.000386395
0.000372085
0.000615343
0.000594576
0.000644192
0.000653968
0.000672502
0.000669419
0.000671634
0.000652836
0.000643046
0.000593217
0.000614244
0.000372517
0.000385866
0.001972
0.000405976
0.00036707
0.000630749
0.000608025
0.000663673
0.0006741
0.000694109
0.000690785
0.000693193
0.000672878
0.000662404
0.000606509
0.000629511
0.000367489
0.000405387
0.00213508
0.00042389
0.000360608
0.000642099
0.000617634
0.00067927
0.000690236
0.000711588
0.000708038
0.000710632
0.00068894
0.000677889
0.000615963
0.000640723
0.000361011
0.000423247
0.00228048
0.000440139
0.000353437
0.000650035
0.000624233
0.000691583
0.00070303
0.000725674
0.000721909
0.000724685
0.000701667
0.000690102
0.000622417
0.000648533
0.000353822
0.000439448
0.00240226
0.000454679
0.00034614
0.000654092
0.000627691
0.000699947
0.000711693
0.000735278
0.000731368
0.000734275
0.000710296
0.000698393
0.000625758
0.000652498
0.000346507
0.000453948
0.00249869
0.000467486
0.00033915
0.000653039
0.000627264
0.000702336
0.000714114
0.000738187
0.000734212
0.000737195
0.000712727
0.000700764
0.000625289
0.000651426
0.000339498
0.000466719
0.00256994
0.000478566
0.000332766
0.000645995
0.000621999
0.000697707
0.000709269
0.000733419
0.000729443
0.000732448
0.000707936
0.000696173
0.000620068
0.000644435
0.000333094
0.00047777
0.00261712
0.000487974
0.000327164
0.000633002
0.000611714
0.000686146
0.000697284
0.000721147
0.00071723
0.000720204
0.000696042
0.000684698
0.0006099
0.00063156
0.000327472
0.00048715
0.00264124
0.000495888
0.00032243
0.00061469
0.000596838
0.000668366
0.000678909
0.000702165
0.000698354
0.000701264
0.000677789
0.000667045
0.000595203
0.00061342
0.000322717
0.000495041
0.00264335
0.000502299
0.000318572
0.000591964
0.000578118
0.000645366
0.000655173
0.000677537
0.00067387
0.000676688
0.000654201
0.000644208
0.000576711
0.00059091
0.000318839
0.000501439
0.00262461
0.000507203
0.00031554
0.000565992
0.000556427
0.000618254
0.000627214
0.000648428
0.000644943
0.000647639
0.000626412
0.000617288
0.000555286
0.00056518
0.000315786
0.000506345
0.00258629
0.00051067
0.000313234
0.000538206
0.00053284
0.000588454
0.000596481
0.000616251
0.000612991
0.000615532
0.000595861
0.000587699
0.000531981
0.000537645
0.000313459
0.000509828
0.00252977
0.000512845
0.000311549
0.000509802
0.000508504
0.000557527
0.000564585
0.000582687
0.000579689
0.000582043
0.00056415
0.000556987
0.000507923
0.000509497
0.000311753
0.000512031
0.0024564
0.000513932
0.000310381
0.000481648
0.000484296
0.00052661
0.000532724
0.000549067
0.000546353
0.000548501
0.000532471
0.000526287
0.000483988
0.000481594
0.000310563
0.000513153
0.0023684
0.000514151
0.000309618
0.000454506
0.000460887
0.000496593
0.000501814
0.000516343
0.000513931
0.000515858
0.000501735
0.000496479
0.000460838
0.000454691
0.000309778
0.00051341
0.00226985
0.000513684
0.000309159
0.000429003
0.000438825
0.00046826
0.000472674
0.000485393
0.000483296
0.000484989
0.000472756
0.000468341
0.000439015
0.000429407
0.000309296
0.000512981
0.00216452
0.000512664
0.000308916
0.000405608
0.000418519
0.000442231
0.00044596
0.000456939
0.000455159
0.000456613
0.000446181
0.000442482
0.00041892
0.000406202
0.00030903
0.000511994
0.00205531
0.0005112
0.000308817
0.000384633
0.000400244
0.000418926
0.000422122
0.000431496
0.000430028
0.000431245
0.000422456
0.000419317
0.000400827
0.000385385
0.000308908
0.000510558
0.00194563
0.000509378
0.000308804
0.000366246
0.000384165
0.000398568
0.000401393
0.00040935
0.000408179
0.000409166
0.00040181
0.000399067
0.000384899
0.000367123
0.000308871
0.000508758
0.00183843
0.000507254
0.000308819
0.000350495
0.000370378
0.000381201
0.000383803
0.000390557
0.000389658
0.000390431
0.000384278
0.000381776
0.000371236
0.000351465
0.00030886
0.000506649
0.00173509
0.000504853
0.00030883
0.000337361
0.000358955
0.000366743
0.000369248
0.000374995
0.000374342
0.000374917
0.000369757
0.000367368
0.000359918
0.000338397
0.000308845
0.000504257
0.00163604
0.000502221
0.000308804
0.000326825
0.00035005
0.00035507
0.000357567
0.000362448
0.000362019
0.00036241
0.000358097
0.000355728
0.000351092
0.000327906
0.000308791
0.000501628
0.00154111
0.000499384
0.000308709
0.000318984
0.000343622
0.000346279
0.000348847
0.000352856
0.000352665
0.000352857
0.000349391
0.000346964
0.000344701
0.000320087
0.000308668
0.00049879
0.00144999
0.000496368
0.000308525
0.00031362
0.000339265
0.000340331
0.000343062
0.000346263
0.000346317
0.000346301
0.000343609
0.000341027
0.000340342
0.000314715
0.000308456
0.000495767
0.00136293
0.000493184
0.000308239
0.000310222
0.000336504
0.000336766
0.000339747
0.000342325
0.0003426
0.000342393
0.000340279
0.000337449
0.000337543
0.000311279
0.000308141
0.000492574
0.00128036
0.000489839
0.000307842
0.00030831
0.000334911
0.000335033
0.000338331
0.000340486
0.000340947
0.000340573
0.000338835
0.000335685
0.000335889
0.000309304
0.000307715
0.000489217
0.00120261
0.000486334
0.00030733
0.00030745
0.000334112
0.000334609
0.000338268
0.00034018
0.000340794
0.000340277
0.000338731
0.000335212
0.000335009
0.000308363
0.000307174
0.000485699
0.00112992
0.000482662
0.0003067
0.000307271
0.000333788
0.000335031
0.000339078
0.0003409
0.000341636
0.000340998
0.000339493
0.000335575
0.000334591
0.000308093
0.000306516
0.000482013
0.0010624
0.000478808
0.000305949
0.000307464
0.000333678
0.000335916
0.000340364
0.000342217
0.000343049
0.000342311
0.000340725
0.000336392
0.000334381
0.00030819
0.000305737
0.000478146
0.00100016
0.000474755
0.000305071
0.000307783
0.000333573
0.000336955
0.000341807
0.000343788
0.000344693
0.000343871
0.000342112
0.000337359
0.000334174
0.000308409
0.000304834
0.000474081
0.000943172
0.000470481
0.000304062
0.00030803
0.000333312
0.000337911
0.000343165
0.000345341
0.000346303
0.000345411
0.000343412
0.000338241
0.000333811
0.000308558
0.000303799
0.000469798
0.000891342
0.000465966
0.000302911
0.000308058
0.000332771
0.000338608
0.000344251
0.00034667
0.000347675
0.000346722
0.000344441
0.000338864
0.000333171
0.000308491
0.000302624
0.000465277
0.000844506
0.000461191
0.000301603
0.000307756
0.000331861
0.000338912
0.000344928
0.000347616
0.000348653
0.000347649
0.000345061
0.000339094
0.000332165
0.000308098
0.000301295
0.000460498
0.00080239
0.000456143
0.000300123
0.000307047
0.000330521
0.00033873
0.000345095
0.000348065
0.000349128
0.000348079
0.000345174
0.000338841
0.000330734
0.000307304
0.000299796
0.00045545
0.000764593
0.000450844
0.000298455
0.000305884
0.000328714
0.000337998
0.000344688
0.00034794
0.000349021
0.000347934
0.000344715
0.000338042
0.000328842
0.000306062
0.00029811
0.000450151
0.000730556
0.000445315
0.000296581
0.000304243
0.000326421
0.000336684
0.000343667
0.000347194
0.000348289
0.000347167
0.000343645
0.000336664
0.000326471
0.000304348
0.00029622
0.000444626
0.000699799
0.000439578
0.000294488
0.000302122
0.000323642
0.000334773
0.000342019
0.000345804
0.000346909
0.000345758
0.000341951
0.000334694
0.000323621
0.00030216
0.000294115
0.000438893
0.000671928
0.000433642
0.00029217
0.000299533
0.000320391
0.000332271
0.000339745
0.000343768
0.00034488
0.000343703
0.000339636
0.000332138
0.000320306
0.00029951
0.000291786
0.000432962
0.000646528
0.000427505
0.00028963
0.0002965
0.00031669
0.000329196
0.000336862
0.000341097
0.000342214
0.000341014
0.000336714
0.000329013
0.000316547
0.000296424
0.000289237
0.000426833
0.000623272
0.000421168
0.000286879
0.000293059
0.00031257
0.000325575
0.000333395
0.000337813
0.000338932
0.000337714
0.000333214
0.000325349
0.000312377
0.000292936
0.00028648
0.000420506
0.000601888
0.000414635
0.000283937
0.000289253
0.00030807
0.000321449
0.000329382
0.00033395
0.000335068
0.000333836
0.00032917
0.000321185
0.000307835
0.000289091
0.000283536
0.000413984
0.000582137
0.000407909
0.000280828
0.000285135
0.000303238
0.000316864
0.000324868
0.000329551
0.000330666
0.000329424
0.000324629
0.000316567
0.000302967
0.000284939
0.000280428
0.000407272
0.000563782
0.000400999
0.00027758
0.00028076
0.000298126
0.000311874
0.000319903
0.000324666
0.000325774
0.000324527
0.000319643
0.00031155
0.000297826
0.000280538
0.000277183
0.000400377
0.00054651
0.000393911
0.000274222
0.000276189
0.00029279
0.00030654
0.000314546
0.000319351
0.000320449
0.000319203
0.000314269
0.000306195
0.000292468
0.000275947
0.000273831
0.000393306
0.000530047
0.000386661
0.000270784
0.000271485
0.000287293
0.000300926
0.000308861
0.000313667
0.000314751
0.000313512
0.00030857
0.000300566
0.000286956
0.000271229
0.000270403
0.000386074
0.000514242
0.000379266
0.0002673
0.000266712
0.000281699
0.000295102
0.000302913
0.000307682
0.000308747
0.000307521
0.000302613
0.000294731
0.000281353
0.000266449
0.000266932
0.000378699
0.00049898
0.000371746
0.000263802
0.000261938
0.000276076
0.000289138
0.000296774
0.000301465
0.000302507
0.000301302
0.000296469
0.000288763
0.000275727
0.000261673
0.00026345
0.000371202
0.000484172
0.000364127
0.000260326
0.00025723
0.000270493
0.000283112
0.000290519
0.000295091
0.000296104
0.000294927
0.000290214
0.000282739
0.000270148
0.00025697
0.000259994
0.000363606
0.000469752
0.000356437
0.000256909
0.000252658
0.000265024
0.000277102
0.000284226
0.000288639
0.000289617
0.000288476
0.000283925
0.000276736
0.000264689
0.000252408
0.0002566
0.000355942
0.000455667
0.00034871
0.000253591
0.00024829
0.000259744
0.000271192
0.000277978
0.000282192
0.000283129
0.000282032
0.000277686
0.000270837
0.000259424
0.000248055
0.000253308
0.000348242
0.000441882
0.000340983
0.000250413
0.000244195
0.00025473
0.000265464
0.000271862
0.000275837
0.000276726
0.000275683
0.000271581
0.000265127
0.00025443
0.000243981
0.000250158
0.000340544
0.000428375
0.000333299
0.000247419
0.000240442
0.00025006
0.000260008
0.000265966
0.000269665
0.0002705
0.000269519
0.000265701
0.000259693
0.000249784
0.000240252
0.000247195
0.00033289
0.000415137
0.000325705
0.000244655
0.000237098
0.000245808
0.000254911
0.000260382
0.000263771
0.000264545
0.000263635
0.000260137
0.000254622
0.000245561
0.000236936
0.000244466
0.000325328
0.000402168
0.000318254
0.000242171
0.000234227
0.000242052
0.000250261
0.000255203
0.000258251
0.000258956
0.000258126
0.00025498
0.000250002
0.000241837
0.000234097
0.000242018
0.000317911
0.000389486
0.000311005
0.000240019
0.000231893
0.000238865
0.000246146
0.000250522
0.0002532
0.000253831
0.000253088
0.000250324
0.00024592
0.000238685
0.000231797
0.000239904
0.000310696
0.000377123
0.00030402
0.000238254
0.000230155
0.000236319
0.000242652
0.000246431
0.000248714
0.000249266
0.000248618
0.000246261
0.000242461
0.000236177
0.000230097
0.000238179
0.000303748
0.000365145
0.000297371
0.000236934
0.000229074
0.000234484
0.000239861
0.00024302
0.00024489
0.000245358
0.000244809
0.00024288
0.000239709
0.000234382
0.000229054
0.0002369
0.000297136
0.00035363
0.000291133
0.000236122
0.000228709
0.000233429
0.000237856
0.000240378
0.000241821
0.000242201
0.000241757
0.000240269
0.000237743
0.000233366
0.000228728
0.000236131
0.000290937
0.00034265
0.000285388
0.000235885
0.000229114
0.000233217
0.000236712
0.00023859
0.000239596
0.000239886
0.00023955
0.000238514
0.00023664
0.000233195
0.000229173
0.000235936
0.000285232
0.000332275
0.000280226
0.00023629
0.000230345
0.000233911
0.000236504
0.000237738
0.000238303
0.000238503
0.000238275
0.000237695
0.000236473
0.00023393
0.000230445
0.000236384
0.000280112
0.000322587
0.000275745
0.000237412
0.000232458
0.000235569
0.000237301
0.000237899
0.000238025
0.000238134
0.000238015
0.000237889
0.000237309
0.000235628
0.000232596
0.000237549
0.000275673
1.42113e-06
1.47051e-06
6.59131e-07
6.58928e-07
6.91031e-07
7.052e-07
7.12212e-07
7.1763e-07
7.18508e-07
7.18559e-07
7.14388e-07
7.08141e-07
6.94129e-07
6.61678e-07
6.61656e-07
1.47265e-06
2.1766e-06
5.97525e-07
4.67102e-07
5.93798e-07
6.02482e-07
6.48996e-07
6.63682e-07
6.81402e-07
6.80357e-07
6.81376e-07
6.63579e-07
6.49106e-07
6.02217e-07
5.93636e-07
4.68167e-07
5.97249e-07
1.27718e-05
2.60526e-06
2.53675e-06
3.3845e-06
3.40659e-06
3.70312e-06
3.79309e-06
3.90554e-06
3.89736e-06
3.90445e-06
3.79025e-06
3.70097e-06
3.40177e-06
3.38074e-06
2.54157e-06
2.60149e-06
4.18983e-05
8.70604e-06
8.70264e-06
1.15819e-05
1.16325e-05
1.26345e-05
1.2934e-05
1.33121e-05
1.3283e-05
1.33082e-05
1.29237e-05
1.26263e-05
1.16153e-05
1.15684e-05
8.71889e-06
8.69352e-06
9.78368e-05
2.10473e-05
2.13454e-05
2.82678e-05
2.83431e-05
3.07449e-05
3.14548e-05
3.23568e-05
3.22846e-05
3.23468e-05
3.14287e-05
3.07238e-05
2.83003e-05
2.82342e-05
2.13846e-05
2.10186e-05
0.000184651
4.15388e-05
4.2579e-05
5.60888e-05
5.61549e-05
6.08256e-05
6.21939e-05
6.39386e-05
6.37952e-05
6.39182e-05
6.21403e-05
6.07813e-05
5.60683e-05
5.60209e-05
4.26555e-05
4.14859e-05
0.000298191
7.13349e-05
7.36753e-05
9.64561e-05
9.64336e-05
0.000104257
0.000106531
0.000109433
0.00010919
0.000109397
0.000106436
0.000104176
9.62817e-05
9.63373e-05
7.38027e-05
7.12503e-05
0.00042617
0.000110163
0.000114364
0.00014861
0.00014835
0.000159972
0.000163323
0.000167596
0.000167233
0.000167539
0.000163173
0.000159841
0.000148113
0.000148425
0.000114552
0.000110042
0.000554889
0.00015598
0.000162491
0.000209377
0.000208656
0.000224312
0.000228781
0.000234469
0.00023398
0.000234388
0.000228565
0.000224119
0.00020832
0.000209115
0.000162741
0.000155821
0.000675521
0.000205523
0.000214612
0.000274305
0.000272855
0.00029241
0.000297927
0.000304934
0.000304323
0.000304827
0.000297639
0.000292148
0.000272411
0.00027396
0.000214921
0.000205327
0.000784862
0.000255463
0.000267213
0.000339352
0.000336896
0.000360055
0.000366495
0.000374667
0.000373945
0.000374535
0.000366134
0.00035972
0.000336343
0.000338923
0.000267571
0.000255234
0.000883055
0.000303294
0.000317587
0.00040182
0.000398097
0.000424578
0.000431819
0.000441011
0.000440187
0.000440855
0.000431384
0.000424167
0.000397433
0.000401305
0.000317985
0.000303034
0.0009715
0.000347514
0.000364042
0.00046031
0.000455083
0.000484704
0.000492648
0.000502752
0.000501831
0.000502569
0.000492137
0.000484212
0.000454304
0.000459706
0.000364471
0.000347223
0.00105177
0.000387402
0.000405699
0.00051426
0.000507316
0.000540009
0.00054859
0.000559537
0.000558525
0.000559329
0.000548
0.00053943
0.000506416
0.000513562
0.000406151
0.000387078
0.00112516
0.000422736
0.000442239
0.000563462
0.000554612
0.000590432
0.000599617
0.000611385
0.000610281
0.000611148
0.000598941
0.000589758
0.000553581
0.000562662
0.000442708
0.000422378
0.00119264
0.000453629
0.000473769
0.000607853
0.000596936
0.000636004
0.000645779
0.000658368
0.000657172
0.000658101
0.00064501
0.000635223
0.000595763
0.000606941
0.000474252
0.000453243
0.00125481
0.000480344
0.000500539
0.000647413
0.000634299
0.000676763
0.000687126
0.000700553
0.000699265
0.000700253
0.000686258
0.000675865
0.000632974
0.000646381
0.00050103
0.000479926
0.00131198
0.000502977
0.000522656
0.000682147
0.000666756
0.000712738
0.000723692
0.000737977
0.000736597
0.000737642
0.000722718
0.000711713
0.000665272
0.000680989
0.00052315
0.000502529
0.00136423
0.000521658
0.000540311
0.000712126
0.00069444
0.000743981
0.000755519
0.000770665
0.000769194
0.000770292
0.000754435
0.000742821
0.000692797
0.000710841
0.000540805
0.00052118
0.00141146
0.000536564
0.0005538
0.000737519
0.000717436
0.000770606
0.000782701
0.000798678
0.000797118
0.000798266
0.000781506
0.000769309
0.000715622
0.000736095
0.000554292
0.000536062
0.00145345
0.000547927
0.000563507
0.000758199
0.000735669
0.000792643
0.000805316
0.000822176
0.000820534
0.000821727
0.000804
0.000791196
0.000733675
0.000756626
0.000563995
0.000547407
0.00148987
0.000556018
0.000569877
0.000774128
0.000749172
0.000809985
0.000823231
0.000841008
0.000839284
0.000840519
0.000821789
0.00080838
0.000746999
0.000772404
0.000570359
0.000555488
0.00152036
0.000561137
0.000573385
0.000785395
0.000758107
0.000822619
0.000836394
0.000855076
0.000853271
0.000854543
0.000834827
0.000820854
0.000755763
0.000783524
0.000573861
0.000560607
0.00154457
0.000563588
0.000574523
0.000792217
0.000762742
0.000830672
0.000844902
0.00086443
0.000862547
0.000863855
0.000843218
0.000828753
0.00076024
0.000790209
0.000574992
0.000563067
0.00156217
0.000563698
0.000573768
0.000794931
0.000763438
0.000834421
0.000849013
0.000869299
0.000867343
0.000868683
0.00084722
0.000832357
0.000760794
0.000792797
0.00057423
0.000563195
0.00157295
0.000561757
0.000571558
0.000793978
0.000760642
0.00083428
0.000849134
0.000870072
0.000868049
0.00086942
0.000847244
0.000832083
0.000757873
0.000791731
0.000572012
0.000561283
0.00157681
0.000558038
0.000568287
0.00078989
0.000754873
0.00083077
0.000845786
0.000867266
0.000865181
0.000866581
0.000843812
0.000828452
0.000751995
0.000787541
0.000568734
0.000557601
0.0015738
0.000552794
0.000564295
0.000783103
0.000746607
0.00082423
0.000839289
0.000861187
0.000859048
0.000860471
0.000837246
0.000821809
0.000743639
0.00078067
0.000564736
0.000552402
0.00156408
0.000546263
0.000559862
0.000773657
0.000736016
0.000814339
0.000829226
0.000851314
0.000849135
0.000850571
0.00082715
0.000811855
0.000732994
0.000771173
0.000560296
0.000545924
0.00154794
0.000538671
0.000555205
0.000761337
0.000723003
0.000800494
0.000814897
0.000836812
0.000834618
0.000836049
0.000812836
0.000798004
0.00071998
0.000758853
0.000555632
0.000538391
0.00152577
0.000530229
0.000550481
0.000746068
0.000707512
0.000782424
0.000795994
0.000817308
0.00081513
0.000816537
0.000794002
0.000779995
0.000704551
0.00074364
0.000550902
0.000530012
0.00149801
0.000521133
0.000545793
0.00072804
0.000689686
0.000760302
0.000772699
0.000792976
0.000790848
0.000792212
0.000770825
0.000757994
0.000686853
0.000725723
0.000546207
0.000520981
0.00146478
0.000511559
0.000541205
0.000707653
0.000669859
0.000734619
0.000745539
0.000764375
0.000762326
0.00076363
0.000743827
0.000732487
0.000667212
0.000705497
0.000541612
0.000511473
0.0014259
0.000501659
0.000536746
0.000685435
0.000648481
0.000706142
0.000715398
0.000732459
0.000730524
0.000731752
0.000713878
0.000704227
0.000646071
0.000683481
0.000537146
0.000501638
0.00138121
0.000491567
0.000532421
0.000661969
0.00062609
0.000676036
0.000683566
0.000698646
0.000696854
0.00069799
0.000682251
0.000674361
0.000623949
0.00066025
0.000532814
0.000491608
0.0013312
0.000481396
0.000528214
0.000637973
0.000603334
0.000645406
0.000651185
0.000664183
0.000662546
0.000663587
0.000650081
0.000643979
0.000601476
0.000636497
0.000528598
0.000481494
0.00127698
0.000471238
0.00052409
0.000614136
0.000580816
0.00061501
0.000619063
0.000629935
0.000628462
0.000629403
0.000618168
0.000613831
0.000579242
0.000612898
0.000524464
0.000471387
0.00121979
0.000461165
0.000520001
0.00059095
0.000558984
0.00058553
0.000587927
0.000596694
0.000595389
0.000596229
0.000587232
0.00058459
0.000557688
0.000589943
0.000520364
0.000461359
0.00116075
0.000451224
0.000515889
0.000568811
0.000538209
0.000557524
0.000558384
0.00056513
0.000563992
0.000564733
0.000557876
0.00055681
0.000537175
0.000568021
0.000516238
0.000451454
0.00110062
0.000441444
0.000511683
0.000548016
0.000518767
0.000531426
0.000530908
0.000535775
0.000534795
0.000535443
0.000530567
0.000530916
0.000517976
0.000547425
0.000512019
0.000441703
0.00103994
0.000431837
0.000507306
0.000528755
0.000500837
0.00050753
0.000505828
0.000509005
0.000508175
0.000508734
0.00050563
0.000507198
0.000500263
0.000528343
0.000507626
0.000432119
0.000979197
0.000422378
0.000502673
0.000511111
0.0004845
0.000485994
0.000483316
0.000485026
0.000484336
0.000484811
0.000483237
0.000485811
0.000484119
0.000510858
0.000502976
0.000422677
0.00091878
0.000413053
0.000497696
0.000495078
0.000469753
0.000466838
0.000463394
0.000463878
0.000463312
0.000463711
0.000463408
0.000466775
0.000469538
0.000494961
0.00049798
0.000413364
0.000859061
0.000403867
0.000492296
0.000480576
0.000456545
0.000449968
0.000445959
0.000445456
0.000444999
0.00044533
0.000446042
0.000449997
0.000456473
0.000480573
0.000492562
0.000404184
0.000800392
0.000394824
0.000486409
0.000467487
0.000444762
0.000435212
0.00043082
0.000429555
0.000429189
0.000429462
0.00043095
0.000435306
0.000444804
0.000467579
0.000486655
0.000395143
0.000743143
0.000385928
0.000479983
0.000455655
0.000434216
0.000422356
0.000417733
0.000415893
0.000415605
0.000415827
0.000417891
0.000422492
0.000434337
0.00045582
0.000480209
0.000386243
0.000687716
0.000377186
0.000472986
0.000444882
0.00042469
0.000411207
0.000406451
0.000404119
0.000403905
0.000404076
0.000406623
0.00041137
0.00042486
0.000445094
0.000473191
0.000377494
0.00063454
0.000368612
0.000465401
0.000434962
0.00041598
0.000401531
0.000396705
0.000393964
0.000393822
0.00039394
0.000396882
0.000401707
0.00041617
0.000435196
0.000465585
0.000368907
0.000584046
0.000360215
0.000457234
0.000425719
0.000407899
0.000392992
0.000388177
0.000385163
0.000385082
0.000385151
0.000388347
0.000393167
0.000408088
0.000425956
0.000457396
0.000360496
0.000536644
0.000352004
0.000448511
0.000417013
0.000400283
0.000385271
0.000380538
0.000377382
0.000377348
0.000377377
0.000380692
0.00038543
0.000400454
0.000417237
0.000448652
0.000352266
0.000492695
0.000343981
0.000439288
0.000408723
0.00039296
0.000378112
0.000373515
0.000370324
0.000370324
0.00037032
0.000373645
0.000378247
0.000393106
0.000408923
0.000439408
0.000344224
0.000452482
0.000336148
0.000429684
0.000400725
0.000385782
0.00037131
0.000366886
0.000363742
0.000363765
0.000363735
0.000366988
0.000371414
0.000385896
0.000400897
0.000429782
0.000336369
0.000416203
0.000328503
0.000419827
0.000392878
0.000378649
0.000364708
0.000360479
0.000357443
0.000357481
0.000357429
0.000360551
0.000364776
0.000378725
0.000393019
0.000419905
0.000328702
0.00038396
0.000321045
0.00040986
0.000385088
0.0003715
0.000358192
0.00035417
0.000351281
0.000351326
0.00035126
0.000354209
0.000358222
0.000371538
0.000385197
0.000409919
0.00032122
0.000355762
0.000313773
0.000399929
0.000377314
0.000364308
0.000351686
0.000347872
0.000345156
0.000345204
0.000345125
0.00034788
0.000351679
0.000364308
0.00037739
0.000399969
0.000313924
0.000331473
0.000306686
0.000390146
0.000369533
0.000357059
0.000345141
0.00034153
0.000338999
0.000339047
0.000338959
0.000341507
0.000345097
0.000357021
0.000369577
0.000390169
0.000306814
0.000310777
0.000299782
0.000380536
0.000361716
0.000349733
0.000338514
0.000335096
0.000332755
0.0003328
0.000332705
0.000335045
0.000338436
0.00034966
0.00036173
0.000380544
0.000299887
0.000293315
0.000293064
0.000371027
0.00035385
0.000342326
0.000331783
0.000328546
0.000326393
0.000326432
0.000326333
0.000328468
0.000331674
0.000342221
0.000353836
0.000371022
0.000293148
0.000278702
0.000286542
0.000361574
0.000345939
0.000334845
0.000324945
0.000321874
0.000319903
0.000319935
0.000319835
0.000321773
0.000324809
0.000334712
0.000345899
0.000361558
0.000286606
0.000266548
0.000280235
0.0003522
0.000337995
0.00032731
0.000318012
0.000315093
0.000313296
0.000313319
0.00031322
0.000314974
0.000317853
0.000327153
0.000337934
0.000352174
0.000280279
0.000256474
0.000274163
0.000342934
0.000330045
0.000319749
0.00031101
0.000308231
0.000306596
0.000306611
0.000306514
0.000308095
0.000310832
0.000319573
0.000329965
0.0003429
0.00027419
0.000248139
0.000268353
0.000333812
0.000322121
0.0003122
0.000303976
0.000301325
0.000299842
0.000299847
0.000299754
0.000301178
0.000303783
0.000312009
0.000322026
0.00033377
0.000268365
0.000241255
0.000262836
0.000324873
0.000314265
0.000304706
0.000296957
0.000294425
0.000293082
0.000293078
0.00029299
0.000294269
0.000296754
0.000304505
0.000314158
0.000324824
0.000262835
0.000235677
0.000257647
0.000316158
0.000306523
0.000297318
0.000290006
0.000287587
0.000286373
0.000286362
0.00028628
0.000287426
0.000289797
0.000297109
0.000306408
0.000316105
0.000257634
0.000231329
0.000252822
0.000307716
0.000298948
0.000290088
0.000283183
0.000280873
0.000279779
0.000279761
0.000279685
0.00028071
0.000282973
0.000289878
0.000298827
0.000307659
0.000252799
0.000228069
0.000248403
0.000299595
0.000291593
0.000283075
0.000276552
0.00027435
0.000273368
0.000273345
0.000273276
0.000274189
0.000276344
0.000282867
0.000291471
0.000299535
0.00024837
0.000225756
0.000244429
0.00029185
0.000284519
0.00027634
0.000270181
0.000268088
0.000267213
0.000267187
0.000267124
0.000267932
0.000269979
0.000276138
0.000284397
0.000291788
0.000244389
0.000224284
0.000240942
0.000284538
0.000277786
0.000269947
0.000264138
0.000262158
0.000261386
0.000261359
0.000261302
0.00026201
0.000263946
0.000269753
0.000277668
0.000284475
0.000240895
0.000223578
0.000237982
0.000277719
0.000271459
0.000263961
0.000258496
0.000256636
0.000255964
0.000255937
0.000255886
0.000256498
0.000258317
0.000263779
0.000271346
0.000277656
0.00023793
0.000223582
0.000235591
0.00027145
0.000265602
0.000258448
0.000253326
0.000251594
0.00025102
0.000250997
0.00025095
0.00025147
0.000253163
0.000258281
0.000265496
0.000271388
0.000235533
0.000224258
0.000233804
0.000265791
0.000260281
0.000253477
0.0002487
0.000247106
0.00024663
0.000246613
0.000246569
0.000246996
0.000248555
0.000253327
0.000260184
0.000265729
0.000233742
0.000225579
0.00023266
0.000260799
0.000255562
0.000249116
0.00024469
0.000243244
0.000242867
0.000242858
0.000242815
0.000243151
0.000244564
0.000248984
0.000255475
0.000260739
0.000232594
0.000227526
0.00023219
0.000256533
0.00025151
0.00024543
0.000241363
0.000240077
0.0002398
0.000239803
0.000239759
0.000240002
0.00024126
0.000245318
0.000251434
0.000256474
0.00023212
0.000230089
0.000232426
0.000253048
0.00024819
0.000242485
0.000238788
0.000237672
0.000237498
0.000237514
0.000237468
0.000237616
0.000238708
0.000242395
0.000248126
0.000252991
0.000232352
0.000233263
0.000233396
0.000250402
0.000245665
0.000240345
0.000237029
0.000236094
0.000236026
0.000236057