0 	0 	0 	0
0 	-2.02674e-36 	-2.52789e-36 	1.84922e-31
5.01672e-05 	-2.37214e-07 	-2.7908e-07 	0.0172513
5.01672e-05 	-2.37214e-07 	-2.7908e-07 	0.0172513
0.000100334 	-8.0903e-07 	-9.33697e-07 	0.0331945
0.000150502 	-1.40349e-06 	-2.01442e-06 	0.0479996
0.000150502 	-1.40349e-06 	-2.01442e-06 	0.0479996
0.000200669 	-1.91285e-06 	-3.51686e-06 	0.0617531
0.000200669 	-1.91285e-06 	-3.51686e-06 	0.0617531
0.000250836 	-2.36342e-06 	-5.4409e-06 	0.0745307
0.000301003 	-2.77789e-06 	-7.77609e-06 	0.0863952
0.000301003 	-2.77789e-06 	-7.77609e-06 	0.0863952
0.000351171 	-3.16293e-06 	-1.05201e-05 	0.0973868
0.000401338 	-3.52119e-06 	-1.36808e-05 	0.107524
0.000451505 	-3.85316e-06 	-1.72813e-05 	0.116821
0.000451505 	-3.85316e-06 	-1.72813e-05 	0.116821
0.000501672 	-4.15786e-06 	-2.13566e-05 	0.125302
0.000551839 	-4.43381e-06 	-2.59435e-05 	0.133013
0.000551839 	-4.43381e-06 	-2.59435e-05 	0.133013
0.000602007 	-4.67985e-06 	-3.10711e-05 	0.140015
0.000602007 	-4.67985e-06 	-3.10711e-05 	0.140015
0.000652174 	-4.8957e-06 	-3.67616e-05 	0.14638
0.000652174 	-4.8957e-06 	-3.67616e-05 	0.14638
0.000702341 	-5.08207e-06 	-4.30351e-05 	0.15218
0.000702341 	-5.08207e-06 	-4.30351e-05 	0.15218
0.000752508 	-5.24036e-06 	-4.99085e-05 	0.157485
0.000802676 	-5.37193e-06 	-5.73977e-05 	0.16235
0.000852843 	-5.47474e-06 	-6.56018e-05 	0.166768
0.000852843 	-5.47474e-06 	-6.56018e-05 	0.166768
0.00090301 	-5.55479e-06 	-7.43921e-05 	0.170849
0.00090301 	-5.55479e-06 	-7.43921e-05 	0.170849
0.000953177 	-5.61402e-06 	-8.37183e-05 	0.174632
0.00100334 	-5.65436e-06 	-9.35282e-05 	0.178153
0.00100334 	-5.65436e-06 	-9.35282e-05 	0.178153
0.00105351 	-5.67761e-06 	-0.000103772 	0.181443
0.00105351 	-5.67761e-06 	-0.000103772 	0.181443
0.00110368 	-5.68513e-06 	-0.000114412 	0.184527
0.00115385 	-5.67489e-06 	-0.000125494 	0.187382
0.00120401 	-5.65287e-06 	-0.000136861 	0.190086
0.00120401 	-5.65287e-06 	-0.000136861 	0.190086
0.00130435 	-5.57806e-06 	-0.000160312 	0.195102
0.00130435 	-5.57806e-06 	-0.000160312 	0.195102
0.00135452 	-5.52465e-06 	-0.000172387 	0.197406
0.00135452 	-5.52465e-06 	-0.000172387 	0.197406
0.00140468 	-5.46252e-06 	-0.000184623 	0.199601
0.00145485 	-5.39362e-06 	-0.000196969 	0.201711
0.00145485 	-5.39362e-06 	-0.000196969 	0.201711
0.00150502 	-5.31845e-06 	-0.000209405 	0.203745
0.00150502 	-5.31845e-06 	-0.000209405 	0.203745
0.00155518 	-5.23424e-06 	-0.000221931 	0.205671
0.00155518 	-5.23424e-06 	-0.000221931 	0.205671
0.00160535 	-5.14492e-06 	-0.000234476 	0.207536
0.00160535 	-5.14492e-06 	-0.000234476 	0.207536
0.00165552 	-5.05111e-06 	-0.000247025 	0.209349
0.00165552 	-5.05111e-06 	-0.000247025 	0.209349
0.00170569 	-4.95131e-06 	-0.000259543 	0.211091
0.00170569 	-4.95131e-06 	-0.000259543 	0.211091
0.00175585 	-4.84687e-06 	-0.000271984 	0.212777
0.00175585 	-4.84687e-06 	-0.000271984 	0.212777
0.00180602 	-4.73926e-06 	-0.000284356 	0.214425
0.00180602 	-4.73926e-06 	-0.000284356 	0.214425
0.00185619 	-4.62718e-06 	-0.000296595 	0.216019
0.00185619 	-4.62718e-06 	-0.000296595 	0.216019
0.00190635 	-4.51129e-06 	-0.000308664 	0.217568
0.00190635 	-4.51129e-06 	-0.000308664 	0.217568
0.00195652 	-4.39305e-06 	-0.000320614 	0.219088
0.00195652 	-4.39305e-06 	-0.000320614 	0.219088
0.00200669 	-4.2708e-06 	-0.000332319 	0.22056
0.00200669 	-4.2708e-06 	-0.000332319 	0.22056
0.00205686 	-4.14582e-06 	-0.000343807 	0.222
0.00210702 	-4.01902e-06 	-0.000355152 	0.223418
0.00210702 	-4.01902e-06 	-0.000355152 	0.223418
0.00215719 	-3.88807e-06 	-0.000366088 	0.224786
0.00220736 	-3.7556e-06 	-0.000376846 	0.226136
0.00225753 	-3.62071e-06 	-0.000387319 	0.227458
0.00225753 	-3.62071e-06 	-0.000387319 	0.227458
0.00230769 	-3.4831e-06 	-0.000397418 	0.228747
0.00230769 	-3.4831e-06 	-0.000397418 	0.228747
0.00235786 	-3.34432e-06 	-0.000407355 	0.230022
0.00235786 	-3.34432e-06 	-0.000407355 	0.230022
0.00240803 	-3.20214e-06 	-0.000416763 	0.231256
0.00240803 	-3.20214e-06 	-0.000416763 	0.231256
0.00245819 	-3.05883e-06 	-0.000425975 	0.232477
0.00245819 	-3.05883e-06 	-0.000425975 	0.232477
0.00250836 	-2.91322e-06 	-0.000434792 	0.23367
0.00250836 	-2.91322e-06 	-0.000434792 	0.23367
0.00255853 	-2.76567e-06 	-0.000443245 	0.23484
0.0026087 	-2.61672e-06 	-0.000451439 	0.235993
0.0026087 	-2.61672e-06 	-0.000451439 	0.235993
0.00265886 	-2.46511e-06 	-0.000459107 	0.237114
0.00270903 	-2.31286e-06 	-0.00046665 	0.238228
0.00270903 	-2.31286e-06 	-0.00046665 	0.238228
0.0027592 	-2.15727e-06 	-0.000473519 	0.239302
0.00280936 	-2.00112e-06 	-0.000480278 	0.240371
0.00280936 	-2.00112e-06 	-0.000480278 	0.240371
0.00285953 	-1.84205e-06 	-0.000486454 	0.241407
0.00285953 	-1.84205e-06 	-0.000486454 	0.241407
0.0029097 	-1.68192e-06 	-0.000492433 	0.242431
0.0029097 	-1.68192e-06 	-0.000492433 	0.242431
0.00295987 	-1.51917e-06 	-0.000497915 	0.243428
0.00295987 	-1.51917e-06 	-0.000497915 	0.243428
0.00301003 	-1.35495e-06 	-0.000503142 	0.244411
0.0030602 	-1.18831e-06 	-0.000507946 	0.245369
0.00311037 	-1.01991e-06 	-0.000512469 	0.246311
0.00311037 	-1.01991e-06 	-0.000512469 	0.246311
0.00316054 	-8.49217e-07 	-0.000516627 	0.247231
0.00316054 	-8.49217e-07 	-0.000516627 	0.247231
0.00326087 	-5.01768e-07 	-0.000524066 	0.249015
0.00326087 	-5.01768e-07 	-0.000524066 	0.249015
0.00331104 	-3.24946e-07 	-0.000527377 	0.24988
0.0033612 	-1.45676e-07 	-0.000530384 	0.250723
0.0033612 	-1.45676e-07 	-0.000530384 	0.250723
0.00341137 	3.55775e-08 	-0.000533194 	0.251551
0.00341137 	3.55775e-08 	-0.000533194 	0.251551
0.00346154 	2.19839e-07 	-0.000535706 	0.252357
0.00346154 	2.19839e-07 	-0.000535706 	0.252357
0.00351171 	4.05876e-07 	-0.000538082 	0.25315
0.00356187 	5.9582e-07 	-0.000540159 	0.253918
0.00356187 	5.9582e-07 	-0.000540159 	0.253918
0.00361204 	7.86893e-07 	-0.000542162 	0.254679
0.00366221 	9.82774e-07 	-0.000543855 	0.255412
0.00366221 	9.82774e-07 	-0.000543855 	0.255412
0.00371237 	1.17882e-06 	-0.000545537 	0.256145
0.00371237 	1.17882e-06 	-0.000545537 	0.256145
0.00376254 	1.38025e-06 	-0.000546888 	0.256845
0.00376254 	1.38025e-06 	-0.000546888 	0.256845
0.00381271 	1.58169e-06 	-0.000548239 	0.257545
0.00381271 	1.58169e-06 	-0.000548239 	0.257545
0.00386288 	1.78715e-06 	-0.000549336 	0.258219
0.00391304 	1.99343e-06 	-0.000550382 	0.258887
0.00391304 	1.99343e-06 	-0.000550382 	0.258887
0.00396321 	2.20219e-06 	-0.000551267 	0.259536
0.00401338 	2.41267e-06 	-0.000552042 	0.260172
0.00401338 	2.41267e-06 	-0.000552042 	0.260172
0.00406355 	2.62429e-06 	-0.000552741 	0.260798
0.00406355 	2.62429e-06 	-0.000552741 	0.260798
0.00411371 	2.83842e-06 	-0.000553278 	0.261402
0.00411371 	2.83842e-06 	-0.000553278 	0.261402
0.00421405 	3.26972e-06 	-0.000554149 	0.262578
0.00421405 	3.26972e-06 	-0.000554149 	0.262578
0.00426421 	3.48691e-06 	-0.000554482 	0.263149
0.00426421 	3.48691e-06 	-0.000554482 	0.263149
0.00431438 	3.7056e-06 	-0.000554709 	0.263701
0.00431438 	3.7056e-06 	-0.000554709 	0.263701
0.00436455 	3.92516e-06 	-0.000554874 	0.26424
0.00436455 	3.92516e-06 	-0.000554874 	0.26424
0.00441472 	4.14509e-06 	-0.000555007 	0.264772
0.00441472 	4.14509e-06 	-0.000555007 	0.264772
0.00446488 	4.36623e-06 	-0.000555038 	0.26528
0.00446488 	4.36623e-06 	-0.000555038 	0.26528
0.00451505 	4.58738e-06 	-0.000555068 	0.265787
0.00451505 	4.58738e-06 	-0.000555068 	0.265787
0.00456522 	4.80904e-06 	-0.000555019 	0.266269
0.00456522 	4.80904e-06 	-0.000555019 	0.266269
0.00461538 	5.03085e-06 	-0.000554948 	0.266744
0.00461538 	5.03085e-06 	-0.000554948 	0.266744
0.00466555 	5.25256e-06 	-0.000554857 	0.267209
0.00471572 	5.47402e-06 	-0.000554718 	0.267652
0.00476589 	5.69549e-06 	-0.000554579 	0.268094
0.00476589 	5.69549e-06 	-0.000554579 	0.268094
0.00486622 	6.13594e-06 	-0.000554234 	0.268923
0.00486622 	6.13594e-06 	-0.000554234 	0.268923
0.00491639 	6.35555e-06 	-0.000554055 	0.269328
0.00496656 	6.57311e-06 	-0.000553867 	0.269706
0.00496656 	6.57311e-06 	-0.000553867 	0.269706
0.00501672 	6.79068e-06 	-0.000553679 	0.270084
0.00506689 	7.00623e-06 	-0.000553497 	0.270444
0.00511706 	7.22013e-06 	-0.000553321 	0.27079
0.00511706 	7.22013e-06 	-0.000553321 	0.27079
0.00521739 	7.64364e-06 	-0.000552993 	0.271455
0.00521739 	7.64364e-06 	-0.000552993 	0.271455
0.00526756 	7.85264e-06 	-0.000552846 	0.271769
0.00526756 	7.85264e-06 	-0.000552846 	0.271769
0.00531773 	8.06069e-06 	-0.000552705 	0.272078
0.00536789 	8.26352e-06 	-0.0005526 	0.272361
0.00536789 	8.26352e-06 	-0.0005526 	0.272361
0.00541806 	8.46635e-06 	-0.000552494 	0.272644
0.00546823 	8.66633e-06 	-0.000552408 	0.272915
0.00551839 	8.86171e-06 	-0.000552351 	0.273166
0.00551839 	8.86171e-06 	-0.000552351 	0.273166
0.00556856 	9.05709e-06 	-0.000552295 	0.273418
0.00556856 	9.05709e-06 	-0.000552295 	0.273418
0.0056689 	9.43407e-06 	-0.000552261 	0.273874
0.0056689 	9.43407e-06 	-0.000552261 	0.273874
0.00571906 	9.62062e-06 	-0.000552255 	0.274095
0.00576923 	9.79999e-06 	-0.00055228 	0.274296
0.00576923 	9.79999e-06 	-0.00055228 	0.274296
0.0058194 	9.97615e-06 	-0.00055232 	0.274488
0.0058194 	9.97615e-06 	-0.00055232 	0.274488
0.00591973 	1.03191e-05 	-0.000552427 	0.27485
0.00591973 	1.03191e-05 	-0.000552427 	0.27485
0.0059699 	1.04831e-05 	-0.000552503 	0.275013
0.0059699 	1.04831e-05 	-0.000552503 	0.275013
0.00602007 	1.06471e-05 	-0.000552578 	0.275177
0.00607023 	1.08e-05 	-0.00055267 	0.275318
0.0061204 	1.095e-05 	-0.000552766 	0.275453
0.0061204 	1.095e-05 	-0.000552766 	0.275453
0.00617057 	1.11e-05 	-0.000552862 	0.275589
0.00622074 	1.12378e-05 	-0.000552961 	0.275704
0.00622074 	1.12378e-05 	-0.000552961 	0.275704
0.0062709 	1.13719e-05 	-0.000553061 	0.275813
0.00632107 	1.1506e-05 	-0.000553161 	0.275922
0.00632107 	1.1506e-05 	-0.000553161 	0.275922
0.00637124 	1.16279e-05 	-0.000553252 	0.276013
0.00637124 	1.16279e-05 	-0.000553252 	0.276013
0.0064214 	1.17441e-05 	-0.00055334 	0.276096
0.0064214 	1.17441e-05 	-0.00055334 	0.276096
0.00647157 	1.18603e-05 	-0.000553427 	0.276179
0.00647157 	1.18603e-05 	-0.000553427 	0.276179
0.00652174 	1.19656e-05 	-0.000553492 	0.276248
0.00657191 	1.20617e-05 	-0.00055354 	0.276305
0.00657191 	1.20617e-05 	-0.00055354 	0.276305
0.00662207 	1.21577e-05 	-0.000553588 	0.276363
0.00667224 	1.22459e-05 	-0.000553619 	0.276412
0.00672241 	1.23194e-05 	-0.00055362 	0.276445
0.00672241 	1.23194e-05 	-0.00055362 	0.276445
0.00677258 	1.23929e-05 	-0.000553621 	0.276478
0.00682274 	1.24639e-05 	-0.000553617 	0.276508
0.00682274 	1.24639e-05 	-0.000553617 	0.276508
0.00687291 	1.25122e-05 	-0.000553569 	0.276517
0.00687291 	1.25122e-05 	-0.000553569 	0.276517
0.00692308 	1.25605e-05 	-0.000553521 	0.276525
0.00697324 	1.26087e-05 	-0.000553473 	0.276534
0.00702341 	1.2635e-05 	-0.000553364 	0.276523
0.00707358 	1.26554e-05 	-0.00055324 	0.276508
0.00707358 	1.26554e-05 	-0.00055324 	0.276508
0.00717391 	1.26832e-05 	-0.000552966 	0.276466
0.00717391 	1.26832e-05 	-0.000552966 	0.276466
0.00722408 	1.26725e-05 	-0.000552782 	0.276427
0.00722408 	1.26725e-05 	-0.000552782 	0.276427
0.00727425 	1.26617e-05 	-0.000552598 	0.276387
0.00727425 	1.26617e-05 	-0.000552598 	0.276387
0.00732441 	1.2651e-05 	-0.000552415 	0.276347
0.00732441 	1.2651e-05 	-0.000552415 	0.276347
0.00737458 	1.26067e-05 	-0.000552148 	0.276284
0.00737458 	1.26067e-05 	-0.000552148 	0.276284
0.00742475 	1.2562e-05 	-0.000551882 	0.276221
0.00747492 	1.25173e-05 	-0.000551615 	0.276157
0.00752508 	1.24555e-05 	-0.000551288 	0.276082
0.00752508 	1.24555e-05 	-0.000551288 	0.276082
0.00757525 	1.23766e-05 	-0.000550903 	0.275995
0.00762542 	1.22976e-05 	-0.000550517 	0.275908
0.00767559 	1.22183e-05 	-0.00055013 	0.27582
0.00767559 	1.22183e-05 	-0.00055013 	0.27582
0.00772575 	1.21063e-05 	-0.000549646 	0.275709
0.00777592 	1.19944e-05 	-0.000549163 	0.275598
0.00777592 	1.19944e-05 	-0.000549163 	0.275598
0.00782609 	1.18824e-05 	-0.00054868 	0.275486
0.00787625 	1.17537e-05 	-0.000548126 	0.275362
0.00787625 	1.17537e-05 	-0.000548126 	0.275362
0.00792642 	1.16129e-05 	-0.000547521 	0.275227
0.00797659 	1.14722e-05 	-0.000546915 	0.275093
0.00802676 	1.13263e-05 	-0.000546286 	0.274954
0.00802676 	1.13263e-05 	-0.000546286 	0.274954
0.00807692 	1.11612e-05 	-0.000545564 	0.274796
0.00807692 	1.11612e-05 	-0.000545564 	0.274796
0.00812709 	1.09961e-05 	-0.000544843 	0.274639
0.00817726 	1.0831e-05 	-0.000544121 	0.274482
0.00817726 	1.0831e-05 	-0.000544121 	0.274482
0.00822742 	1.06471e-05 	-0.000543319 	0.274304
0.00827759 	1.0461e-05 	-0.000542508 	0.274124
0.00827759 	1.0461e-05 	-0.000542508 	0.274124
0.00832776 	1.02749e-05 	-0.000541696 	0.273944
0.00832776 	1.02749e-05 	-0.000541696 	0.273944
0.00837793 	1.00774e-05 	-0.000540821 	0.273749
0.00842809 	9.87359e-06 	-0.00053991 	0.273547
0.00842809 	9.87359e-06 	-0.00053991 	0.273547
0.00847826 	9.66981e-06 	-0.000538999 	0.273344
0.00847826 	9.66981e-06 	-0.000538999 	0.273344
0.0085786 	9.241e-06 	-0.000537037 	0.272907
0.0085786 	9.241e-06 	-0.000537037 	0.272907
0.00862876 	9.02261e-06 	-0.000536029 	0.272682
0.00867893 	8.80049e-06 	-0.000534992 	0.27245
0.0087291 	8.57034e-06 	-0.00053389 	0.272203
0.00877926 	8.34019e-06 	-0.000532788 	0.271955
0.00882943 	8.10788e-06 	-0.000531665 	0.271703
0.0088796 	7.86856e-06 	-0.00053047 	0.271433
0.0088796 	7.86856e-06 	-0.00053047 	0.271433
0.00892977 	7.62923e-06 	-0.000529276 	0.271163
0.00892977 	7.62923e-06 	-0.000529276 	0.271163
0.00897993 	7.38849e-06 	-0.000528063 	0.270889
0.00897993 	7.38849e-06 	-0.000528063 	0.270889
0.0090301 	7.14231e-06 	-0.000526777 	0.270597
0.00908027 	6.89613e-06 	-0.000525491 	0.270305
0.00908027 	6.89613e-06 	-0.000525491 	0.270305
0.00913043 	6.64883e-06 	-0.000524184 	0.270007
0.0091806 	6.39786e-06 	-0.000522807 	0.269692
0.0091806 	6.39786e-06 	-0.000522807 	0.269692
0.00923077 	6.14689e-06 	-0.00052143 	0.269378
0.00928094 	5.895e-06 	-0.000520025 	0.269056
0.00928094 	5.895e-06 	-0.000520025 	0.269056
0.0093311 	5.64105e-06 	-0.000518557 	0.268718
0.00938127 	5.3871e-06 	-0.000517089 	0.26838
0.00938127 	5.3871e-06 	-0.000517089 	0.26838
0.00943144 	5.13253e-06 	-0.00051558 	0.268032
0.00943144 	5.13253e-06 	-0.00051558 	0.268032
0.00948161 	4.87718e-06 	-0.000514019 	0.267672
0.00948161 	4.87718e-06 	-0.000514019 	0.267672
0.00953177 	4.62182e-06 	-0.000512458 	0.267311
0.00953177 	4.62182e-06 	-0.000512458 	0.267311
0.00958194 	4.36644e-06 	-0.000510838 	0.266936
0.00958194 	4.36644e-06 	-0.000510838 	0.266936
0.00963211 	4.11105e-06 	-0.000509183 	0.266551
0.00968227 	3.85566e-06 	-0.000507527 	0.266167
0.00968227 	3.85566e-06 	-0.000507527 	0.266167
0.00973244 	3.60125e-06 	-0.000505789 	0.265763
0.00978261 	3.34702e-06 	-0.000504035 	0.265355
0.00978261 	3.34702e-06 	-0.000504035 	0.265355
0.00983278 	3.09307e-06 	-0.000502269 	0.264943
0.00983278 	3.09307e-06 	-0.000502269 	0.264943
0.00988294 	2.84106e-06 	-0.000500414 	0.264511
0.00993311 	2.58904e-06 	-0.00049856 	0.264079
0.00993311 	2.58904e-06 	-0.00049856 	0.264079
0.00998328 	2.33844e-06 	-0.000496657 	0.263635
0.0100334 	2.08955e-06 	-0.000494696 	0.263178
0.0100836 	1.84067e-06 	-0.000492734 	0.262721
0.0100836 	1.84067e-06 	-0.000492734 	0.262721
0.0101338 	1.59502e-06 	-0.000490681 	0.262243
0.0101839 	1.35006e-06 	-0.000488608 	0.26176
0.0101839 	1.35006e-06 	-0.000488608 	0.26176
0.0102341 	1.10623e-06 	-0.000486506 	0.261271
0.0102341 	1.10623e-06 	-0.000486506 	0.261271
0.0102843 	8.65888e-07 	-0.000484315 	0.260762
0.0103344 	6.25549e-07 	-0.000482123 	0.260254
0.0103344 	6.25549e-07 	-0.000482123 	0.260254
0.0103846 	3.88913e-07 	-0.000479843 	0.259726
0.0103846 	3.88913e-07 	-0.000479843 	0.259726
0.0104348 	1.53802e-07 	-0.000477525 	0.259191
0.0104348 	1.53802e-07 	-0.000477525 	0.259191
0.0104849 	-8.00534e-08 	-0.000475179 	0.258649
0.0104849 	-8.00534e-08 	-0.000475179 	0.258649
0.0105351 	-3.09398e-07 	-0.000472728 	0.258086
0.0105853 	-5.38743e-07 	-0.000470276 	0.257523
0.0105853 	-5.38743e-07 	-0.000470276 	0.257523
0.0106856 	-9.8638e-07 	-0.000465121 	0.256347
0.0106856 	-9.8638e-07 	-0.000465121 	0.256347
0.0107358 	-1.20704e-06 	-0.000462471 	0.255745
0.010786 	-1.42348e-06 	-0.000459726 	0.255124
0.010786 	-1.42348e-06 	-0.000459726 	0.255124
0.0108361 	-1.63988e-06 	-0.000456979 	0.254503
0.0108863 	-1.8493e-06 	-0.000454071 	0.253851
0.0108863 	-1.8493e-06 	-0.000454071 	0.253851
0.0109365 	-2.05872e-06 	-0.000451164 	0.253199
0.0109365 	-2.05872e-06 	-0.000451164 	0.253199
0.0109866 	-2.26308e-06 	-0.00044814 	0.252526
0.0110368 	-2.46514e-06 	-0.000445063 	0.251842
0.0110368 	-2.46514e-06 	-0.000445063 	0.251842
0.011087 	-2.66406e-06 	-0.000441911 	0.251145
0.011087 	-2.66406e-06 	-0.000441911 	0.251145
0.0111371 	-2.85844e-06 	-0.000438653 	0.250429
0.0111873 	-3.05146e-06 	-0.000435362 	0.249706
0.0111873 	-3.05146e-06 	-0.000435362 	0.249706
0.0112375 	-3.23783e-06 	-0.000431909 	0.248954
0.0112876 	-3.42419e-06 	-0.000428456 	0.248203
0.0112876 	-3.42419e-06 	-0.000428456 	0.248203
0.0113378 	-3.60242e-06 	-0.000424798 	0.247416
0.0113378 	-3.60242e-06 	-0.000424798 	0.247416
0.011388 	-3.78039e-06 	-0.000421135 	0.246628
0.0114381 	-3.95133e-06 	-0.00041728 	0.245809
0.0114381 	-3.95133e-06 	-0.00041728 	0.245809
0.0114883 	-4.12061e-06 	-0.00041338 	0.244982
0.0115385 	-4.28366e-06 	-0.000409291 	0.244125
0.0115385 	-4.28366e-06 	-0.000409291 	0.244125
0.0115886 	-4.44389e-06 	-0.000405116 	0.243255
0.0116388 	-4.59842e-06 	-0.000400747 	0.242357
0.0116388 	-4.59842e-06 	-0.000400747 	0.242357
0.011689 	-4.7492e-06 	-0.00039625 	0.24144
0.0117391 	-4.89466e-06 	-0.000391544 	0.240494
0.0117893 	-5.03584e-06 	-0.000386672 	0.239525
0.0118395 	-5.17192e-06 	-0.000381571 	0.238525
0.0118395 	-5.17192e-06 	-0.000381571 	0.238525
0.0118896 	-5.30368e-06 	-0.000376276 	0.237499
0.0119398 	-5.43026e-06 	-0.000370725 	0.236437
0.0119398 	-5.43026e-06 	-0.000370725 	0.236437
0.01199 	-5.55286e-06 	-0.000364976 	0.235348
0.0120401 	-5.66984e-06 	-0.000358934 	0.234218
0.0120401 	-5.66984e-06 	-0.000358934 	0.234218
0.0120903 	-5.78344e-06 	-0.000352715 	0.233063
0.0120903 	-5.78344e-06 	-0.000352715 	0.233063
0.0121906 	-5.99513e-06 	-0.000339456 	0.230629
0.0121906 	-5.99513e-06 	-0.000339456 	0.230629
0.0122408 	-6.092e-06 	-0.000332354 	0.229338
0.012291 	-6.18742e-06 	-0.000325175 	0.228034
0.012291 	-6.18742e-06 	-0.000325175 	0.228034
0.0123411 	-6.27359e-06 	-0.000317515 	0.22665
0.0123913 	-6.35795e-06 	-0.000309764 	0.225248
0.0123913 	-6.35795e-06 	-0.000309764 	0.225248
0.0124415 	-6.43475e-06 	-0.000301629 	0.223778
0.0124415 	-6.43475e-06 	-0.000301629 	0.223778
0.0124916 	-6.50762e-06 	-0.000293302 	0.222269
0.0124916 	-6.50762e-06 	-0.000293302 	0.222269
0.0125418 	-6.57496e-06 	-0.000284706 	0.220707
0.012592 	-6.6359e-06 	-0.000275815 	0.219081
0.0126421 	-6.69369e-06 	-0.000266779 	0.217423
0.0126421 	-6.69369e-06 	-0.000266779 	0.217423
0.0126923 	-6.74225e-06 	-0.000257357 	0.215668
0.0127425 	-6.78774e-06 	-0.00024782 	0.213879
0.0127425 	-6.78774e-06 	-0.00024782 	0.213879
0.0127926 	-6.82608e-06 	-0.000238021 	0.212013
0.0128428 	-6.85831e-06 	-0.000228038 	0.210079
0.0128428 	-6.85831e-06 	-0.000228038 	0.210079
0.0129431 	-6.90512e-06 	-0.000207613 	0.206008
0.0129431 	-6.90512e-06 	-0.000207613 	0.206008
0.0129933 	-6.91935e-06 	-0.000197224 	0.203865
0.0130435 	-6.92731e-06 	-0.000186742 	0.201647
0.0130435 	-6.92731e-06 	-0.000186742 	0.201647
0.0131438 	-6.92085e-06 	-0.000165659 	0.196938
0.0131438 	-6.92085e-06 	-0.000165659 	0.196938
0.013194 	-6.90735e-06 	-0.000155129 	0.194456
0.0132441 	-6.88524e-06 	-0.000144681 	0.191863
0.0132441 	-6.88524e-06 	-0.000144681 	0.191863
0.0132943 	-6.8573e-06 	-0.000134313 	0.189195
0.0133445 	-6.82105e-06 	-0.000124085 	0.186418
0.0133445 	-6.82105e-06 	-0.000124085 	0.186418
0.0133946 	-6.77501e-06 	-0.000114083 	0.183509
0.0133946 	-6.77501e-06 	-0.000114083 	0.183509
0.0134448 	-6.72205e-06 	-0.000104267 	0.180505
0.0134448 	-6.72205e-06 	-0.000104267 	0.180505
0.013495 	-6.66145e-06 	-9.46682e-05 	0.177396
0.0135452 	-6.58826e-06 	-8.54806e-05 	0.174109
0.0135452 	-6.58826e-06 	-8.54806e-05 	0.174109
0.0135953 	-6.50674e-06 	-7.65906e-05 	0.170702
0.0135953 	-6.50674e-06 	-7.65906e-05 	0.170702
0.0136455 	-6.41638e-06 	-6.80248e-05 	0.167165
0.0136455 	-6.41638e-06 	-6.80248e-05 	0.167165
0.0136957 	-6.31498e-06 	-5.98791e-05 	0.163462
0.0136957 	-6.31498e-06 	-5.98791e-05 	0.163462
0.0137458 	-6.20034e-06 	-5.22629e-05 	0.159551
0.013796 	-6.07525e-06 	-4.50821e-05 	0.155467
0.013796 	-6.07525e-06 	-4.50821e-05 	0.155467
0.0138462 	-5.93925e-06 	-3.83672e-05 	0.151197
0.0138462 	-5.93925e-06 	-3.83672e-05 	0.151197
0.0138963 	-5.79184e-06 	-3.21491e-05 	0.146726
0.0139465 	-5.62877e-06 	-2.66164e-05 	0.141964
0.0139465 	-5.62877e-06 	-2.66164e-05 	0.141964
0.0139967 	-5.45312e-06 	-2.16308e-05 	0.136956
0.0139967 	-5.45312e-06 	-2.16308e-05 	0.136956
0.0140468 	-5.26474e-06 	-1.71926e-05 	0.131686
0.0140468 	-5.26474e-06 	-1.71926e-05 	0.131686
0.014097 	-5.06316e-06 	-1.3311e-05 	0.126134
0.0141472 	-4.84783e-06 	-9.98727e-06 	0.120276
0.0141472 	-4.84783e-06 	-9.98727e-06 	0.120276
0.0141973 	-4.61812e-06 	-7.20851e-06 	0.114087
0.0142475 	-4.37088e-06 	-5.01862e-06 	0.107465
0.0142977 	-4.10857e-06 	-3.28775e-06 	0.100428
0.0142977 	-4.10857e-06 	-3.28775e-06 	0.100428
0.0143478 	-3.83304e-06 	-1.97198e-06 	0.0929623
0.014398 	-3.54727e-06 	-1.03197e-06 	0.0850867
0.014398 	-3.54727e-06 	-1.03197e-06 	0.0850867
0.0144482 	-3.25501e-06 	-4.1777e-07 	0.0768588
0.0144983 	-2.96033e-06 	-6.76239e-08 	0.0683829
0.0144983 	-2.96033e-06 	-6.76239e-08 	0.0683829
0.0145485 	-2.6671e-06 	8.781e-08 	0.0598101
0.0145485 	-2.6671e-06 	8.781e-08 	0.0598101
0.0145987 	-2.37823e-06 	1.18655e-07 	0.051323
0.0146488 	-2.09476e-06 	8.70855e-08 	0.0431051
0.014699 	-1.81543e-06 	3.94867e-08 	0.0353073
0.014699 	-1.81543e-06 	3.94867e-08 	0.0353073
0.0147492 	-1.53609e-06 	3.26237e-09 	0.0280267
0.0147993 	-1.24759e-06 	-1.20575e-08 	0.0213085
0.0147993 	-1.24759e-06 	-1.20575e-08 	0.0213085
0.0148495 	-9.28242e-07 	-6.77713e-09 	0.0151627
0.0148495 	-9.28242e-07 	-6.77713e-09 	0.0151627
0.0148997 	-5.61934e-07 	2.96204e-09 	0.00957988
0.0148997 	-5.61934e-07 	2.96204e-09 	0.00957988
0.0149498 	-2.10699e-07 	7.69125e-09 	0.00454004
0.0149498 	-2.10699e-07 	7.69125e-09 	0.00454004
0.015 	0 	0 	0
0.015 	0 	0 	0
