-0.0075 	373
-0.00715932 	361.219
-0.00676191 	359.383
-0.00629832 	358.645
-0.00575752 	358.189
-0.00512667 	357.829
-0.00439077 	357.505
-0.00353231 	357.19
-0.00253089 	356.866
-0.00136271 	356.517
0 	356.129
0.00136271 	355.705
0.00253089 	355.26
0.00353231 	354.803
0.00439077 	354.317
0.00512667 	353.764
0.00575752 	353.064
0.00629832 	352.027
0.00676191 	349.796
0.00715932 	338.521
0.0075 	313
