/*--------------------------------*- C++ -*----------------------------------*\
| =========                 |                                                 |
| \\      /  F ield         | OpenFOAM: The Open Source CFD Toolbox           |
|  \\    /   O peration     | Version:  v1912                                 |
|   \\  /    A nd           | Website:  www.openfoam.com                      |
|    \\/     M anipulation  |                                                 |
\*---------------------------------------------------------------------------*/
FoamFile
{
    version     2.0;
    format      ascii;
    class       volVectorField;
    location    "197.6";
    object      wallShearStress;
}
// * * * * * * * * * * * * * * * * * * * * * * * * * * * * * * * * * * * * * //

dimensions      [1 -1 -2 0 0 0 0];


internalField   uniform (0 0 0);

boundaryField
{
    leftWall
    {
        type            calculated;
        value           nonuniform List<vector> 
128
(
(-0.000127876 0.0151703 0.306589)
(-0.000132347 0.00324278 -0.266945)
(8.28447e-05 -0.00108237 -0.277349)
(4.95948e-05 0.000147954 -0.348592)
(8.60418e-05 -0.000107907 -0.283753)
(1.57389e-05 3.34282e-05 -0.366126)
(1.08788e-05 -5.57543e-05 -0.28296)
(4.41612e-06 6.56352e-05 -0.375954)
(0.173879 0.00163651 0.142239)
(-0.0409355 5.81497e-05 -0.218462)
(0.0310567 0.000447436 -0.263893)
(-0.00257907 6.68854e-05 -0.312896)
(0.00873393 3.94281e-05 -0.30413)
(-0.00424023 2.47735e-05 -0.330459)
(0.00800341 -2.96208e-06 -0.314351)
(-0.00731666 1.79976e-05 -0.335219)
(-6.9219e-05 0.00119815 0.109891)
(-0.0200575 0.000459988 -0.192255)
(0.00529974 0.000320896 -0.288953)
(-0.00311694 4.207e-05 -0.296978)
(0.00305283 5.82935e-05 -0.328845)
(-0.00144454 -1.92759e-06 -0.30881)
(0.00318245 3.22296e-05 -0.340249)
(-0.00189749 -1.36291e-05 -0.308524)
(0.0105311 0.000570902 0.195375)
(-0.00948947 0.000704124 -0.187743)
(0.0014724 0.000197065 -0.275137)
(-0.00151014 5.59137e-05 -0.299871)
(0.000793104 4.16794e-05 -0.322777)
(-0.000507386 1.02428e-05 -0.317798)
(0.000940813 1.87908e-05 -0.33361)
(-0.000654127 7.33207e-06 -0.320958)
(-0.00369686 0.000597865 0.192843)
(-0.00774822 0.000720503 -0.191977)
(0.00135807 0.000201372 -0.26998)
(-0.000424389 6.18546e-05 -0.302774)
(0.000586381 3.41382e-05 -0.317839)
(3.83742e-05 1.25433e-05 -0.320005)
(0.000479914 1.01094e-05 -0.329135)
(-9.87663e-05 1.09816e-05 -0.32343)
(-0.00228249 0.000556297 0.210361)
(-0.00591801 0.000723978 -0.193658)
(1.36345e-05 0.000201505 -0.265785)
(-0.00036189 7.52403e-05 -0.306732)
(7.9606e-05 3.48964e-05 -0.317157)
(0.000113899 1.9085e-05 -0.32423)
(0.000174968 8.21729e-06 -0.329051)
(7.17988e-05 1.57421e-05 -0.326645)
(-0.00361631 0.000548394 0.213465)
(-0.00288013 0.000739114 -0.194619)
(-0.000100482 0.000193558 -0.263775)
(-0.000295002 7.22772e-05 -0.308026)
(-7.49996e-05 3.09826e-05 -0.315621)
(1.70392e-05 1.75601e-05 -0.325402)
(-5.24703e-06 5.57214e-06 -0.327944)
(4.92316e-05 1.52669e-05 -0.327569)
(-0.00146295 0.000535902 0.217731)
(-0.00146665 0.000744646 -0.195216)
(-0.000118679 0.000193376 -0.262211)
(-0.000143822 7.60607e-05 -0.308901)
(-8.94008e-05 3.11346e-05 -0.315093)
(-4.96497e-06 1.98594e-05 -0.326327)
(-3.08139e-05 5.28655e-06 -0.327639)
(2.41245e-05 1.7262e-05 -0.328276)
(7.28344e-05 0.000541218 0.217338)
(9.27254e-05 0.000750725 -0.195355)
(-1.05008e-05 0.0001928 -0.262269)
(-4.28132e-05 7.36311e-05 -0.309072)
(-7.22459e-05 2.95683e-05 -0.314846)
(-5.44131e-05 1.75488e-05 -0.326341)
(-4.29349e-05 4.16818e-06 -0.327382)
(-2.47688e-05 1.56774e-05 -0.328239)
(0.00162459 0.000536207 0.217535)
(0.0016432 0.000744927 -0.195342)
(9.36684e-05 0.000193441 -0.262373)
(6.26423e-05 7.57825e-05 -0.30902)
(-3.52395e-05 3.05075e-05 -0.315185)
(-8.9836e-05 1.94271e-05 -0.326392)
(-4.15886e-05 4.96102e-06 -0.327694)
(-6.79563e-05 1.71221e-05 -0.328342)
(0.00373662 0.000549329 0.212963)
(0.00301279 0.00073958 -0.194896)
(5.38599e-05 0.000193551 -0.264071)
(0.000214068 7.1628e-05 -0.308219)
(-2.06775e-05 3.00727e-05 -0.315768)
(-8.29832e-05 1.67751e-05 -0.32551)
(-4.3771e-05 5.0774e-06 -0.328026)
(-8.38696e-05 1.50295e-05 -0.327696)
(0.00235247 0.00055746 0.20964)
(0.0059563 0.00072443 -0.194068)
(-7.58699e-05 0.000201029 -0.266203)
(0.000302117 7.39938e-05 -0.30698)
(-0.000130847 3.37723e-05 -0.317342)
(-0.000129319 1.80585e-05 -0.324367)
(-0.000184433 7.66512e-06 -0.329165)
(-9.13265e-05 1.5311e-05 -0.32681)
(0.00369142 0.000599848 0.19195)
(0.00771371 0.000719822 -0.192427)
(-0.00143314 0.000200427 -0.270361)
(0.00040956 6.03267e-05 -0.302981)
(-0.000598271 3.3165e-05 -0.317976)
(-8.26267e-06 1.1987e-05 -0.320114)
(-0.000462424 9.82415e-06 -0.329245)
(0.000101373 1.05657e-05 -0.323583)
(-0.0106173 0.000571483 0.194613)
(0.00937084 0.00070351 -0.188149)
(-0.00153057 0.000195946 -0.275443)
(0.00153256 5.52108e-05 -0.300042)
(-0.00076721 4.10457e-05 -0.322894)
(0.00055267 1.04177e-05 -0.317908)
(-0.000916536 1.88993e-05 -0.333739)
(0.00067014 7.11839e-06 -0.321124)
(-4.51836e-05 0.00119845 0.109398)
(0.0199556 0.00045982 -0.192625)
(-0.00530834 0.000319098 -0.289284)
(0.003158 4.12937e-05 -0.297159)
(-0.00301504 5.74543e-05 -0.329028)
(0.00148011 -1.7083e-06 -0.308927)
(-0.00317089 3.22587e-05 -0.34045)
(0.00191328 -1.37045e-05 -0.30867)
(-0.17392 0.00163745 0.141365)
(0.0408141 5.82727e-05 -0.218756)
(-0.0309347 0.000444423 -0.26431)
(0.00268215 6.57471e-05 -0.313001)
(-0.00860844 3.77535e-05 -0.304376)
(0.00429061 2.48432e-05 -0.330495)
(-0.00797718 -3.22081e-06 -0.314608)
(0.00734285 1.79821e-05 -0.335276)
)
;
    }
    rightWall
    {
        type            calculated;
        value           nonuniform 0();
    }
    leftSides_periodic0
    {
        type            cyclic;
    }
    leftSides_periodic1
    {
        type            cyclic;
    }
    rightSides_periodic0
    {
        type            cyclic;
    }
    rightSides_periodic1
    {
        type            cyclic;
    }
    leftInOut_periodic0
    {
        type            cyclic;
    }
    leftInOut_periodic1
    {
        type            cyclic;
    }
    rightInOut_periodic0
    {
        type            cyclic;
    }
    rightInOut_periodic1
    {
        type            cyclic;
    }
    procBoundary0to1
    {
        type            processor;
        value           uniform (0 0 0);
    }
    procBoundary0to1throughleftInOut_periodic1
    {
        type            processorCyclic;
        value           uniform (0 0 0);
    }
    procBoundary0to2
    {
        type            processor;
        value           uniform (0 0 0);
    }
    procBoundary0to2throughleftSides_periodic0
    {
        type            processorCyclic;
        value           uniform (0 0 0);
    }
}


// ************************************************************************* //
