/*--------------------------------*- C++ -*----------------------------------*\
| =========                 |                                                 |
| \\      /  F ield         | OpenFOAM: The Open Source CFD Toolbox           |
|  \\    /   O peration     | Version:  v1912                                 |
|   \\  /    A nd           | Website:  www.openfoam.com                      |
|    \\/     M anipulation  |                                                 |
\*---------------------------------------------------------------------------*/
FoamFile
{
    version     2.0;
    format      ascii;
    class       volScalarField;
    location    "199.6";
    object      k;
}
// * * * * * * * * * * * * * * * * * * * * * * * * * * * * * * * * * * * * * //

dimensions      [0 2 -2 0 0 0 0];


internalField   nonuniform List<scalar> 
10077
(
1.41156e-06
6.09421e-07
2.41156e-07
7.00709e-07
6.85778e-07
8.11369e-07
8.35183e-07
8.68435e-07
8.64873e-07
8.66907e-07
8.31439e-07
8.06125e-07
6.79834e-07
6.95605e-07
2.39325e-07
6.04106e-07
4.42634e-07
2.92329e-07
4.17813e-07
4.46155e-07
4.44528e-07
4.63921e-07
4.70933e-07
4.81442e-07
4.80224e-07
4.80705e-07
4.70041e-07
4.63251e-07
4.43805e-07
4.45613e-07
4.18489e-07
2.91861e-07
1.73068e-06
1.33199e-06
2.59835e-06
2.35945e-06
2.36186e-06
2.37205e-06
2.39639e-06
2.43539e-06
2.43044e-06
2.43192e-06
2.39406e-06
2.37272e-06
2.36285e-06
2.36084e-06
2.60476e-06
1.33406e-06
6.3814e-06
4.46846e-06
8.93182e-06
8.11861e-06
8.12248e-06
8.14361e-06
8.22404e-06
8.35472e-06
8.33749e-06
8.34306e-06
8.21672e-06
8.14695e-06
8.12701e-06
8.12439e-06
8.95428e-06
4.4763e-06
1.73705e-05
1.09072e-05
2.18552e-05
2.00897e-05
2.00814e-05
2.01403e-05
2.03362e-05
2.06581e-05
2.06142e-05
2.06297e-05
2.03187e-05
2.01493e-05
2.00932e-05
2.01046e-05
2.19101e-05
1.09262e-05
3.88965e-05
2.19244e-05
4.35253e-05
4.06993e-05
4.06389e-05
4.08026e-05
4.1196e-05
4.18505e-05
4.17587e-05
4.17939e-05
4.11611e-05
4.0821e-05
4.06622e-05
4.07289e-05
4.36326e-05
2.19613e-05
7.62827e-05
3.87015e-05
7.50793e-05
7.2013e-05
7.1808e-05
7.2256e-05
7.2954e-05
7.41308e-05
7.39613e-05
7.40313e-05
7.28908e-05
7.2285e-05
7.18433e-05
7.20603e-05
7.52574e-05
3.8761e-05
0.000135245
6.18923e-05
0.000115556
0.000114836
0.000114299
0.000115439
0.000116572
0.000118507
0.000118222
0.000118349
0.000116464
0.000115472
0.000114337
0.000114895
0.000115813
6.19737e-05
0.000219874
9.10473e-05
0.000161451
0.000167704
0.000166526
0.000169054
0.000170756
0.000173709
0.000173266
0.000173476
0.000170584
0.000169073
0.000166543
0.000167756
0.000161783
9.11403e-05
0.000330101
0.00012444
0.000207813
0.00022694
0.000224712
0.000229526
0.000231916
0.000236125
0.000235482
0.000235807
0.000231656
0.000229505
0.000224673
0.000226957
0.000208204
0.000124526
0.000461423
0.000159586
0.000250134
0.000288027
0.000284299
0.000292348
0.000295509
0.00030117
0.000300292
0.000300761
0.000295143
0.000292257
0.00028417
0.000287977
0.000250566
0.000159642
0.000607608
0.000194192
0.000286525
0.000347202
0.000341555
0.000353664
0.00035764
0.000364881
0.000363739
0.000364379
0.000357154
0.00035348
0.000341305
0.000347058
0.000286989
0.000194207
0.000763217
0.000227596
0.000316043
0.000402589
0.000394764
0.000411311
0.000416082
0.000424922
0.000423504
0.000424332
0.000415475
0.000411027
0.000394381
0.00040234
0.000316528
0.000227559
0.000924567
0.000259171
0.000338365
0.000453246
0.000442927
0.000464579
0.000470185
0.000480756
0.000479033
0.000480075
0.000469446
0.000464178
0.000442394
0.000452875
0.000338863
0.000259073
0.00109109
0.000288581
0.000353775
0.000498217
0.000485164
0.000512455
0.000518909
0.000531304
0.000529253
0.000530532
0.000518032
0.000511924
0.000484468
0.00049771
0.00035428
0.000288418
0.00126401
0.000315742
0.000362985
0.000536988
0.000521064
0.000554356
0.000561639
0.000575893
0.0005735
0.000575034
0.000560623
0.000553688
0.000520198
0.000536338
0.000363492
0.000315512
0.00144222
0.000340743
0.000366961
0.00056945
0.000550622
0.00059012
0.000598184
0.000614277
0.000611535
0.000613337
0.000597033
0.000589313
0.000549587
0.000568652
0.000367466
0.000340447
0.00162364
0.000363771
0.000366785
0.000595811
0.000574154
0.000619925
0.000628695
0.000646559
0.000643469
0.000645546
0.000627419
0.000618983
0.00057295
0.000594866
0.000367285
0.000363413
0.00180572
0.000385017
0.000363541
0.000616534
0.000592207
0.000644222
0.000653602
0.000673135
0.000669704
0.00067206
0.000652214
0.000643152
0.000590841
0.000615445
0.000364033
0.0003846
0.00198592
0.000404627
0.000358238
0.000632306
0.000605522
0.000663707
0.000673586
0.00069467
0.000690909
0.000693543
0.000672103
0.000662517
0.000603999
0.000631076
0.000358719
0.000404157
0.00215769
0.000422674
0.000351759
0.00064402
0.000615009
0.000679304
0.000689564
0.000712059
0.000707981
0.000710891
0.000688003
0.000678003
0.000613331
0.000642651
0.000352225
0.000422156
0.00230839
0.000439158
0.000344826
0.0006523
0.000621499
0.000691608
0.00070219
0.000726041
0.000721659
0.000724838
0.00070056
0.000690208
0.000619672
0.000650803
0.000345276
0.000438598
0.00243311
0.000454034
0.000337997
0.00065666
0.00062486
0.000699952
0.000710689
0.000735524
0.000730934
0.000734311
0.000709026
0.000698479
0.000622919
0.00065507
0.000338429
0.00045344
0.00253112
0.000467267
0.000331671
0.000655831
0.000624379
0.00070231
0.000712954
0.000738306
0.000733611
0.000737105
0.000711308
0.000700817
0.000622391
0.00065422
0.000332083
0.000466644
0.00260314
0.000478835
0.000326102
0.000648935
0.000619109
0.000697639
0.000707962
0.000733405
0.000728689
0.000732238
0.000706382
0.000696184
0.000617163
0.000647378
0.000326494
0.000478188
0.00265045
0.000488752
0.000321427
0.000636031
0.000608866
0.00068603
0.000695838
0.000721009
0.000716334
0.000719889
0.000694365
0.000684659
0.000607037
0.000634591
0.000321798
0.000488083
0.00267419
0.000497141
0.000317686
0.000617763
0.000594073
0.000668197
0.000677332
0.000701903
0.000697322
0.000700842
0.000676
0.000666951
0.000592422
0.000616493
0.000318034
0.000496456
0.00267553
0.000504009
0.000314848
0.000595045
0.00057547
0.00064514
0.000653473
0.000677142
0.000672707
0.000676152
0.000652311
0.000644054
0.000574048
0.00059399
0.000315174
0.000503313
0.00265577
0.000509388
0.00031283
0.000569051
0.000553931
0.000617968
0.000625402
0.000647891
0.000643651
0.000646983
0.000624434
0.000617071
0.000552775
0.000568237
0.000313132
0.000508689
0.00261635
0.000513349
0.000311507
0.000541223
0.000530523
0.000588116
0.000594588
0.000615581
0.000611596
0.000614765
0.000593824
0.000587426
0.000529649
0.000540659
0.000311785
0.000512656
0.00255884
0.000516011
0.000310752
0.000512773
0.000506386
0.000557145
0.000562644
0.000581899
0.000578216
0.000581181
0.000562086
0.000556667
0.000505789
0.000512463
0.000311007
0.000515331
0.00248489
0.000517556
0.000310451
0.000484577
0.000482393
0.00052619
0.000530752
0.000548166
0.000544812
0.00054755
0.000530397
0.000525924
0.000482068
0.000484517
0.000310682
0.000516897
0.00239651
0.000518175
0.000310484
0.000457404
0.000459212
0.000496142
0.000499831
0.000515341
0.000512337
0.000514826
0.000499671
0.000496081
0.000459145
0.000457582
0.00031069
0.000517537
0.00229772
0.000518045
0.000310745
0.000431884
0.000437386
0.000467787
0.000470703
0.000484304
0.000481664
0.00048389
0.000470721
0.000467916
0.000437557
0.000432279
0.000310925
0.000517429
0.00219294
0.000517291
0.00031114
0.000408486
0.00041732
0.000441744
0.000444023
0.000455779
0.000453506
0.00045546
0.000444196
0.000442039
0.000417701
0.000409069
0.000311295
0.000516695
0.00208521
0.000516026
0.000311598
0.000387518
0.000399282
0.000418434
0.000420238
0.000430285
0.000428374
0.000430054
0.000420537
0.000418866
0.000399845
0.000388257
0.000311726
0.000515447
0.00197791
0.000514345
0.000312059
0.000369145
0.000383437
0.00039808
0.000399579
0.000408107
0.000406539
0.000407953
0.000399973
0.000398615
0.000384151
0.000370007
0.00031216
0.000513778
0.00187401
0.000512307
0.000312468
0.000353408
0.000369879
0.000380724
0.000382074
0.0003893
0.000388049
0.00038921
0.000382534
0.000381332
0.000370716
0.000354361
0.000312542
0.000511749
0.00177339
0.000509937
0.000312791
0.000340281
0.000358696
0.000366285
0.000367616
0.000373744
0.000372779
0.000373706
0.000368117
0.000366939
0.00035964
0.000341298
0.000312837
0.000509382
0.00167536
0.00050729
0.000313
0.000329743
0.000350037
0.000354641
0.000356048
0.000361222
0.000360519
0.000361226
0.000356576
0.000355325
0.000351059
0.000330807
0.000313017
0.000506736
0.00158071
0.000504406
0.000313068
0.000321894
0.000343828
0.000345892
0.000347469
0.000351678
0.000351254
0.000351722
0.000348017
0.000346599
0.000344886
0.000322981
0.000313056
0.000503848
0.00148995
0.000501312
0.000312983
0.000316533
0.000339655
0.000339993
0.000341839
0.000345154
0.000345018
0.000345233
0.00034239
0.000340706
0.00034071
0.000317612
0.000312941
0.000500746
0.0014034
0.000498026
0.000312739
0.000313138
0.000337039
0.000336475
0.000338671
0.000341295
0.000341416
0.000341399
0.000339208
0.000337173
0.000338057
0.000314179
0.000312667
0.000497449
0.00132133
0.000494559
0.000312338
0.000311225
0.000335557
0.000334787
0.000337389
0.000339535
0.000339874
0.000339654
0.000337897
0.000335451
0.000336512
0.000312203
0.000312236
0.000493971
0.00124394
0.000490918
0.000311783
0.000310358
0.000334836
0.000334404
0.000337446
0.000339306
0.000339824
0.000339429
0.000337912
0.000335017
0.000335712
0.000311257
0.000311651
0.000490317
0.00117139
0.000487101
0.000311079
0.000310163
0.000334565
0.000334865
0.000338361
0.000340099
0.00034076
0.00034022
0.000338778
0.000335417
0.000335348
0.000310972
0.000310916
0.000486486
0.00110373
0.0004831
0.000310227
0.00031033
0.000334486
0.000335786
0.000339738
0.000341486
0.000342258
0.000341597
0.0003401
0.000336269
0.000335171
0.000311044
0.000310035
0.000482472
0.00104097
0.000478903
0.000309228
0.00031061
0.000334396
0.000336857
0.000341261
0.000343122
0.000343979
0.000343218
0.000341566
0.000337268
0.000334981
0.000311226
0.000309009
0.000478263
0.000983047
0.00047449
0.000308079
0.000310808
0.000334136
0.000337845
0.000342688
0.000344737
0.000345659
0.000344815
0.000342934
0.00033818
0.000334621
0.000311327
0.000307833
0.000473841
0.000929888
0.000469842
0.000306774
0.000310774
0.000333586
0.00033857
0.000343835
0.000346124
0.000347093
0.000346181
0.000344023
0.000338831
0.000333973
0.000311199
0.000306504
0.000469185
0.000881328
0.000464943
0.000305301
0.000310401
0.000332658
0.0003389
0.000344564
0.000347124
0.000348129
0.000347159
0.000344696
0.000339087
0.000332952
0.000310736
0.000305008
0.000464281
0.000837197
0.000459784
0.000303648
0.000309611
0.000331295
0.00033874
0.000344779
0.000347624
0.000348656
0.000347636
0.000344855
0.000338857
0.0003315
0.000309863
0.000303334
0.00045912
0.000797214
0.00045437
0.0003018
0.00030836
0.000329459
0.000338031
0.000344413
0.000347546
0.000348598
0.000347536
0.000344437
0.00033808
0.000329582
0.000308533
0.000301468
0.000453708
0.000761035
0.000448727
0.000299743
0.000306625
0.000327136
0.000336735
0.000343429
0.000346844
0.000347909
0.000346811
0.000343404
0.000336721
0.000327182
0.000306725
0.000299394
0.000448067
0.000728294
0.000442878
0.000297466
0.000304403
0.000324324
0.000334842
0.000341813
0.000345495
0.00034657
0.000345441
0.000341743
0.000334769
0.000324301
0.000304438
0.000297103
0.000442221
0.000698612
0.000436831
0.000294968
0.00030171
0.00032104
0.000332356
0.000339569
0.000343498
0.000344578
0.000343423
0.000339457
0.000332229
0.000320954
0.000301685
0.000294593
0.000436179
0.000671453
0.000430585
0.000292254
0.00029857
0.000317306
0.000329294
0.000336713
0.000340862
0.000341946
0.000340768
0.000336562
0.000329118
0.000317163
0.000298492
0.00029187
0.00042994
0.000646308
0.000424142
0.000289339
0.00029502
0.000313153
0.000325686
0.00033327
0.000337611
0.000338695
0.0003375
0.000333085
0.000325466
0.000312961
0.000294895
0.000288949
0.000423505
0.000622909
0.000417507
0.000286244
0.000291105
0.000308621
0.000321569
0.000329278
0.000333778
0.000334861
0.000333652
0.000329063
0.000321312
0.000308387
0.000290941
0.00028585
0.000416881
0.000601148
0.000410688
0.000282993
0.000286878
0.000303758
0.000316992
0.000324782
0.000329406
0.000330485
0.000329266
0.000324541
0.000316702
0.000303489
0.000286681
0.000282598
0.000410073
0.000580926
0.00040369
0.000279611
0.000282396
0.000298617
0.000312009
0.000319835
0.000324545
0.000325618
0.000324394
0.000319572
0.000311692
0.000298319
0.000282172
0.000279219
0.000403089
0.000561984
0.000396522
0.000276128
0.00027772
0.000293254
0.00030668
0.000314494
0.000319252
0.000320315
0.000319092
0.000314213
0.000306341
0.000292935
0.000277476
0.000275742
0.000395936
0.000544038
0.000389196
0.000272573
0.000272912
0.00028773
0.000301069
0.000308822
0.000313589
0.000314638
0.000313421
0.000308528
0.000300714
0.000287396
0.000272655
0.000272196
0.000388627
0.000526914
0.000381728
0.000268978
0.00026804
0.000282111
0.000295246
0.000302886
0.000307621
0.000308652
0.000307448
0.000302583
0.000294881
0.000281768
0.000267774
0.000268613
0.000381178
0.000510488
0.000374138
0.000265376
0.000263169
0.000276464
0.000289282
0.000296757
0.000301418
0.000302427
0.000301242
0.000296449
0.000288912
0.000276118
0.000262902
0.000265026
0.000373609
0.000494654
0.000366451
0.000261802
0.000258369
0.000270858
0.000283254
0.00029051
0.000295056
0.000296037
0.000294879
0.000290202
0.000282884
0.000270515
0.000258105
0.000261471
0.000365943
0.000479327
0.000358692
0.000258293
0.000253707
0.000265367
0.00027724
0.000284223
0.000288613
0.000289561
0.000288438
0.000283919
0.000276877
0.000265033
0.000253453
0.000257984
0.000358209
0.000464439
0.000350896
0.000254887
0.000249255
0.000260066
0.000271323
0.000277979
0.000282172
0.000283081
0.000282001
0.000277683
0.000270971
0.000259747
0.000249016
0.000254603
0.000350439
0.000449942
0.000343099
0.000251628
0.000245081
0.000255032
0.000265588
0.000271865
0.000275821
0.000276685
0.000275657
0.00027158
0.000265252
0.000254732
0.000244861
0.000251372
0.000342669
0.0004358
0.000335342
0.000248557
0.000241254
0.000250341
0.000260123
0.000265969
0.000269652
0.000270463
0.000269496
0.000265699
0.000259808
0.000250065
0.000241058
0.000248332
0.000334941
0.000421992
0.000327674
0.000245723
0.000237841
0.000246071
0.000255016
0.000260384
0.000263759
0.000264511
0.000263613
0.000260134
0.000254726
0.000245822
0.000237673
0.000245531
0.000327304
0.000408508
0.000320146
0.000243172
0.000234907
0.000242296
0.000250356
0.000255203
0.000258238
0.000258924
0.000258104
0.000254975
0.000250095
0.000242078
0.00023477
0.000243016
0.000319809
0.000395348
0.000312818
0.000240958
0.000232515
0.000239092
0.000246231
0.000250519
0.000253185
0.000253799
0.000253064
0.000250315
0.000246002
0.000238909
0.000232412
0.000240839
0.000312515
0.000382526
0.000305754
0.000239135
0.000230727
0.000236531
0.000242727
0.000246424
0.000248697
0.000249233
0.000248591
0.000246248
0.000242533
0.000236384
0.000230661
0.000239056
0.000305487
0.000370077
0.000299025
0.000237762
0.000229603
0.000234684
0.000239927
0.000243009
0.000244868
0.000245323
0.000244779
0.000242862
0.000239771
0.000234576
0.000229575
0.000237724
0.000298794
0.000358077
0.000292707
0.000236902
0.0002292
0.000233618
0.000237913
0.000240363
0.000241794
0.000242163
0.000241722
0.000240247
0.000237796
0.000233549
0.000229212
0.000236906
0.000292515
0.00034663
0.000286883
0.00023662
0.000229576
0.000233398
0.000236762
0.00023857
0.000239564
0.000239845
0.00023951
0.000238487
0.000236684
0.000233369
0.000229627
0.000236668
0.000286731
0.000335825
0.000281642
0.000236987
0.000230784
0.000234086
0.000236548
0.000237714
0.000238265
0.000238458
0.00023823
0.000237664
0.000236509
0.000234097
0.000230876
0.000237078
0.000281532
1.66191e-06
1.11791e-06
6.96144e-07
6.7724e-07
7.01417e-07
7.14786e-07
7.21179e-07
7.25931e-07
7.26913e-07
7.2662e-07
7.2281e-07
7.1721e-07
7.0399e-07
6.79468e-07
6.98212e-07
1.12002e-06
1.80592e-06
5.41473e-07
4.91045e-07
5.99448e-07
6.03575e-07
6.50448e-07
6.65683e-07
6.83024e-07
6.82562e-07
6.82776e-07
6.652e-07
6.50511e-07
6.0328e-07
5.99254e-07
4.9214e-07
5.41511e-07
1.04e-05
2.54839e-06
2.66824e-06
3.40997e-06
3.40649e-06
3.70567e-06
3.79971e-06
3.91018e-06
3.90578e-06
3.90779e-06
3.79477e-06
3.70362e-06
3.40188e-06
3.40638e-06
2.6736e-06
2.54666e-06
3.47069e-05
8.51843e-06
9.15336e-06
1.16721e-05
1.16321e-05
1.26427e-05
1.2956e-05
1.33278e-05
1.33116e-05
1.33194e-05
1.29386e-05
1.2635e-05
1.16156e-05
1.16592e-05
9.17147e-06
8.51245e-06
8.23373e-05
2.05464e-05
2.24417e-05
2.84941e-05
2.83436e-05
3.07659e-05
3.15085e-05
3.2396e-05
3.23545e-05
3.23752e-05
3.14654e-05
3.0746e-05
2.83026e-05
2.84617e-05
2.24854e-05
2.05325e-05
0.000157666
4.04966e-05
4.47275e-05
5.65419e-05
5.61599e-05
6.08699e-05
6.23e-05
6.40182e-05
6.39337e-05
6.39765e-05
6.22135e-05
6.08283e-05
5.60768e-05
5.64762e-05
4.48125e-05
4.04705e-05
0.000258242
6.95208e-05
7.72755e-05
9.7227e-05
9.64477e-05
0.000104337
0.000106711
0.000109571
0.000109425
0.000109499
0.000106561
0.000104261
9.63019e-05
9.71116e-05
7.74166e-05
6.94781e-05
0.000374243
0.000107402
0.000119672
0.000149762
0.000148378
0.0001601
0.000163591
0.000167807
0.000167583
0.000167697
0.00016336
0.000159977
0.00014815
0.000149582
0.000119879
0.000107339
0.000493756
0.000152193
0.000169505
0.000210929
0.0002087
0.000224494
0.000229142
0.000234762
0.000234452
0.000234609
0.000228819
0.000224315
0.000208376
0.000210673
0.00016978
0.000152107
0.000608423
0.000200732
0.00022308
0.000276237
0.000272916
0.000292654
0.000298377
0.000305311
0.000304914
0.000305116
0.000297959
0.000292411
0.000272489
0.0002759
0.000223416
0.000200621
0.0007146
0.000249754
0.000276731
0.000341631
0.000336977
0.000360367
0.000367032
0.000375132
0.000374649
0.000374894
0.000366518
0.000360056
0.000336444
0.000341211
0.000277119
0.000249617
0.000811728
0.000296778
0.000327712
0.00040441
0.000398199
0.000424966
0.000432439
0.000441566
0.000440997
0.000441289
0.000431832
0.000424583
0.000397557
0.000403906
0.00032814
0.000296611
0.0009006
0.000340293
0.000374356
0.000463181
0.000455207
0.000485174
0.00049335
0.000503399
0.000502743
0.000503082
0.000492648
0.000484716
0.000454452
0.000462588
0.000374815
0.000340096
0.000982371
0.000379568
0.000415838
0.000517383
0.000507456
0.000540566
0.000549369
0.000560278
0.000559533
0.000559922
0.000548572
0.000540025
0.00050658
0.000516694
0.000416319
0.000379335
0.00105811
0.000414383
0.000451927
0.000566807
0.000554758
0.000591079
0.000600469
0.000612218
0.000611378
0.000611821
0.000599572
0.000590446
0.000553752
0.000566015
0.000452423
0.000414114
0.00112866
0.000444904
0.000482903
0.00061139
0.000597077
0.000636739
0.000646696
0.00065929
0.00065835
0.000658852
0.000645694
0.000636003
0.000595929
0.000610486
0.000483408
0.000444601
0.00119457
0.000471354
0.000508882
0.000651113
0.000634423
0.000677587
0.000688104
0.000701561
0.000700515
0.000701079
0.00068699
0.000676737
0.000633124
0.000650088
0.000509392
0.000471017
0.00125615
0.000493858
0.000530009
0.00068598
0.000666853
0.00071365
0.000724726
0.000739069
0.000737914
0.000738541
0.000723494
0.000712675
0.000665395
0.000684828
0.000530519
0.000493485
0.00131346
0.000512571
0.000546538
0.000716059
0.000694511
0.000744978
0.000756604
0.000771836
0.00077057
0.000771261
0.00075525
0.00074387
0.000692893
0.000714779
0.000547045
0.000512165
0.00136639
0.00052769
0.000558829
0.000741497
0.000717448
0.000771682
0.000783831
0.000799922
0.000798544
0.000799298
0.000782355
0.000770439
0.000715658
0.000740077
0.00055933
0.000527256
0.00141468
0.000539457
0.000567321
0.000762168
0.000735594
0.000793784
0.000806474
0.000823484
0.000821997
0.000822812
0.000804869
0.000792393
0.000733625
0.0007606
0.000567814
0.000539001
0.00145798
0.000548142
0.000572507
0.000778037
0.000748993
0.000811177
0.000824402
0.000842367
0.000840769
0.000841646
0.000822664
0.000809629
0.000746846
0.000776318
0.00057299
0.000547671
0.00149587
0.000554036
0.0005749
0.000789195
0.000757814
0.000823849
0.000837563
0.000856472
0.000854763
0.000855701
0.000835696
0.000822143
0.000755496
0.000787331
0.000575372
0.00055356
0.00152796
0.000557428
0.000575016
0.000795863
0.000762331
0.00083193
0.000846057
0.000865852
0.000864034
0.000865034
0.000844069
0.00083007
0.000759856
0.000793863
0.000575478
0.000556956
0.00155381
0.000558626
0.00057335
0.000798382
0.00076291
0.000835697
0.000850142
0.000870734
0.00086881
0.000869874
0.000848047
0.000833692
0.000760293
0.000796257
0.0005738
0.000558167
0.00157314
0.000557896
0.000570347
0.000797199
0.000760001
0.000835566
0.000850227
0.00087151
0.000869485
0.000870612
0.00084804
0.000833427
0.00075726
0.000794962
0.000570786
0.000557459
0.00158573
0.000555484
0.000566404
0.00079285
0.000754126
0.000832059
0.000846836
0.000868698
0.000866574
0.000867769
0.000844571
0.000829797
0.000751277
0.000790514
0.000566831
0.000555076
0.00159152
0.000551613
0.000561854
0.000785777
0.000745757
0.000825512
0.000840284
0.000862601
0.000860386
0.000861646
0.000837961
0.000823145
0.000742819
0.000783358
0.00056227
0.000551244
0.00159058
0.000546492
0.000556967
0.000776018
0.000735065
0.000815601
0.000830148
0.000852693
0.000850406
0.000851718
0.000827803
0.000813169
0.000732073
0.000773551
0.000557373
0.000546168
0.00158309
0.000540312
0.000551946
0.000763366
0.000721959
0.000801725
0.000815726
0.000838139
0.000835809
0.000837157
0.000813412
0.000799288
0.000718967
0.000760899
0.000552342
0.000540038
0.00156939
0.00053325
0.000546933
0.000747751
0.000706394
0.000783616
0.000796718
0.000818566
0.000816228
0.000817593
0.00079449
0.000781238
0.000703466
0.000745342
0.00054732
0.000533029
0.00154978
0.000525469
0.000542019
0.000729369
0.000688521
0.000761449
0.00077331
0.000794153
0.000791843
0.000793206
0.00077122
0.000759192
0.00068572
0.000727073
0.000542397
0.000525304
0.00152403
0.000517119
0.000537253
0.000708625
0.000668672
0.000735716
0.000746032
0.000765458
0.000763211
0.000764555
0.000744125
0.000733634
0.000666057
0.000706492
0.000537621
0.000517011
0.00149158
0.000508335
0.000532647
0.000686049
0.000647302
0.000707185
0.000715785
0.000733447
0.000731302
0.000732605
0.00071409
0.00070532
0.000644923
0.00068412
0.000533007
0.000508283
0.00145244
0.000499233
0.000528193
0.000662238
0.000624949
0.000677025
0.000683863
0.00069954
0.000697533
0.000698773
0.000682392
0.000675398
0.000622838
0.000660539
0.000528543
0.000499236
0.00140754
0.000489918
0.000523856
0.00063793
0.000602259
0.000646342
0.000651405
0.000664987
0.000663132
0.000664301
0.000650163
0.000644961
0.000600428
0.00063647
0.000524197
0.000489971
0.00135782
0.000480479
0.000519592
0.000613812
0.000579827
0.000615897
0.000619222
0.000630654
0.000628962
0.000630054
0.000618205
0.000614763
0.000578279
0.00061259
0.000519923
0.000480578
0.00130427
0.000470992
0.000515345
0.000590371
0.0005581
0.000586373
0.000588042
0.000597337
0.000595816
0.000596825
0.000587242
0.000585476
0.000556827
0.000589379
0.000515663
0.000471131
0.00124796
0.000461516
0.00051105
0.000568006
0.000537444
0.000558331
0.000558473
0.000565707
0.000564359
0.000565282
0.000557876
0.000557656
0.000536432
0.000567231
0.000511356
0.000461688
0.00118985
0.000452089
0.000506646
0.000547016
0.000518133
0.000532204
0.000530991
0.000536297
0.000535115
0.000535954
0.000530575
0.000531731
0.000517361
0.000546441
0.000506936
0.000452287
0.00113064
0.000442715
0.000502066
0.000527593
0.000500343
0.000508287
0.00050592
0.000509484
0.000508464
0.000509217
0.000505662
0.000507988
0.000499786
0.000527196
0.000502341
0.000442935
0.0010709
0.000433395
0.000497242
0.000509823
0.000484151
0.000486736
0.000483434
0.000485475
0.000484607
0.000485276
0.000483307
0.000486582
0.000483784
0.000509581
0.000497499
0.000433632
0.0010111
0.000424118
0.000492103
0.000493695
0.00046955
0.000467568
0.000463549
0.000464307
0.000463579
0.000464165
0.000463525
0.000467531
0.000469348
0.000493585
0.000492342
0.000424367
0.000951622
0.000414891
0.000486582
0.000479128
0.000456488
0.000450687
0.000446158
0.000445875
0.000445271
0.000445781
0.000446212
0.000450739
0.000456426
0.000479128
0.000486802
0.000415148
0.000892825
0.000405731
0.000480619
0.000465995
0.000444842
0.000435922
0.000431068
0.000429971
0.000429476
0.000429916
0.000431177
0.000436035
0.00044489
0.000466089
0.000480819
0.00040599
0.000835024
0.000396653
0.000474165
0.000454146
0.000434413
0.000423057
0.000418033
0.000416314
0.000415912
0.000416288
0.000418176
0.000423209
0.000434537
0.000454311
0.000474344
0.000396911
0.000778545
0.000387681
0.000467184
0.00044338
0.000424982
0.0004119
0.000406807
0.00040455
0.00040424
0.000404548
0.000406969
0.000412076
0.000425151
0.00044359
0.000467344
0.000387934
0.000723737
0.000378837
0.00045966
0.000433485
0.000416343
0.000402219
0.000397118
0.000394411
0.00039419
0.000394427
0.000397289
0.000402405
0.00041653
0.000433718
0.000459799
0.000379081
0.00067098
0.00037014
0.000451593
0.000424283
0.000408312
0.000393673
0.000388641
0.000385626
0.000385484
0.000385654
0.000388807
0.000393855
0.000408496
0.000424518
0.000451711
0.000370372
0.000620669
0.000361606
0.000443007
0.000415628
0.000400727
0.000385943
0.000381045
0.000377864
0.000377784
0.000377896
0.000381197
0.000386107
0.000400891
0.000415849
0.000443105
0.000361824
0.000573192
0.000353247
0.000433956
0.000407396
0.000393419
0.000378772
0.000374059
0.000370824
0.000370792
0.000370855
0.000374188
0.00037891
0.000393555
0.000407594
0.000434035
0.000353448
0.000528908
0.00034507
0.000424536
0.000399448
0.000386239
0.000371956
0.00036746
0.00036426
0.000364262
0.000364285
0.000367561
0.000372061
0.000386343
0.000399616
0.000424597
0.000345254
0.00048812
0.000337082
0.000414888
0.000391641
0.00037909
0.000365338
0.000361077
0.000357978
0.000358004
0.000357994
0.000361147
0.000365406
0.000379157
0.000391779
0.000414932
0.000337247
0.000451059
0.000329286
0.000405164
0.000383887
0.000371916
0.000358803
0.000354784
0.000351831
0.000351873
0.000351835
0.000354822
0.000358833
0.000371945
0.000383993
0.000405192
0.000329432
0.000417873
0.000321686
0.00039551
0.000376147
0.000364691
0.000352278
0.000348498
0.000345719
0.000345771
0.000345711
0.000348504
0.000352269
0.000364682
0.000376221
0.000395522
0.000321813
0.000388565
0.000314287
0.000386007
0.000368399
0.000357405
0.000345713
0.000342163
0.000339574
0.000339631
0.000339553
0.000342138
0.000345668
0.000357359
0.00036844
0.000386006
0.000314394
0.000362934
0.000307089
0.000376613
0.000360613
0.000350039
0.000339065
0.000335732
0.000333338
0.000333396
0.000333304
0.000335677
0.000338986
0.000349959
0.000360624
0.000376599
0.000307176
0.000340716
0.000300098
0.000367268
0.000352778
0.00034259
0.000332314
0.000329179
0.000326982
0.000327037
0.000326935
0.000329098
0.000332202
0.000342478
0.000352761
0.000367243
0.000300167
0.000321609
0.000293324
0.000357977
0.000344897
0.000335067
0.000325454
0.000322501
0.000320496
0.000320545
0.000320437
0.000322397
0.000325315
0.000334928
0.000344855
0.000357943
0.000293376
0.000305294
0.000286786
0.000348771
0.000336984
0.000327491
0.000318499
0.000315711
0.000313889
0.00031393
0.00031382
0.000315586
0.000318337
0.000327328
0.000336921
0.00034873
0.000286822
0.000291444
0.000280505
0.000339685
0.000329066
0.00031989
0.000311475
0.000308835
0.000307185
0.000307219
0.000307108
0.000308694
0.000311293
0.000319708
0.000328984
0.000339636
0.000280525
0.00027974
0.000274505
0.000330754
0.000321175
0.000312304
0.000304417
0.000301913
0.000300423
0.000300448
0.000300339
0.00030176
0.000304221
0.000312107
0.000321079
0.000330699
0.000274512
0.000269885
0.000268816
0.000322016
0.000313354
0.000304775
0.000297374
0.000294993
0.000293652
0.000293668
0.000293563
0.000294831
0.000297168
0.000304569
0.000313246
0.000321957
0.000268811
0.000261627
0.000263468
0.000313514
0.000305649
0.000297356
0.000290399
0.000288132
0.000286929
0.000286936
0.000286836
0.000287965
0.000290187
0.000297144
0.000305534
0.000313452
0.000263452
0.000254757
0.000258496
0.000305293
0.000298113
0.000290099
0.000283552
0.000281393
0.000280318
0.000280318
0.000280224
0.000281225
0.000283338
0.000289886
0.000297993
0.000305228
0.00025847
0.000249212
0.000253934
0.0002974
0.000290801
0.000283064
0.000276896
0.000274844
0.000273887
0.000273881
0.000273794
0.000274677
0.000276685
0.000282853
0.000290679
0.000297334
0.000253901
0.000244937
0.000249821
0.000289888
0.000283772
0.000276311
0.0002705
0.000268553
0.000267709
0.000267698
0.000267618
0.000268391
0.000270295
0.000276106
0.000283651
0.000289822
0.000249781
0.00024178
0.000246194
0.000282812
0.000277088
0.000269904
0.000264433
0.000262595
0.000261857
0.000261843
0.00026177
0.000262441
0.000264238
0.000269709
0.00027697
0.000282745
0.000246147
0.000239609
0.000243089
0.000276226
0.000270812
0.000263909
0.000258768
0.000257043
0.000256407
0.000256393
0.000256325
0.0002569
0.000258586
0.000263727
0.0002707
0.000276161
0.000243037
0.000238323
0.000240544
0.000270187
0.000265009
0.000258394
0.000253576
0.000251972
0.000251434
0.000251423
0.00025136
0.000251841
0.00025341
0.000258226
0.000264905
0.000270123
0.000240488
0.000237845
0.000238595
0.00026475
0.000259746
0.000253424
0.00024893
0.000247454
0.000247014
0.000247008
0.000246948
0.000247338
0.000248781
0.000253275
0.000259651
0.000264688
0.000238534
0.000238118
0.000237276
0.000259972
0.000255087
0.000249069
0.0002449
0.000243563
0.000243221
0.000243222
0.000243164
0.000243464
0.000244772
0.000248939
0.000255004
0.000259913
0.000237211
0.000239098
0.000236619
0.000255909
0.000251099
0.000245395
0.000241556
0.000240368
0.000240125
0.000240136
0.000240079
0.000240288
0.00024145
0.000245285
0.000251027
0.000255852
0.00023655
0.000240756
0.000236655
0.000252616
0.000247844
0.000242465
0.000238967
0.000237939
0.000237796
0.000237819
0.00023776
0.000237878
0.000238884
0.000242377
0.000247784
0.000252563
0.000236584
0.000243072
0.000237415
0.000250148
0.000245387
0.000240345
0.000237197
0.000236339
0.000236297
0.000236335
0.000236274
0.000236298
0.000237138
0.000240279
0.00024534
0.000250097
0.00023734
0.000246037
0.000238924
0.000248557
0.000243789
0.000239097
0.000236309
0.000235631