-0.0075 	0 	0 	0
-0.0075 	-1.58204e-35 	1.59118e-36 	-8.13898e-33
-0.00745622 	-2.07927e-05 	2.09129e-06 	-0.0106971
-0.00745622 	-2.07927e-05 	2.09129e-06 	-0.0106971
-0.00741165 	-4.96989e-05 	4.56883e-06 	-0.0216203
-0.00741165 	-4.96989e-05 	4.56883e-06 	-0.0216203
-0.00736628 	-8.33533e-05 	8.42858e-06 	-0.0327197
-0.00736628 	-8.33533e-05 	8.42858e-06 	-0.0327197
-0.0073201 	-0.000119498 	1.31282e-05 	-0.0438929
-0.0073201 	-0.000119498 	1.31282e-05 	-0.0438929
-0.00727309 	-0.00015978 	1.80665e-05 	-0.0550353
-0.00727309 	-0.00015978 	1.80665e-05 	-0.0550353
-0.00722524 	-0.000205737 	2.36542e-05 	-0.0660499
-0.00722524 	-0.000205737 	2.36542e-05 	-0.0660499
-0.00717653 	-0.000257468 	2.97621e-05 	-0.0768403
-0.00717653 	-0.000257468 	2.97621e-05 	-0.0768403
-0.00712695 	-0.000314096 	3.63772e-05 	-0.0873119
-0.00712695 	-0.000314096 	3.63772e-05 	-0.0873119
-0.00707647 	-0.00037407 	4.34027e-05 	-0.0973797
-0.00707647 	-0.00037407 	4.34027e-05 	-0.0973797
-0.0070251 	-0.000435618 	5.07063e-05 	-0.106978
-0.0070251 	-0.000435618 	5.07063e-05 	-0.106978
-0.0069728 	-0.000497041 	5.82358e-05 	-0.116073
-0.0069728 	-0.000497041 	5.82358e-05 	-0.116073
-0.00691956 	-0.000556812 	6.58883e-05 	-0.124671
-0.00691956 	-0.000556812 	6.58883e-05 	-0.124671
-0.00686537 	-0.000613712 	7.35565e-05 	-0.132815
-0.00686537 	-0.000613712 	7.35565e-05 	-0.132815
-0.00681021 	-0.000666632 	8.11843e-05 	-0.14055
-0.00681021 	-0.000666632 	8.11843e-05 	-0.14055
-0.00675406 	-0.000714541 	8.87863e-05 	-0.147902
-0.00675406 	-0.000714541 	8.87863e-05 	-0.147902
-0.0066969 	-0.000756667 	9.63872e-05 	-0.154891
-0.0066969 	-0.000756667 	9.63872e-05 	-0.154891
-0.00663871 	-0.000792322 	0.000103905 	-0.161536
-0.00663871 	-0.000792322 	0.000103905 	-0.161536
-0.00657949 	-0.000820848 	0.000111265 	-0.167855
-0.00657949 	-0.000820848 	0.000111265 	-0.167855
-0.0065192 	-0.000841715 	0.000118409 	-0.173868
-0.0065192 	-0.000841715 	0.000118409 	-0.173868
-0.00645783 	-0.000854518 	0.000125269 	-0.179591
-0.00645783 	-0.000854518 	0.000125269 	-0.179591
-0.00639535 	-0.000858963 	0.000131791 	-0.185042
-0.00639535 	-0.000858963 	0.000131791 	-0.185042
-0.00633176 	-0.00085485 	0.000137894 	-0.190234
-0.00633176 	-0.00085485 	0.000137894 	-0.190234
-0.00626703 	-0.000842092 	0.000143464 	-0.195182
-0.00626703 	-0.000842092 	0.000143464 	-0.195182
-0.00620114 	-0.000820713 	0.00014841 	-0.199898
-0.00620114 	-0.000820713 	0.00014841 	-0.199898
-0.00613406 	-0.000790827 	0.000152695 	-0.204393
-0.00613406 	-0.000790827 	0.000152695 	-0.204393
-0.00606579 	-0.000752646 	0.000156303 	-0.20868
-0.00606579 	-0.000752646 	0.000156303 	-0.20868
-0.00599629 	-0.000706481 	0.000159175 	-0.21277
-0.00599629 	-0.000706481 	0.000159175 	-0.21277
-0.00592554 	-0.000652699 	0.000161266 	-0.216675
-0.00592554 	-0.000652699 	0.000161266 	-0.216675
-0.00585352 	-0.000591659 	0.00016261 	-0.220403
-0.00585352 	-0.000591659 	0.00016261 	-0.220403
-0.00578022 	-0.000523682 	0.0001633 	-0.223964
-0.00578022 	-0.000523682 	0.0001633 	-0.223964
-0.00570559 	-0.00044897 	0.000163397 	-0.227365
-0.00570559 	-0.00044897 	0.000163397 	-0.227365
-0.00562963 	-0.00036761 	0.000162165 	-0.230617
-0.00562963 	-0.00036761 	0.000162165 	-0.230617
-0.00555231 	-0.000279946 	0.000158691 	-0.233728
-0.00555231 	-0.000279946 	0.000158691 	-0.233728
-0.0054736 	-0.000186606 	0.000153586 	-0.236711
-0.0054736 	-0.000186606 	0.000153586 	-0.236711
-0.00539348 	-8.77715e-05 	0.000148105 	-0.239579
-0.00539348 	-8.77715e-05 	0.000148105 	-0.239579
-0.00531193 	1.68297e-05 	0.000142666 	-0.242347
-0.00531193 	1.68297e-05 	0.000142666 	-0.242347
-0.00522891 	0.000127529 	0.000136408 	-0.24503
-0.00522891 	0.000127529 	0.000136408 	-0.24503
-0.0051444 	0.000244699 	0.000128357 	-0.247636
-0.0051444 	0.000244699 	0.000128357 	-0.247636
-0.00505838 	0.000368518 	0.000118741 	-0.250172
-0.00505838 	0.000368518 	0.000118741 	-0.250172
-0.00497081 	0.000498883 	0.000107873 	-0.252639
-0.00497081 	0.000498883 	0.000107873 	-0.252639
-0.00488168 	0.000635406 	9.56542e-05 	-0.255034
-0.00488168 	0.000635406 	9.56542e-05 	-0.255034
-0.00479094 	0.000777007 	8.21346e-05 	-0.257348
-0.00479094 	0.000777007 	8.21346e-05 	-0.257348
-0.00469858 	0.000921491 	6.74134e-05 	-0.259568
-0.00469858 	0.000921491 	6.74134e-05 	-0.259568
-0.00460456 	0.00106583 	5.20511e-05 	-0.261685
-0.00460456 	0.00106583 	5.20511e-05 	-0.261685
-0.00450886 	0.0012076 	3.65267e-05 	-0.263702
-0.00450886 	0.0012076 	3.65267e-05 	-0.263702
-0.00441144 	0.00134626 	2.001e-05 	-0.265643
-0.00441144 	0.00134626 	2.001e-05 	-0.265643
-0.00431227 	0.00148261 	1.53955e-06 	-0.26753
-0.00431227 	0.00148261 	1.53955e-06 	-0.26753
-0.00421133 	0.0016171 	-1.89618e-05 	-0.269367
-0.00421133 	0.0016171 	-1.89618e-05 	-0.269367
-0.00410857 	0.00174879 	-4.08388e-05 	-0.271142
-0.00410857 	0.00174879 	-4.08388e-05 	-0.271142
-0.00400397 	0.00187616 	-6.3535e-05 	-0.272835
-0.00400397 	0.00187616 	-6.3535e-05 	-0.272835
-0.0038975 	0.00199868 	-8.56964e-05 	-0.27443
-0.0038975 	0.00199868 	-8.56964e-05 	-0.27443
-0.00378912 	0.00211736 	-0.000105708 	-0.275919
-0.00378912 	0.00211736 	-0.000105708 	-0.275919
-0.00367879 	0.0022331 	-0.000125152 	-0.277309
-0.00367879 	0.0022331 	-0.000125152 	-0.277309
-0.00356649 	0.00234554 	-0.000146716 	-0.278612
-0.00356649 	0.00234554 	-0.000146716 	-0.278612
-0.00345217 	0.0024541 	-0.000171194 	-0.279837
-0.00345217 	0.0024541 	-0.000171194 	-0.279837
-0.0033358 	0.0025584 	-0.000196468 	-0.280983
-0.0033358 	0.0025584 	-0.000196468 	-0.280983
-0.00321735 	0.00265808 	-0.00022043 	-0.282049
-0.00321735 	0.00265808 	-0.00022043 	-0.282049
-0.00309677 	0.002753 	-0.000244183 	-0.283031
-0.00309677 	0.002753 	-0.000244183 	-0.283031
-0.00297403 	0.00284318 	-0.000268641 	-0.283928
-0.00297403 	0.00284318 	-0.000268641 	-0.283928
-0.00284909 	0.00292866 	-0.000293768 	-0.284736
-0.00284909 	0.00292866 	-0.000293768 	-0.284736
-0.0027219 	0.00300955 	-0.000319834 	-0.285454
-0.0027219 	0.00300955 	-0.000319834 	-0.285454
-0.00259244 	0.00308599 	-0.000346978 	-0.286082
-0.00259244 	0.00308599 	-0.000346978 	-0.286082
-0.00246065 	0.00315807 	-0.000375338 	-0.286618
-0.00246065 	0.00315807 	-0.000375338 	-0.286618
-0.00232651 	0.00322585 	-0.000405037 	-0.287063
-0.00232651 	0.00322585 	-0.000405037 	-0.287063
-0.00218995 	0.00328932 	-0.00043613 	-0.287418
-0.00218995 	0.00328932 	-0.00043613 	-0.287418
-0.00205095 	0.00334841 	-0.000468618 	-0.287683
-0.00205095 	0.00334841 	-0.000468618 	-0.287683
-0.00190946 	0.00340289 	-0.000502411 	-0.287862
-0.00190946 	0.00340289 	-0.000502411 	-0.287862
-0.00176543 	0.00345241 	-0.000537345 	-0.287955
-0.00176543 	0.00345241 	-0.000537345 	-0.287955
-0.00161881 	0.00349647 	-0.000573221 	-0.287965
-0.00161881 	0.00349647 	-0.000573221 	-0.287965
-0.00146957 	0.0035344 	-0.000609814 	-0.287893
-0.00146957 	0.0035344 	-0.000609814 	-0.287893
-0.00131765 	0.00356532 	-0.000646864 	-0.287743
-0.00131765 	0.00356532 	-0.000646864 	-0.287743
-0.001163 	0.00358817 	-0.000684039 	-0.287515
-0.001163 	0.00358817 	-0.000684039 	-0.287515
-0.00100559 	0.00360167 	-0.000721007 	-0.287212
-0.00100559 	0.00360167 	-0.000721007 	-0.287212
-0.000845345 	0.00360442 	-0.000758105 	-0.286833
-0.000845345 	0.00360442 	-0.000758105 	-0.286833
-0.000682232 	0.00359488 	-0.000793543 	-0.28638
-0.000682232 	0.00359488 	-0.000793543 	-0.28638
-0.000516194 	0.00357165 	-0.000827384 	-0.285853
-0.000516194 	0.00357165 	-0.000827384 	-0.285853
-0.000347178 	0.00353348 	-0.000860306 	-0.28525
-0.000347178 	0.00353348 	-0.000860306 	-0.28525
-0.000175132 	0.003479 	-0.000890318 	-0.284571
-0.000175132 	0.003479 	-0.000890318 	-0.284571
0 	0.00340848 	-0.000917594 	-0.283815
0 	0.00340848 	-0.000917594 	-0.283815
0 	0.00340848 	-0.000917594 	-0.283815
0 	0.00340848 	-0.000917594 	-0.283815
0.000175132 	0.00332346 	-0.000939617 	-0.282993
0.000175132 	0.00775085 	0.00352186 	-0.276401
0.000347178 	0.00322489 	-0.0009557 	-0.282116
0.000347178 	0.00782351 	0.00341715 	-0.27568
0.000516194 	0.00311513 	-0.000967318 	-0.281193
0.000516194 	0.00791605 	0.00329897 	-0.274857
0.000682232 	0.00299678 	-0.000973256 	-0.280224
0.000682232 	0.00801736 	0.00319039 	-0.273936
0.000845345 	0.0028708 	-0.000973361 	-0.27921
0.000845345 	0.00811945 	0.00309492 	-0.272923
0.00100559 	0.00273763 	-0.000968084 	-0.27815
0.00100559 	0.00821401 	0.00301223 	-0.271823
0.001163 	0.00259775 	-0.000957831 	-0.277043
0.001163 	0.00829315 	0.00294194 	-0.270642
0.00131765 	0.00245173 	-0.000942882 	-0.275888
0.00131765 	0.00834996 	0.00288313 	-0.26939
0.00146957 	0.00230015 	-0.000923625 	-0.274683
0.00146957 	0.00837867 	0.00283478 	-0.268078
0.00161881 	0.00214373 	-0.000900546 	-0.273428
0.00161881 	0.00837471 	0.00279572 	-0.266715
0.00176543 	0.00198334 	-0.000874073 	-0.272127
0.00176543 	0.00833477 	0.00276481 	-0.265316
0.00190946 	0.00182006 	-0.000844556 	-0.270783
0.00190946 	0.0082568 	0.00274109 	-0.263894
0.00205095 	0.00165492 	-0.000812339 	-0.2694
0.00205095 	0.0081399 	0.00272354 	-0.262465
0.00218995 	0.00148891 	-0.000777795 	-0.267981
0.00218995 	0.00798432 	0.00271083 	-0.26105
0.00232651 	0.00132285 	-0.000741309 	-0.266528
0.00232651 	0.00779141 	0.00270175 	-0.259672
0.00246065 	0.00115745 	-0.000703248 	-0.265042
0.00246065 	0.00756353 	0.00269528 	-0.258355
0.00259244 	0.000993317 	-0.000663972 	-0.263524
0.00259244 	0.00730267 	0.00269204 	-0.257109
0.0027219 	0.000830913 	-0.000623819 	-0.261973
0.0027219 	0.0070103 	0.00269437 	-0.25591
0.00284909 	0.000670638 	-0.000583048 	-0.260389
0.00284909 	0.00668971 	0.00270078 	-0.254726
0.00297403 	0.000512731 	-0.000541872 	-0.258773
0.00297403 	0.00634643 	0.00270552 	-0.253533
0.00309677 	0.000357069 	-0.000500617 	-0.257122
0.00309677 	0.00598562 	0.00270547 	-0.252326
0.00321735 	0.000203141 	-0.000459723 	-0.255432
0.00321735 	0.00561058 	0.00270402 	-0.251105
0.0033358 	5.0414e-05 	-0.000419561 	-0.253692
0.0033358 	0.00522272 	0.0027072 	-0.249865
0.00345217 	-0.000101109 	-0.000380199 	-0.251889
0.00345217 	0.00482255 	0.00271587 	-0.248594
0.00356649 	-0.000250669 	-0.000341369 	-0.250008
0.00356649 	0.00441059 	0.00272684 	-0.24728
0.00367879 	-0.000397266 	-0.000302685 	-0.248051
0.00367879 	0.00398769 	0.00273938 	-0.245913
0.00378912 	0.00355477 	0.0027547 	-0.244483
0.00378912 	-0.000540555 	-0.000263913 	-0.246035
0.0038975 	-0.000681183 	-0.000225574 	-0.243989
0.0038975 	0.00311302 	0.00276989 	-0.243001
0.00400397 	-0.000820235 	-0.000186828 	-0.241939
0.00400397 	0.00266367 	0.00279174 	-0.24151
0.00410857 	-0.000959158 	-0.000147272 	-0.239895
0.00410857 	0.00220222 	0.00282877 	-0.240066
0.00421133 	-0.0011 	-0.000110347 	-0.23785
0.00421133 	0.0017141 	0.00286241 	-0.238684
0.00431227 	-0.00124427 	-7.74935e-05 	-0.235785
0.00431227 	0.00118346 	0.00287645 	-0.237284
0.00441144 	-0.00139165 	-4.72423e-05 	-0.233681
0.00441144 	0.000605107 	0.00287532 	-0.235712
0.00450886 	-0.00153974 	-1.71498e-05 	-0.231525
0.00450886 	-1.08011e-05 	0.00287705 	-0.233868
0.00460456 	-0.00168565 	1.37863e-05 	-0.229317
0.00460456 	-0.000649458 	0.00289524 	-0.231758
0.00469858 	-0.00182773 	4.28452e-05 	-0.22706
0.00469858 	-0.00130471 	0.00291612 	-0.229444
0.00479094 	-0.00196551 	6.93559e-05 	-0.224757
0.00479094 	-0.00197628 	0.00292901 	-0.226989
0.00488168 	-0.00209879 	9.41801e-05 	-0.222409
0.00488168 	-0.00266388 	0.00293729 	-0.224442
0.00497081 	-0.00222759 	0.000117042 	-0.220012
0.00497081 	-0.00336684 	0.00294218 	-0.221856
0.00505838 	-0.00235211 	0.000137917 	-0.217563
0.00505838 	-0.00408475 	0.00294363 	-0.219271
0.0051444 	-0.00247267 	0.000156851 	-0.215059
0.0051444 	-0.00481783 	0.00294156 	-0.216691
0.00522891 	-0.00258976 	0.000173852 	-0.212493
0.00522891 	-0.00556701 	0.00293595 	-0.214077
0.00531193 	-0.00633376 	0.00292664 	-0.21137
0.00531193 	-0.00270393 	0.000188898 	-0.209861
0.00539348 	-0.00281584 	0.000201967 	-0.207157
0.00539348 	-0.00711966 	0.00291334 	-0.208532
0.0054736 	-0.00292611 	0.000213059 	-0.204374
0.0054736 	-0.00792623 	0.00289571 	-0.205563
0.00555231 	-0.0030354 	0.000222188 	-0.201504
0.00555231 	-0.00875468 	0.00287334 	-0.202478
0.00562963 	-0.00314431 	0.000229377 	-0.198538
0.00562963 	-0.00960597 	0.00284586 	-0.199292
0.00570559 	-0.00325338 	0.000234632 	-0.195467
0.00570559 	-0.0104808 	0.00281302 	-0.196015
0.00578022 	-0.00336304 	0.000237978 	-0.192279
0.00578022 	-0.0113797 	0.00277464 	-0.192648
0.00585352 	-0.00347348 	0.000239495 	-0.18896
0.00585352 	-0.0123027 	0.00273053 	-0.189186
0.00592554 	-0.00358471 	0.000239293 	-0.185491
0.00592554 	-0.0132496 	0.00268082 	-0.185618
0.00599629 	-0.00369676 	0.000237484 	-0.181852
0.00599629 	-0.0142196 	0.00262577 	-0.181932
0.00606579 	-0.0152113 	0.002565 	-0.178116
0.00606579 	-0.00380984 	0.000234101 	-0.178025
0.00613406 	-0.00392409 	0.000229161 	-0.17399
0.00613406 	-0.0162218 	0.00249812 	-0.174159
0.00620114 	-0.00403928 	0.00022276 	-0.169732
0.00620114 	-0.0172461 	0.00242516 	-0.170042
0.00626703 	-0.00415469 	0.000215028 	-0.165232
0.00626703 	-0.0182761 	0.0023466 	-0.165748
0.00633176 	-0.00426908 	0.000206078 	-0.160472
0.00633176 	-0.0193006 	0.00226269 	-0.161255
0.00639535 	-0.00438072 	0.000195956 	-0.155431
0.00639535 	-0.0203056 	0.00217292 	-0.156543
0.00645783 	-0.00448725 	0.000184857 	-0.150087
0.00645783 	-0.0212735 	0.00207795 	-0.151586
0.0065192 	-0.00458572 	0.000173071 	-0.144418
0.0065192 	-0.0221833 	0.00197886 	-0.146357
0.00657949 	-0.0046727 	0.000160477 	-0.138401
0.00657949 	-0.0230111 	0.00187428 	-0.140826
0.00663871 	-0.00474412 	0.000146855 	-0.132013
0.00663871 	-0.0237264 	0.00176208 	-0.134947
0.0066969 	-0.00479449 	0.000132554 	-0.125227
0.0066969 	-0.0242875 	0.0016425 	-0.128645
0.00675406 	-0.00481591 	0.000118316 	-0.118013
0.00675406 	-0.0246389 	0.00151835 	-0.121857
0.00681021 	-0.00479862 	0.000104492 	-0.110353
0.00681021 	-0.0247173 	0.00139164 	-0.114564
0.00686537 	-0.00473188 	9.08567e-05 	-0.102262
0.00686537 	-0.0244624 	0.00126251 	-0.106771
0.00691956 	-0.00460507 	7.74382e-05 	-0.0937936
0.00691956 	-0.0238248 	0.00113208 	-0.098517
0.0069728 	-0.00441032 	6.46572e-05 	-0.0850414
0.0069728 	-0.0227754 	0.00100265 	-0.0898835
0.0070251 	-0.00414506 	5.27909e-05 	-0.0761363
0.0070251 	-0.0213162 	0.000876415 	-0.0809995
0.00707647 	-0.0038134 	4.19612e-05 	-0.0672297
0.00707647 	-0.0194865 	0.000755211 	-0.0720215
0.00712695 	-0.00342617 	3.22651e-05 	-0.0584685
0.00712695 	-0.0173583 	0.000640393 	-0.063103
0.00717653 	-0.00299927 	2.37786e-05 	-0.0499688
0.00717653 	-0.0150245 	0.000532813 	-0.0543622
0.00722524 	-0.00255145 	1.66044e-05 	-0.0418018
0.00722524 	-0.012586 	0.000431383 	-0.0458645
0.00727309 	-0.00210398 	1.07762e-05 	-0.0339955
0.00727309 	-0.0101506 	0.00033784 	-0.0376274
0.0073201 	-0.00168444 	6.23396e-06 	-0.0265485
0.0073201 	-0.00785286 	0.000260277 	-0.0296393
0.00736628 	-0.00133645 	3.39883e-06 	-0.01945
0.00736628 	-0.00590223 	0.000158818 	-0.0218845
0.00741165 	-0.00103531 	1.33943e-06 	-0.0126846
0.00741165 	-0.00429202 	0.000102086 	-0.0143662
0.00745622 	-0.000622711 	1.84542e-07 	-0.00621945
0.00745622 	-0.00247939 	4.94275e-05 	-0.00708102
0.0075 	0 	0 	0
0.0075 	0 	0 	0
