
400
(
(0.000282606 -2.65702e-06 -1.28442e-06 0.000280814 -9.34238e-05 0.000283044)
(0.000282102 -1.56604e-06 -3.62882e-07 0.000279302 -9.72557e-05 0.000281917)
(0.000240078 -1.86357e-06 1.66013e-06 0.000241297 -7.89362e-05 0.000238125)
(0.00024109 -2.71936e-06 7.45088e-07 0.000243599 -7.52678e-05 0.000239395)
(0.000276205 -3.89533e-07 -5.23629e-07 0.000275362 -9.25628e-05 0.000275698)
(0.000235246 -1.4627e-06 1.4628e-06 0.000238115 -7.46252e-05 0.00023324)
(0.000270844 2.6689e-06 -7.75239e-07 0.000270421 -7.74909e-05 0.000270095)
(0.000231281 6.62584e-07 1.22824e-06 0.00023463 -5.89746e-05 0.000229148)
(0.00026785 5.62994e-06 -4.81913e-07 0.000265173 -6.60047e-05 0.000266919)
(0.000229575 3.16968e-06 1.6008e-06 0.000230738 -4.75112e-05 0.000227273)
(0.000266169 6.20503e-06 -1.29174e-07 0.000262164 -6.69262e-05 0.000265038)
(0.000229098 3.9729e-06 1.888e-06 0.000228406 -4.93054e-05 0.000226644)
(0.000265441 5.88035e-06 1.37664e-07 0.000261345 -6.84796e-05 0.000264028)
(0.00022943 4.38156e-06 1.97367e-06 0.000227857 -5.31666e-05 0.000226762)
(0.000266161 5.66057e-06 1.94833e-07 0.000261392 -6.91221e-05 0.000264475)
(0.000230735 4.82157e-06 1.94078e-06 0.000228237 -5.6322e-05 0.000227798)
(0.000268433 5.92672e-06 8.33736e-08 0.000262513 -7.19649e-05 0.000266493)
(0.000232974 5.24619e-06 1.80571e-06 0.000229385 -5.90806e-05 0.000229758)
(0.000272071 6.33944e-06 -2.00607e-07 0.000265468 -7.58548e-05 0.000269881)
(0.000236105 5.65258e-06 1.52054e-06 0.00023149 -6.15537e-05 0.000232616)
(0.000277154 6.65495e-06 -4.42633e-07 0.000270042 -8.00464e-05 0.00027471)
(0.000240194 6.03835e-06 1.27382e-06 0.000234494 -6.40536e-05 0.00023645)
(0.000283454 6.85769e-06 -1.39469e-07 0.000276253 -8.51005e-05 0.000280807)
(0.000245104 6.37561e-06 1.5644e-06 0.000238564 -6.71503e-05 0.000241177)
(0.000290597 7.18257e-06 6.37975e-07 0.00028428 -8.90543e-05 0.000287828)
(0.000250594 6.72044e-06 2.32896e-06 0.000243994 -6.82138e-05 0.000246593)
(0.000299049 8.18429e-06 1.18999e-06 0.000292531 -8.26299e-05 0.000296214)
(0.000257056 7.46376e-06 2.95408e-06 0.000249857 -5.78934e-05 0.000253042)
(0.000309035 1.03345e-05 1.29808e-06 0.000299719 -6.66337e-05 0.00030621)
(0.000264881 9.34579e-06 3.32134e-06 0.000255312 -3.88863e-05 0.000260863)
(0.000319794 1.3017e-05 1.28923e-06 0.000307316 -8.24979e-05 0.000317047)
(0.000274065 1.21927e-05 3.60839e-06 0.000261451 -5.3063e-05 0.000270041)
(0.000329964 9.78878e-06 -5.35064e-07 0.000318592 -0.000120934 0.000327098)
(0.000284045 9.76991e-06 1.86386e-06 0.000271317 -9.02428e-05 0.000279867)
(0.000336557 4.28858e-06 -2.81826e-06 0.000329243 -0.000127069 0.000333307)
(0.000291789 5.63387e-06 -6.1673e-07 0.00028126 -9.70215e-05 0.000287451)
(0.000337364 3.98515e-06 -2.76021e-06 0.000332737 -0.000109013 0.000333864)
(0.00029425 6.50394e-06 -7.94471e-07 0.00028589 -8.23338e-05 0.000289975)
(0.00033544 4.78431e-06 -8.32637e-07 0.000330324 -0.000109266 0.000331979)
(0.000294292 7.7367e-06 9.19326e-07 0.000285979 -8.47855e-05 0.000290271)
(0.000333709 4.42518e-06 1.74581e-06 0.000325266 -0.000118033 0.000330828)
(0.000295219 7.36394e-06 3.2391e-06 0.000283298 -9.36307e-05 0.000292104)
(0.000329633 3.95589e-06 3.59686e-06 0.000319545 -0.000114862 0.00032708)
(0.000294307 6.69903e-06 4.91509e-06 0.000279757 -9.21504e-05 0.000292091)
(0.000322006 3.87435e-06 4.46199e-06 0.000312283 -0.000112875 0.000318906)
(0.000289993 6.30136e-06 5.68517e-06 0.000275074 -9.39325e-05 0.000287674)
(0.000313375 4.08758e-06 4.58434e-06 0.000303839 -0.00010813 0.000309411)
(0.000284712 6.21172e-06 5.73179e-06 0.000269408 -9.27709e-05 0.000281544)
(0.000305459 5.29745e-06 4.79066e-06 0.000296032 -9.58808e-05 0.000300994)
(0.000279943 7.22709e-06 5.86421e-06 0.000264105 -8.24699e-05 0.000276206)
(0.000298938 6.31946e-06 5.09827e-06 0.000288928 -8.8378e-05 0.00029445)
(0.000276078 8.12177e-06 6.09492e-06 0.000259368 -7.58012e-05 0.000272387)
(0.000293716 6.36276e-06 5.1436e-06 0.000283012 -9.09213e-05 0.00028922)
(0.000273086 8.033e-06 6.05043e-06 0.000255684 -7.88306e-05 0.000269468)
(0.000289261 6.26711e-06 5.08588e-06 0.00027879 -9.47288e-05 0.000284818)
(0.000270607 7.78804e-06 5.88802e-06 0.000253369 -8.30532e-05 0.000267053)
(0.000285676 6.21712e-06 5.00263e-06 0.000275716 -9.80479e-05 0.000281336)
(0.000268786 7.61971e-06 5.69295e-06 0.000251858 -8.6658e-05 0.000265305)
(0.000282948 6.11433e-06 4.95775e-06 0.000273515 -0.000101086 0.000278755)
(0.000267615 7.4978e-06 5.48935e-06 0.000250948 -9.0031e-05 0.000264236)
(0.000280975 5.96217e-06 4.96042e-06 0.000272061 -0.000103776 0.000276969)
(0.000266964 7.41054e-06 5.27875e-06 0.000250673 -9.32748e-05 0.00026372)
(0.000279712 5.83439e-06 4.94569e-06 0.00027113 -0.00010631 0.000275907)
(0.000266766 7.3527e-06 5.06603e-06 0.000250945 -9.64183e-05 0.000263683)
(0.000279041 5.73165e-06 4.88705e-06 0.000270666 -0.000108717 0.000275432)
(0.000266966 7.32074e-06 4.85706e-06 0.000251667 -9.94609e-05 0.000264064)
(0.000278787 5.59417e-06 4.80417e-06 0.000270749 -0.00011096 0.000275374)
(0.000267504 7.30662e-06 4.65849e-06 0.000252757 -0.000102387 0.000264791)
(0.000278859 5.37503e-06 4.71561e-06 0.000271349 -0.000113023 0.000275645)
(0.000268299 7.2966e-06 4.46722e-06 0.000254145 -0.00010517 0.000265783)
(0.000279247 5.07306e-06 4.61648e-06 0.000272319 -0.000114891 0.000276228)
(0.00026928 7.27854e-06 4.26307e-06 0.000255742 -0.000107769 0.000266962)
(0.000279937 4.72231e-06 4.52534e-06 0.000273552 -0.000116511 0.000277115)
(0.000270377 7.24873e-06 4.05303e-06 0.000257455 -0.000110182 0.00026825)
(0.000280916 4.37245e-06 4.52254e-06 0.000274955 -0.000117822 0.000278323)
(0.000271497 7.20928e-06 3.9162e-06 0.000259257 -0.000112446 0.000269525)
(0.000282158 4.0722e-06 4.64458e-06 0.000276488 -0.000118896 0.000279881)
(0.000272554 7.15529e-06 3.91372e-06 0.000261102 -0.000114506 0.000270673)
(0.000283625 3.85173e-06 4.75622e-06 0.000278234 -0.000120008 0.000281739)
(0.000273518 7.07374e-06 3.94217e-06 0.000262827 -0.000116142 0.00027167)
(0.000285329 3.69605e-06 4.73644e-06 0.000280265 -0.0001214 0.000283778)
(0.000274357 6.97153e-06 3.88063e-06 0.000264288 -0.00011725 0.000272587)
(0.000287195 3.56272e-06 4.61503e-06 0.000282725 -0.000123167 0.000285835)
(0.000274993 6.87889e-06 3.74015e-06 0.00026559 -0.000118063 0.000273416)
(0.000289108 3.48639e-06 4.44833e-06 0.00028561 -0.000125134 0.000287878)
(0.000275406 6.8057e-06 3.5726e-06 0.000266898 -0.000118343 0.000274074)
(0.000291255 3.61693e-06 4.2329e-06 0.000288284 -0.00012532 0.000290158)
(0.000275734 6.77475e-06 3.41301e-06 0.000268029 -0.000116399 0.000274638)
(0.000293733 3.97355e-06 3.94758e-06 0.000290359 -0.000122235 0.000292774)
(0.000276152 6.86111e-06 3.26927e-06 0.000268817 -0.000111776 0.000275272)
(0.00029624 4.20604e-06 3.65359e-06 0.000292261 -0.000121597 0.000295433)
(0.000276752 6.99638e-06 3.13753e-06 0.000269507 -0.000110229 0.000276081)
(0.000298283 3.78613e-06 3.24904e-06 0.000294665 -0.00013047 0.000297634)
(0.000277447 6.84616e-06 2.83041e-06 0.00027067 -0.000118386 0.000276972)
(0.000299211 2.78511e-06 2.4972e-06 0.000297351 -0.000138043 0.000298659)
(0.000277735 6.43141e-06 2.08714e-06 0.000272224 -0.000125542 0.000277423)
(0.000298474 1.85499e-06 1.95097e-06 0.00029816 -0.000138131 0.000297984)
(0.000276797 6.12983e-06 1.49963e-06 0.000272428 -0.000125557 0.000276675)
(0.000295822 1.41316e-06 1.99036e-06 0.000295611 -0.000136397 0.000295436)
(0.000274031 6.03606e-06 1.53436e-06 0.000270047 -0.000124557 0.000274164)
(0.000291489 1.34571e-06 2.23634e-06 0.000290702 -0.000133808 0.000291256)
(0.000269687 6.0188e-06 1.82112e-06 0.000265702 -0.000122568 0.000270077)
(0.000286158 1.33336e-06 2.34013e-06 0.000285081 -0.000130215 0.000286072)
(0.000264564 5.93965e-06 1.97072e-06 0.000260668 -0.000118676 0.000265145)
(0.000280328 1.23494e-06 2.21505e-06 0.000279535 -0.000126401 0.00028034)
(0.000259144 5.73138e-06 1.89975e-06 0.000255748 -0.000114903 0.000259843)
(0.000274087 9.96753e-07 2.04865e-06 0.000273703 -0.000123989 0.000274181)
(0.000253482 5.3363e-06 1.78977e-06 0.000250702 -0.000113129 0.000254279)
(0.000267214 6.44133e-07 1.89256e-06 0.000267014 -0.000121464 0.000267379)
(0.000247365 4.76206e-06 1.68257e-06 0.000245053 -0.000111394 0.00024825)
(0.000259327 2.77252e-07 1.74804e-06 0.000259236 -0.000118328 0.000259535)
(0.00024045 4.11409e-06 1.57555e-06 0.000238543 -0.00010897 0.000241385)
(0.000250162 -4.42279e-08 1.61253e-06 0.0002502 -0.000114742 0.000250386)
(0.000232479 3.46107e-06 1.46764e-06 0.00023094 -0.000106037 0.000233423)
(0.000239612 -3.16213e-07 1.47465e-06 0.000239734 -0.000110751 0.000239837)
(0.000223284 2.80433e-06 1.35314e-06 0.000222049 -0.000102769 0.000224209)
(0.000227601 -5.35776e-07 1.30906e-06 0.000227764 -0.000105756 0.000227815)
(0.000212727 2.15002e-06 1.20916e-06 0.000211755 -9.85399e-05 0.000213609)
(0.000214034 -7.14122e-07 1.12184e-06 0.000214226 -9.9512e-05 0.000214231)
(0.00020068 1.50356e-06 1.04207e-06 0.000199942 -9.30875e-05 0.0002015)
(0.000198833 -8.68173e-07 9.46239e-07 0.000199043 -9.24525e-05 0.000199014)
(0.000187037 8.72435e-07 8.8456e-07 0.000186502 -8.68256e-05 0.00018779)
(0.000181982 -9.94358e-07 7.89774e-07 0.000182197 -8.44999e-05 0.000182149)
(0.000171763 2.81687e-07 7.43684e-07 0.000171403 -7.96674e-05 0.000172445)
(0.000163557 -1.08362e-06 6.51355e-07 0.000163764 -7.5559e-05 0.00016371)
(0.000154927 -2.51542e-07 6.17542e-07 0.000154712 -7.15649e-05 0.000155533)
(0.000143778 -1.12188e-06 5.28233e-07 0.000143958 -6.55702e-05 0.000143915)
(0.000136744 -7.0609e-07 5.04386e-07 0.000136635 -6.26063e-05 0.000137269)
(0.000123064 -1.09261e-06 4.12313e-07 0.000123206 -5.44764e-05 0.000123182)
(0.000117591 -1.02485e-06 3.96965e-07 0.000117547 -5.26164e-05 0.000118024)
(0.000102038 -9.88541e-07 3.02813e-07 0.000102141 -4.28519e-05 0.00010213)
(9.80024e-05 -1.16182e-06 2.93559e-07 9.79933e-05 -4.1933e-05 9.83362e-05)
(8.14966e-05 -8.27879e-07 2.08377e-07 8.15665e-05 -3.17341e-05 8.15625e-05)
(7.86947e-05 -1.1292e-06 2.03063e-07 7.87019e-05 -3.15415e-05 7.89353e-05)
(6.23596e-05 -6.372e-07 1.3335e-07 6.24036e-05 -2.19283e-05 6.24027e-05)
(6.05382e-05 -9.64416e-07 1.30447e-07 6.05496e-05 -2.21932e-05 6.0699e-05)
(4.54981e-05 -4.44896e-07 7.82188e-08 4.55241e-05 -1.39603e-05 4.55233e-05)
(4.43899e-05 -7.26043e-07 7.66841e-08 4.43989e-05 -1.44113e-05 4.44886e-05)
(3.15262e-05 -2.78628e-07 4.14723e-08 3.15406e-05 -8.09002e-06 3.15391e-05)
(3.08908e-05 -4.80808e-07 4.06725e-08 3.08955e-05 -8.52471e-06 3.09457e-05)
(2.06724e-05 -1.55123e-07 1.96294e-08 2.06798e-05 -4.22276e-06 2.0678e-05)
(2.03249e-05 -2.79175e-07 1.92187e-08 2.03266e-05 -4.54183e-06 2.03524e-05)
(1.27725e-05 -7.61665e-08 8.20001e-09 1.2776e-05 -1.9664e-06 1.27745e-05)
(1.259e-05 -1.41468e-07 7.99913e-09 1.25901e-05 -2.15759e-06 1.26022e-05)
(7.38142e-06 -3.26353e-08 2.98403e-09 7.38287e-06 -8.07433e-07 7.38191e-06)
(7.29007e-06 -6.19655e-08 2.8956e-09 7.28982e-06 -9.03037e-07 7.29486e-06)
(3.93626e-06 -1.19601e-08 9.26789e-10 3.9368e-06 -2.86668e-07 3.93632e-06)
(3.89426e-06 -2.2956e-08 8.93949e-10 3.89404e-06 -3.26423e-07 3.89587e-06)
(1.89056e-06 -3.60183e-09 2.36909e-10 1.89073e-06 -8.48522e-08 1.89054e-06)
(1.87426e-06 -6.86935e-09 2.27391e-10 1.87416e-06 -9.81863e-08 1.87471e-06)
(7.84256e-07 -8.25707e-10 4.67252e-11 7.84295e-07 -1.95776e-08 7.84244e-07)
(7.80325e-07 -1.51287e-09 4.48399e-11 7.80294e-07 -2.29504e-08 7.80422e-07)
(2.61824e-07 -1.26715e-10 6.34191e-12 2.6183e-07 -3.12785e-09 2.61822e-07)
(2.63591e-07 -2.08344e-10 6.16781e-12 2.63585e-07 -3.71308e-09 2.63606e-07)
(6.62313e-08 -1.19817e-11 4.8848e-13 6.62316e-08 -2.96053e-10 6.62311e-08)
(7.37364e-08 -1.94841e-11 5.0023e-13 7.37361e-08 -3.80043e-10 7.37378e-08)
(4.57302e-08 -1.3283e-12 2.36361e-14 4.57302e-08 -2.59519e-11 4.57302e-08)
(8.80617e-08 -6.7113e-12 2.77267e-14 8.80617e-08 -6.13359e-11 8.80618e-08)
(6.76433e-08 0 0 6.76433e-08 0 6.76433e-08)
(1.40948e-07 -1.03871e-27 4.29125e-30 1.40948e-07 -9.49295e-27 1.40948e-07)
(0.000205026 3.19872e-06 2.36817e-06 0.000199878 -1.95189e-05 0.000204337)
(0.000206732 3.207e-06 2.38871e-06 0.000201882 -2.96248e-05 0.000206391)
(0.00020512 2.84501e-06 2.71831e-06 0.000200236 -1.54557e-05 0.000204245)
(0.000206007 2.3678e-06 4.05707e-06 0.000201833 -1.63048e-05 0.000205123)
(0.000207337 1.92696e-06 5.68415e-06 0.000204041 -1.87955e-05 0.00020645)
(0.000209064 1.49983e-06 6.65595e-06 0.000206375 -2.1616e-05 0.000208056)
(0.00021107 1.1131e-06 7.03995e-06 0.00020858 -2.48647e-05 0.000209902)
(0.000213178 7.56431e-07 7.14485e-06 0.000210658 -2.83212e-05 0.000211867)
(0.000215232 4.00153e-07 7.2044e-06 0.000212659 -3.1124e-05 0.000213789)
(0.000217104 6.28059e-08 7.26663e-06 0.000214697 -3.25259e-05 0.000215526)
(0.00021884 -2.40274e-07 7.30629e-06 0.000216749 -3.27729e-05 0.000217123)
(0.000220689 -5.49883e-07 7.30956e-06 0.000218579 -3.24393e-05 0.000218828)
(0.000222849 -8.94093e-07 7.27134e-06 0.000220137 -3.12175e-05 0.000220833)
(0.00022471 -1.17492e-06 7.18591e-06 0.00022307 -2.91896e-05 0.00022251)
(0.00022583 -8.28106e-07 7.05936e-06 0.000228853 -3.18656e-05 0.000223371)
(0.000229329 4.28365e-07 6.98253e-06 0.000231864 -4.84336e-05 0.000226506)
(0.000235341 1.16347e-06 7.20507e-06 0.000231218 -6.16157e-05 0.000232626)
(0.00023886 3.10116e-07 7.65115e-06 0.000234932 -6.20975e-05 0.00023627)
(0.000239261 -1.93663e-06 7.85395e-06 0.000244397 -4.98338e-05 0.000236035)
(0.000244578 -3.85517e-06 7.6977e-06 0.000246568 -2.99845e-05 0.00024085)
(0.000253827 -3.2346e-06 7.38982e-06 0.000244602 -4.27002e-05 0.000250036)
(0.000258608 -8.71513e-07 5.24004e-06 0.000253766 -7.46136e-05 0.00025493)
(0.000261688 4.60754e-07 2.57634e-06 0.00026547 -9.11782e-05 0.000258154)
(0.000267549 -2.7974e-07 3.20547e-06 0.000266323 -9.89448e-05 0.00026392)
(0.00027708 -2.67997e-06 5.13393e-06 0.000253468 -7.35019e-05 0.000273275)
(0.000280279 -3.98753e-06 5.77431e-06 0.000250548 -4.27322e-05 0.000276432)
(0.000273677 -2.52425e-06 5.78643e-06 0.000267088 -5.29283e-05 0.000269858)
(0.000269804 -6.21356e-07 5.72355e-06 0.000278202 -7.43114e-05 0.000265999)
(0.000272761 3.00517e-07 5.59607e-06 0.000275679 -8.57496e-05 0.000268956)
(0.000276659 4.79436e-07 5.43098e-06 0.000271505 -8.93428e-05 0.00027286)
(0.000278149 5.24826e-07 5.2319e-06 0.000272758 -9.13107e-05 0.000274365)
(0.000279517 6.21966e-07 5.00146e-06 0.000275212 -9.34671e-05 0.000275754)
(0.00028175 7.56644e-07 4.74913e-06 0.000277155 -9.57767e-05 0.000278016)
(0.000283872 9.11595e-07 4.48861e-06 0.000280752 -9.80179e-05 0.000280173)
(0.00028708 1.06896e-06 4.23334e-06 0.000283773 -9.98337e-05 0.000283425)
(0.000293242 1.51119e-06 3.99648e-06 0.000282695 -0.000103487 0.000289644)
(0.000298512 2.96567e-06 3.77903e-06 0.000285431 -0.000117107 0.000294972)
(0.000300427 4.37214e-06 2.5286e-06 0.000296033 -0.000130632 0.000297217)
(0.000302303 4.56264e-06 8.23137e-07 0.000304372 -0.000134662 0.000299493)
(0.00030437 4.13252e-06 3.69634e-07 0.000303736 -0.00013622 0.000301515)
(0.000306233 2.60282e-06 1.45209e-06 0.000292942 -0.000128495 0.000302887)
(0.000304603 5.47836e-07 2.436e-06 0.000284553 -0.000107932 0.00030098)
(0.000297501 3.05966e-07 2.45716e-06 0.000287763 -9.97158e-05 0.00029403)
(0.000290605 1.60346e-06 2.46045e-06 0.000291662 -0.000109908 0.000287276)
(0.00028726 2.60218e-06 2.42234e-06 0.000288714 -0.000117969 0.000284048)
(0.000285416 2.9553e-06 2.35516e-06 0.000282682 -0.000120302 0.000282303)
(0.000282544 3.07345e-06 2.27096e-06 0.000278621 -0.000120396 0.000279536)
(0.000279009 3.19382e-06 2.17493e-06 0.000275815 -0.000120253 0.000276158)
(0.000275545 3.32901e-06 2.07029e-06 0.000272741 -0.000120154 0.000272917)
(0.000272063 3.46786e-06 1.95889e-06 0.000269478 -0.000120029 0.000269678)
(0.000268433 3.60368e-06 1.84242e-06 0.00026608 -0.000119711 0.000266271)
(0.000264557 3.71332e-06 1.72358e-06 0.000262449 -0.000119069 0.000262593)
(0.00026033 3.77157e-06 1.60431e-06 0.000258465 -0.000118106 0.000258552)
(0.000255644 3.76278e-06 1.4858e-06 0.000254022 -0.000116895 0.000254049)
(0.000250376 3.67984e-06 1.35757e-06 0.000249018 -0.000115233 0.000248969)
(0.000244394 3.53186e-06 1.21401e-06 0.000243292 -0.000112807 0.000243174)
(0.000237534 3.33284e-06 1.0684e-06 0.000236636 -0.000109736 0.000236494)
(0.000229556 3.08991e-06 9.28187e-07 0.000228851 -0.000106153 0.00022869)
(0.000220182 2.78985e-06 7.9418e-07 0.000219692 -0.000101918 0.000219478)
(0.000209115 2.41204e-06 6.70466e-07 0.000208821 -9.68841e-05 0.000208555)
(0.000196131 1.95969e-06 5.63743e-07 0.000195968 -9.094e-05 0.000195688)
(0.000181166 1.45961e-06 4.75635e-07 0.000181065 -8.40518e-05 0.000180814)
(0.000164288 9.39937e-07 4.0152e-07 0.000164246 -7.60952e-05 0.000164013)
(0.000145713 4.21712e-07 3.37081e-07 0.000145761 -6.68958e-05 0.000145507)
(0.000125822 -4.34969e-08 2.76837e-07 0.000125944 -5.66131e-05 0.000125671)
(0.000105198 -3.89341e-07 2.15098e-07 0.000105342 -4.55864e-05 0.00010509)
(8.4673e-05 -5.77881e-07 1.53448e-07 8.48034e-05 -3.43775e-05 8.46015e-05)
(6.52451e-05 -6.09006e-07 9.97201e-08 6.5346e-05 -2.40261e-05 6.52021e-05)
(4.789e-05 -5.22204e-07 5.89241e-08 4.79592e-05 -1.54424e-05 4.78664e-05)
(3.33446e-05 -3.77201e-07 3.11359e-08 3.33857e-05 -9.02584e-06 3.3333e-05)
(2.19436e-05 -2.32005e-07 1.44915e-08 2.19645e-05 -4.7547e-06 2.19387e-05)
(1.35896e-05 -1.21559e-07 5.85941e-09 1.35987e-05 -2.24261e-06 1.35879e-05)
(7.86214e-06 -5.37683e-08 2.02886e-09 7.86556e-06 -9.40622e-07 7.86172e-06)
(4.19251e-06 -1.95761e-08 5.89983e-10 4.19359e-06 -3.46591e-07 4.19247e-06)
(2.01229e-06 -5.53262e-09 1.3956e-10 2.01256e-06 -1.09461e-07 2.01231e-06)
(8.35024e-07 -1.05531e-09 2.53941e-11 8.35078e-07 -2.82642e-08 8.35037e-07)
(2.81725e-07 -9.45078e-11 3.20709e-12 2.8174e-07 -5.4585e-09 2.81729e-07)
(8.10721e-08 -5.58723e-12 2.34011e-13 8.10733e-08 -6.96129e-10 8.10726e-08)
(1.09947e-07 -6.79048e-12 1.21693e-14 1.09947e-07 -1.10733e-10 1.09947e-07)
(1.7831e-07 0 0 1.7831e-07 0 1.7831e-07)
(0.00024705 3.49625e-06 3.45164e-07 0.000237883 -3.78384e-05 0.000248129)
(0.000248248 3.26934e-06 3.59193e-07 0.000239097 -4.77808e-05 0.00025004)
(0.00024608 3.91818e-06 7.31886e-07 0.000237483 -3.33933e-05 0.000246703)
(0.000245569 4.37411e-06 2.05358e-06 0.000237624 -3.48211e-05 0.00024607)
(0.000245611 4.38722e-06 3.60144e-06 0.000238476 -3.72889e-05 0.000246096)
(0.000246135 3.73196e-06 4.63878e-06 0.000240132 -3.92368e-05 0.000246449)
(0.000247081 2.6119e-06 5.20395e-06 0.000242068 -4.01777e-05 0.000247168)
(0.000248603 1.59543e-06 5.3989e-06 0.000243813 -4.11213e-05 0.000248544)
(0.00025069 1.08068e-06 5.48206e-06 0.000245787 -4.40083e-05 0.000250525)
(0.00025307 7.49661e-07 5.54549e-06 0.000248675 -4.68269e-05 0.000252792)
(0.000255799 3.76327e-07 5.58984e-06 0.000252296 -4.87657e-05 0.000255383)
(0.000259039 -6.78015e-08 5.60569e-06 0.000256268 -5.03896e-05 0.000258458)
(0.000262853 -4.3196e-07 5.58035e-06 0.000260422 -5.20581e-05 0.000262067)
(0.000266703 -4.54394e-07 5.42182e-06 0.000265744 -5.39261e-05 0.000265683)
(0.000269985 1.60555e-07 5.03609e-06 0.00027326 -5.9613e-05 0.000268718)
(0.000275058 1.25264e-06 4.66337e-06 0.000277729 -7.78685e-05 0.000273512)
(0.000281259 1.18235e-06 4.80615e-06 0.000278493 -9.23066e-05 0.000279857)
(0.000283628 -1.03517e-06 5.44962e-06 0.000282914 -9.21452e-05 0.000282125)
(0.000282375 -4.45541e-06 5.88821e-06 0.000291244 -7.65136e-05 0.000279924)
(0.000285726 -6.80757e-06 5.94574e-06 0.000290913 -5.4465e-05 0.000282558)
(0.000292317 -6.17336e-06 5.89653e-06 0.000286569 -6.71023e-05 0.00028876)
(0.000293933 -3.61465e-06 3.92182e-06 0.000293555 -9.73252e-05 0.000289919)
(0.000293701 -1.96625e-06 1.35315e-06 0.00030268 -0.00011012 0.000289385)
(0.000296212 -2.40387e-06 2.05802e-06 0.000300753 -0.000114304 0.000291788)
(0.000302595 -4.60961e-06 4.06039e-06 0.000285396 -8.69127e-05 0.000298062)
(0.000303138 -5.78984e-06 4.77767e-06 0.000280109 -5.5309e-05 0.000298495)
(0.000294307 -4.19449e-06 4.87961e-06 0.000294416 -6.5019e-05 0.00028961)
(0.000288459 -2.14229e-06 4.92142e-06 0.000303622 -8.5987e-05 0.000283764)
(0.000289651 -1.10208e-06 4.90575e-06 0.000299537 -9.71394e-05 0.000284987)
(0.000291992 -9.04035e-07 4.89938e-06 0.000294072 -0.000100398 0.000287378)
(0.000292161 -9.23541e-07 4.91357e-06 0.000294146 -0.000101812 0.000287615)
(0.000292464 -8.96347e-07 4.88112e-06 0.000295398 -0.000103359 0.000287977)
(0.000293825 -8.32447e-07 4.77912e-06 0.000296154 -0.000105032 0.000289384)
(0.000295156 -8.00853e-07 4.63429e-06 0.000298744 -0.00010659 0.000290756)
(0.000297639 -8.52609e-07 4.48173e-06 0.000300976 -0.000107686 0.000293287)
(0.000303209 -6.94295e-07 4.34989e-06 0.000299272 -0.00011061 0.00029891)
(0.000308072 4.39251e-07 4.25134e-06 0.000301528 -0.000123436 0.000303837)
(0.000309846 1.53531e-06 3.13494e-06 0.000311731 -0.000136007 0.000306015)
(0.000311908 1.47954e-06 1.55399e-06 0.000319758 -0.000139052 0.0003087)
(0.000314476 9.10513e-07 1.18369e-06 0.000319143 -0.000140086 0.000311584)
(0.000317205 -6.72658e-07 2.3079e-06 0.00030892 -0.000132645 0.000314078)
(0.000316804 -2.76834e-06 3.31087e-06 0.000301688 -0.000113036 0.000313398)
(0.000311203 -3.01335e-06 3.33289e-06 0.000306475 -0.000106507 0.000307833)
(0.000306127 -1.55436e-06 3.28033e-06 0.000311917 -0.000118829 0.000302797)
(0.000304841 -2.85374e-07 3.10065e-06 0.000310256 -0.000128428 0.00030155)
(0.000304904 1.64962e-07 2.87123e-06 0.000305436 -0.000131669 0.000301655)
(0.00030338 1.34279e-08 2.68959e-06 0.000302615 -0.00013248 0.000300198)
(0.000300485 -4.5248e-07 2.58498e-06 0.000300942 -0.000132755 0.000297393)
(0.000297223 -9.4583e-07 2.52162e-06 0.000298473 -0.000132729 0.000294225)
(0.000293854 -1.15504e-06 2.41489e-06 0.000295042 -0.000131869 0.000290949)
(0.000290235 -1.06941e-06 2.25764e-06 0.000291079 -0.00013095 0.00028745)
(0.000286151 -8.92972e-07 2.09299e-06 0.000286862 -0.000130609 0.000283519)
(0.000281514 -7.24877e-07 1.91961e-06 0.000282252 -0.000129604 0.000279049)
(0.000276249 -5.76758e-07 1.74468e-06 0.000277022 -0.000127756 0.000273951)
(0.000270226 -4.38082e-07 1.56757e-06 0.000270979 -0.000125304 0.000268099)
(0.000263271 -3.04978e-07 1.38649e-06 0.000263985 -0.000122164 0.000261324)
(0.000255217 -1.72465e-07 1.21328e-06 0.000255895 -0.000118441 0.000253456)
(0.000245884 -3.06291e-08 1.04969e-06 0.000246536 -0.000114135 0.000244318)
(0.000235056 1.04048e-07 8.9408e-07 0.000235701 -0.000109133 0.000233685)
(0.00022247 1.94356e-07 7.50236e-07 0.000223106 -0.000103309 0.000221286)
(0.000207927 2.19082e-07 6.25422e-07 0.000208508 -9.65669e-05 0.000206911)
(0.000191385 1.8357e-07 5.21726e-07 0.000191859 -8.88843e-05 0.000190518)
(0.000172918 1.07858e-07 4.35333e-07 0.000173298 -8.00893e-05 0.00017219)
(0.000152747 5.92453e-09 3.60928e-07 0.000153084 -6.98597e-05 0.000152153)
(0.000131296 -1.11255e-07 2.92185e-07 0.000131602 -5.84731e-05 0.000130829)
(0.000109233 -2.16059e-07 2.24352e-07 0.00010949 -4.65053e-05 0.000108883)
(8.7475e-05 -2.76564e-07 1.58762e-07 8.76679e-05 -3.45701e-05 8.72287e-05)
(6.70665e-05 -2.81789e-07 1.02623e-07 6.71999e-05 -2.37611e-05 6.69058e-05)
(4.89981e-05 -2.41057e-07 6.04589e-08 4.90844e-05 -1.49914e-05 4.8901e-05)
(3.398e-05 -1.75021e-07 3.19357e-08 3.40307e-05 -8.59115e-06 3.39264e-05)
(2.22911e-05 -1.07953e-07 1.49022e-08 2.23177e-05 -4.43563e-06 2.22643e-05)
(1.37721e-05 -5.62576e-08 6.06029e-09 1.37845e-05 -2.05142e-06 1.37602e-05)
(7.95349e-06 -2.44381e-08 2.11728e-09 7.95861e-06 -8.45018e-07 7.94877e-06)
(4.23451e-06 -8.58023e-09 6.22823e-10 4.23634e-06 -3.06835e-07 4.23291e-06)
(2.02859e-06 -2.2651e-09 1.49079e-10 2.02913e-06 -9.6127e-08 2.02814e-06)
(8.38955e-07 -3.68152e-10 2.72795e-11 8.39079e-07 -2.48914e-08 8.38859e-07)
(2.79958e-07 -1.28789e-11 3.38118e-12 2.79985e-07 -4.87327e-09 2.79944e-07)
(7.3567e-08 1.9151e-12 2.22261e-13 7.35688e-08 -6.12139e-10 7.3566e-08)
(6.76151e-08 -1.40747e-12 8.07877e-15 6.76153e-08 -7.53486e-11 6.76151e-08)
(1.05006e-07 0 0 1.05006e-07 0 1.05006e-07)
(0.000282102 -1.56604e-06 -3.62882e-07 0.000279302 -9.72557e-05 0.000281917)
(0.000282606 -2.65702e-06 -1.28442e-06 0.000280814 -9.34238e-05 0.000283044)
(0.000276205 -3.89533e-07 -5.23629e-07 0.000275362 -9.25628e-05 0.000275698)
(0.000270844 2.6689e-06 -7.75239e-07 0.000270421 -7.74909e-05 0.000270095)
(0.00026785 5.62994e-06 -4.81913e-07 0.000265173 -6.60047e-05 0.000266919)
(0.000266169 6.20503e-06 -1.29174e-07 0.000262164 -6.69262e-05 0.000265038)
(0.000265441 5.88035e-06 1.37664e-07 0.000261345 -6.84796e-05 0.000264028)
(0.000266161 5.66057e-06 1.94833e-07 0.000261392 -6.91221e-05 0.000264475)
(0.000268433 5.92672e-06 8.33736e-08 0.000262513 -7.19649e-05 0.000266493)
(0.000272071 6.33944e-06 -2.00607e-07 0.000265468 -7.58548e-05 0.000269881)
(0.000277154 6.65495e-06 -4.42633e-07 0.000270042 -8.00464e-05 0.00027471)
(0.000283454 6.85769e-06 -1.39469e-07 0.000276253 -8.51005e-05 0.000280807)
(0.000290597 7.18257e-06 6.37975e-07 0.00028428 -8.90543e-05 0.000287828)
(0.000299049 8.18429e-06 1.18999e-06 0.000292531 -8.26299e-05 0.000296214)
(0.000309035 1.03345e-05 1.29808e-06 0.000299719 -6.66337e-05 0.00030621)
(0.000319794 1.3017e-05 1.28923e-06 0.000307316 -8.24979e-05 0.000317047)
(0.000329964 9.78878e-06 -5.35064e-07 0.000318592 -0.000120934 0.000327098)
(0.000336557 4.28858e-06 -2.81826e-06 0.000329243 -0.000127069 0.000333307)
(0.000337364 3.98515e-06 -2.76021e-06 0.000332737 -0.000109013 0.000333864)
(0.00033544 4.78431e-06 -8.32637e-07 0.000330324 -0.000109266 0.000331979)
(0.000333709 4.42518e-06 1.74581e-06 0.000325266 -0.000118033 0.000330828)
(0.000329633 3.95589e-06 3.59686e-06 0.000319545 -0.000114862 0.00032708)
(0.000322006 3.87435e-06 4.46199e-06 0.000312283 -0.000112875 0.000318906)
(0.000313375 4.08758e-06 4.58434e-06 0.000303839 -0.00010813 0.000309411)
(0.000305459 5.29745e-06 4.79066e-06 0.000296032 -9.58808e-05 0.000300994)
(0.000298938 6.31946e-06 5.09827e-06 0.000288928 -8.8378e-05 0.00029445)
(0.000293716 6.36276e-06 5.1436e-06 0.000283012 -9.09213e-05 0.00028922)
(0.000289261 6.26711e-06 5.08588e-06 0.00027879 -9.47288e-05 0.000284818)
(0.000285676 6.21712e-06 5.00263e-06 0.000275716 -9.80479e-05 0.000281336)
(0.000282948 6.11433e-06 4.95775e-06 0.000273515 -0.000101086 0.000278755)
(0.000280975 5.96217e-06 4.96042e-06 0.000272061 -0.000103776 0.000276969)
(0.000279712 5.83439e-06 4.94569e-06 0.00027113 -0.00010631 0.000275907)
(0.000279041 5.73165e-06 4.88705e-06 0.000270666 -0.000108717 0.000275432)
(0.000278787 5.59417e-06 4.80417e-06 0.000270749 -0.00011096 0.000275374)
(0.000278859 5.37503e-06 4.71561e-06 0.000271349 -0.000113023 0.000275645)
(0.000279247 5.07306e-06 4.61648e-06 0.000272319 -0.000114891 0.000276228)
(0.000279937 4.72231e-06 4.52534e-06 0.000273552 -0.000116511 0.000277115)
(0.000280916 4.37245e-06 4.52254e-06 0.000274955 -0.000117822 0.000278323)
(0.000282158 4.0722e-06 4.64458e-06 0.000276488 -0.000118896 0.000279881)
(0.000283625 3.85173e-06 4.75622e-06 0.000278234 -0.000120008 0.000281739)
(0.000285329 3.69605e-06 4.73644e-06 0.000280265 -0.0001214 0.000283778)
(0.000287195 3.56272e-06 4.61503e-06 0.000282725 -0.000123167 0.000285835)
(0.000289108 3.48639e-06 4.44833e-06 0.00028561 -0.000125134 0.000287878)
(0.000291255 3.61693e-06 4.2329e-06 0.000288284 -0.00012532 0.000290158)
(0.000293733 3.97355e-06 3.94758e-06 0.000290359 -0.000122235 0.000292774)
(0.00029624 4.20604e-06 3.65359e-06 0.000292261 -0.000121597 0.000295433)
(0.000298283 3.78613e-06 3.24904e-06 0.000294665 -0.00013047 0.000297634)
(0.000299211 2.78511e-06 2.4972e-06 0.000297351 -0.000138043 0.000298659)
(0.000298474 1.85499e-06 1.95097e-06 0.00029816 -0.000138131 0.000297984)
(0.000295822 1.41316e-06 1.99036e-06 0.000295611 -0.000136397 0.000295436)
(0.000291489 1.34571e-06 2.23634e-06 0.000290702 -0.000133808 0.000291256)
(0.000286158 1.33336e-06 2.34013e-06 0.000285081 -0.000130215 0.000286072)
(0.000280328 1.23494e-06 2.21505e-06 0.000279535 -0.000126401 0.00028034)
(0.000274087 9.96753e-07 2.04865e-06 0.000273703 -0.000123989 0.000274181)
(0.000267214 6.44133e-07 1.89256e-06 0.000267014 -0.000121464 0.000267379)
(0.000259327 2.77252e-07 1.74804e-06 0.000259236 -0.000118328 0.000259535)
(0.000250162 -4.42279e-08 1.61253e-06 0.0002502 -0.000114742 0.000250386)
(0.000239612 -3.16213e-07 1.47465e-06 0.000239734 -0.000110751 0.000239837)
(0.000227601 -5.35776e-07 1.30906e-06 0.000227764 -0.000105756 0.000227815)
(0.000214034 -7.14122e-07 1.12184e-06 0.000214226 -9.9512e-05 0.000214231)
(0.000198833 -8.68173e-07 9.46239e-07 0.000199043 -9.24525e-05 0.000199014)
(0.000181982 -9.94358e-07 7.89774e-07 0.000182197 -8.44999e-05 0.000182149)
(0.000163557 -1.08362e-06 6.51355e-07 0.000163764 -7.5559e-05 0.00016371)
(0.000143778 -1.12188e-06 5.28233e-07 0.000143958 -6.55702e-05 0.000143915)
(0.000123064 -1.09261e-06 4.12313e-07 0.000123206 -5.44764e-05 0.000123182)
(0.000102038 -9.88541e-07 3.02813e-07 0.000102141 -4.28519e-05 0.00010213)
(8.14966e-05 -8.27879e-07 2.08377e-07 8.15665e-05 -3.17341e-05 8.15625e-05)
(6.23596e-05 -6.372e-07 1.3335e-07 6.24036e-05 -2.19283e-05 6.24027e-05)
(4.54981e-05 -4.44896e-07 7.82188e-08 4.55241e-05 -1.39603e-05 4.55233e-05)
(3.15262e-05 -2.78628e-07 4.14723e-08 3.15406e-05 -8.09002e-06 3.15391e-05)
(2.06724e-05 -1.55123e-07 1.96294e-08 2.06798e-05 -4.22276e-06 2.0678e-05)
(1.27725e-05 -7.61665e-08 8.20001e-09 1.2776e-05 -1.9664e-06 1.27745e-05)
(7.38142e-06 -3.26353e-08 2.98403e-09 7.38287e-06 -8.07433e-07 7.38191e-06)
(3.93626e-06 -1.19601e-08 9.26789e-10 3.9368e-06 -2.86668e-07 3.93632e-06)
(1.89056e-06 -3.60183e-09 2.36909e-10 1.89073e-06 -8.48522e-08 1.89054e-06)
(7.84256e-07 -8.25707e-10 4.67252e-11 7.84295e-07 -1.95776e-08 7.84244e-07)
(2.61824e-07 -1.26715e-10 6.34191e-12 2.6183e-07 -3.12785e-09 2.61822e-07)
(6.62313e-08 -1.19817e-11 4.8848e-13 6.62316e-08 -2.96053e-10 6.62311e-08)
(4.57302e-08 -1.3283e-12 2.36361e-14 4.57302e-08 -2.59519e-11 4.57302e-08)
(6.76433e-08 0 0 6.76433e-08 0 6.76433e-08)
)
