-0.0075 	0 	0 	0
-0.0075 	-3.62295e-34 	-1.13585e-36 	-7.64186e-33
-0.00745622 	-0.000476164 	-1.49285e-06 	-0.0100437
-0.00745622 	-0.000476164 	-1.49285e-06 	-0.0100437
-0.00741165 	-0.000787319 	9.36227e-07 	-0.0205776
-0.00741165 	-0.000787319 	9.36227e-07 	-0.0205776
-0.00736628 	-0.00103277 	6.84969e-06 	-0.0311509
-0.00736628 	-0.00103277 	6.84969e-06 	-0.0311509
-0.0073201 	-0.00129315 	1.77842e-05 	-0.0414921
-0.0073201 	-0.00129315 	1.77842e-05 	-0.0414921
-0.00727309 	-0.00155499 	3.06443e-05 	-0.0516862
-0.00727309 	-0.00155499 	3.06443e-05 	-0.0516862
-0.00722524 	-0.00178541 	4.60518e-05 	-0.0617885
-0.00722524 	-0.00178541 	4.60518e-05 	-0.0617885
-0.00717653 	-0.00196908 	6.34348e-05 	-0.0717577
-0.00717653 	-0.00196908 	6.34348e-05 	-0.0717577
-0.00712695 	-0.0020997 	8.2654e-05 	-0.0815237
-0.00712695 	-0.0020997 	8.2654e-05 	-0.0815237
-0.00707647 	-0.00217677 	0.000103639 	-0.091011
-0.00707647 	-0.00217677 	0.000103639 	-0.091011
-0.0070251 	-0.00220485 	0.000125995 	-0.100153
-0.0070251 	-0.00220485 	0.000125995 	-0.100153
-0.0069728 	-0.00219291 	0.000149751 	-0.108902
-0.0069728 	-0.00219291 	0.000149751 	-0.108902
-0.00691956 	-0.00215183 	0.000174627 	-0.117232
-0.00691956 	-0.00215183 	0.000174627 	-0.117232
-0.00686537 	-0.00209215 	0.000200289 	-0.125154
-0.00686537 	-0.00209215 	0.000200289 	-0.125154
-0.00681021 	-0.00202265 	0.000226537 	-0.132689
-0.00681021 	-0.00202265 	0.000226537 	-0.132689
-0.00675406 	-0.00195027 	0.000252888 	-0.139855
-0.00675406 	-0.00195027 	0.000252888 	-0.139855
-0.0066969 	-0.00188083 	0.000280077 	-0.146661
-0.0066969 	-0.00188083 	0.000280077 	-0.146661
-0.00663871 	-0.00181797 	0.000309546 	-0.153124
-0.00663871 	-0.00181797 	0.000309546 	-0.153124
-0.00657949 	-0.00176274 	0.000340131 	-0.159266
-0.00657949 	-0.00176274 	0.000340131 	-0.159266
-0.0065192 	-0.00171652 	0.000369235 	-0.165106
-0.0065192 	-0.00171652 	0.000369235 	-0.165106
-0.00645783 	-0.0016822 	0.000395284 	-0.170654
-0.00645783 	-0.0016822 	0.000395284 	-0.170654
-0.00639535 	-0.00166098 	0.000421186 	-0.17594
-0.00639535 	-0.00166098 	0.000421186 	-0.17594
-0.00633176 	-0.00165249 	0.000454604 	-0.180991
-0.00633176 	-0.00165249 	0.000454604 	-0.180991
-0.00626703 	-0.00165588 	0.000486409 	-0.185774
-0.00626703 	-0.00165588 	0.000486409 	-0.185774
-0.00620114 	-0.00167409 	0.000503883 	-0.190222
-0.00620114 	-0.00167409 	0.000503883 	-0.190222
-0.00613406 	-0.00171516 	0.000527654 	-0.194309
-0.00613406 	-0.00171516 	0.000527654 	-0.194309
-0.00606579 	-0.00177066 	0.000583336 	-0.198128
-0.00606579 	-0.00177066 	0.000583336 	-0.198128
-0.00599629 	-0.00179022 	0.00064572 	-0.20197
-0.00599629 	-0.00179022 	0.00064572 	-0.20197
-0.00592554 	-0.0017183 	0.00065092 	-0.206144
-0.00592554 	-0.0017183 	0.00065092 	-0.206144
-0.00585352 	-0.00158724 	0.000616916 	-0.210551
-0.00585352 	-0.00158724 	0.000616916 	-0.210551
-0.00578022 	-0.00146965 	0.00062515 	-0.214959
-0.00578022 	-0.00146965 	0.00062515 	-0.214959
-0.00570559 	-0.00140033 	0.000685382 	-0.219094
-0.00570559 	-0.00140033 	0.000685382 	-0.219094
-0.00562963 	-0.00137977 	0.000748645 	-0.222701
-0.00562963 	-0.00137977 	0.000748645 	-0.222701
-0.00555231 	-0.00139772 	0.000768626 	-0.225853
-0.00555231 	-0.00139772 	0.000768626 	-0.225853
-0.0054736 	-0.00145064 	0.000765919 	-0.228678
-0.0054736 	-0.00145064 	0.000765919 	-0.228678
-0.00539348 	-0.00152135 	0.000781419 	-0.231285
-0.00539348 	-0.00152135 	0.000781419 	-0.231285
-0.00531193 	-0.0015938 	0.000802048 	-0.233772
-0.00531193 	-0.0015938 	0.000802048 	-0.233772
-0.00522891 	-0.0016632 	0.000816966 	-0.236192
-0.00522891 	-0.0016632 	0.000816966 	-0.236192
-0.0051444 	-0.00173038 	0.000831415 	-0.238538
-0.0051444 	-0.00173038 	0.000831415 	-0.238538
-0.00505838 	-0.00179788 	0.000846208 	-0.240768
-0.00505838 	-0.00179788 	0.000846208 	-0.240768
-0.00497081 	-0.00186561 	0.000861083 	-0.242849
-0.00497081 	-0.00186561 	0.000861083 	-0.242849
-0.00488168 	-0.00193231 	0.000874607 	-0.244786
-0.00488168 	-0.00193231 	0.000874607 	-0.244786
-0.00479094 	-0.00199796 	0.000884801 	-0.246619
-0.00479094 	-0.00199796 	0.000884801 	-0.246619
-0.00469858 	-0.0020601 	0.000891238 	-0.248389
-0.00469858 	-0.0020601 	0.000891238 	-0.248389
-0.00460456 	-0.00210459 	0.000897002 	-0.250165
-0.00460456 	-0.00210459 	0.000897002 	-0.250165
-0.00450886 	-0.00210971 	0.000903717 	-0.2521
-0.00450886 	-0.00210971 	0.000903717 	-0.2521
-0.00441144 	-0.00205897 	0.000907471 	-0.254384
-0.00441144 	-0.00205897 	0.000907471 	-0.254384
-0.00431227 	-0.0019714 	0.000904879 	-0.256916
-0.00431227 	-0.0019714 	0.000904879 	-0.256916
-0.00421133 	-0.00191456 	0.000898012 	-0.259185
-0.00421133 	-0.00191456 	0.000898012 	-0.259185
-0.00410857 	-0.00192264 	0.000892574 	-0.260918
-0.00410857 	-0.00192264 	0.000892574 	-0.260918
-0.00400397 	-0.00196917 	0.00089009 	-0.262331
-0.00400397 	-0.00196917 	0.00089009 	-0.262331
-0.0038975 	-0.00202692 	0.00088687 	-0.263661
-0.0038975 	-0.00202692 	0.00088687 	-0.263661
-0.00378912 	-0.00208522 	0.000881921 	-0.264973
-0.00378912 	-0.00208522 	0.000881921 	-0.264973
-0.00367879 	-0.00214249 	0.000876939 	-0.266245
-0.00367879 	-0.00214249 	0.000876939 	-0.266245
-0.00356649 	-0.00219599 	0.000872607 	-0.267464
-0.00356649 	-0.00219599 	0.000872607 	-0.267464
-0.00345217 	-0.00223889 	0.000867769 	-0.268641
-0.00345217 	-0.00223889 	0.000867769 	-0.268641
-0.0033358 	-0.00226234 	0.000861355 	-0.269813
-0.0033358 	-0.00226234 	0.000861355 	-0.269813
-0.00321735 	-0.00225914 	0.000851774 	-0.271011
-0.00321735 	-0.00225914 	0.000851774 	-0.271011
-0.00309677 	-0.00223011 	0.000837508 	-0.27221
-0.00309677 	-0.00223011 	0.000837508 	-0.27221
-0.00297403 	-0.00218818 	0.00082047 	-0.273367
-0.00297403 	-0.00218818 	0.00082047 	-0.273367
-0.00284909 	-0.00215036 	0.000803736 	-0.274457
-0.00284909 	-0.00215036 	0.000803736 	-0.274457
-0.0027219 	-0.00212495 	0.000788778 	-0.275464
-0.0027219 	-0.00212495 	0.000788778 	-0.275464
-0.00259244 	-0.00211089 	0.000775586 	-0.276385
-0.00259244 	-0.00211089 	0.000775586 	-0.276385
-0.00246065 	-0.00210392 	0.000763193 	-0.277228
-0.00246065 	-0.00210392 	0.000763193 	-0.277228
-0.00232651 	-0.00210007 	0.000751652 	-0.278002
-0.00232651 	-0.00210007 	0.000751652 	-0.278002
-0.00218995 	-0.00209612 	0.000741476 	-0.278709
-0.00218995 	-0.00209612 	0.000741476 	-0.278709
-0.00205095 	-0.00208964 	0.000731722 	-0.279349
-0.00205095 	-0.00208964 	0.000731722 	-0.279349
-0.00190946 	-0.00207857 	0.000723203 	-0.279922
-0.00190946 	-0.00207857 	0.000723203 	-0.279922
-0.00176543 	-0.00206171 	0.00071739 	-0.280428
-0.00176543 	-0.00206171 	0.00071739 	-0.280428
-0.00161881 	-0.00203875 	0.00071386 	-0.280856
-0.00161881 	-0.00203875 	0.00071386 	-0.280856
-0.00146957 	-0.00200653 	0.000710581 	-0.281206
-0.00146957 	-0.00200653 	0.000710581 	-0.281206
-0.00131765 	-0.00195661 	0.000705964 	-0.2815
-0.00131765 	-0.00195661 	0.000705964 	-0.2815
-0.001163 	-0.00188093 	0.000703227 	-0.281763
-0.001163 	-0.00188093 	0.000703227 	-0.281763
-0.00100559 	-0.00178174 	0.000704835 	-0.281992
-0.00100559 	-0.00178174 	0.000704835 	-0.281992
-0.000845345 	-0.00167144 	0.000715405 	-0.282146
-0.000845345 	-0.00167144 	0.000715405 	-0.282146
-0.000682232 	-0.00155531 	0.00073325 	-0.282197
-0.000682232 	-0.00155531 	0.00073325 	-0.282197
-0.000516194 	-0.00142808 	0.000751607 	-0.282152
-0.000516194 	-0.00142808 	0.000751607 	-0.282152
-0.000347178 	-0.00128922 	0.00077238 	-0.282
-0.000347178 	-0.00128922 	0.00077238 	-0.282
-0.000175132 	-0.00114623 	0.000783296 	-0.281715
-0.000175132 	-0.00114623 	0.000783296 	-0.281715
0 	-0.00100327 	0.000787092 	-0.2813
0 	-0.00100327 	0.000787092 	-0.2813
0 	-0.00100327 	0.000787092 	-0.2813
0 	-0.00100327 	0.000787092 	-0.2813
0.000175132 	-0.000850866 	0.000790496 	-0.280804
0.000175132 	-0.00417833 	0.00831028 	-0.312301
0.000347178 	-0.000682281 	0.000784432 	-0.280272
0.000347178 	-0.00423468 	0.00830128 	-0.311118
0.000516194 	-0.000504514 	0.000785057 	-0.279716
0.000516194 	-0.00432884 	0.00827943 	-0.310166
0.000682232 	-0.000331072 	0.000794527 	-0.279149
0.000682232 	-0.00448306 	0.00830109 	-0.309604
0.000845345 	-0.000177985 	0.000776206 	-0.278584
0.000845345 	-0.00471067 	0.00818281 	-0.309541
0.00100559 	-4.85121e-05 	0.000753062 	-0.278016
0.00100559 	-0.00500632 	0.00802329 	-0.310128
0.001163 	0.00010723 	0.00079451 	-0.277157
0.001163 	-0.00517288 	0.0082615 	-0.309556
0.00131765 	0.000351885 	0.000785645 	-0.275587
0.00131765 	-0.00494124 	0.00812866 	-0.304773
0.00146957 	0.000686141 	0.000653502 	-0.273214
0.00146957 	-0.00426261 	0.0072436 	-0.29467
0.00161881 	0.000981279 	0.000612804 	-0.271238
0.00161881 	-0.00383749 	0.00724234 	-0.28775
0.00176543 	0.0011503 	0.000641425 	-0.270176
0.00176543 	-0.00409294 	0.00779662 	-0.288905
0.00190946 	0.00125691 	0.000632859 	-0.268963
0.00190946 	-0.00458754 	0.00774641 	-0.292244
0.00205095 	0.00138338 	0.000678428 	-0.267103
0.00205095 	-0.00486191 	0.00766142 	-0.293214
0.00218995 	0.00159435 	0.000643484 	-0.264853
0.00218995 	-0.00466041 	0.00722874 	-0.289576
0.00232651 	0.00188532 	0.000481489 	-0.262648
0.00232651 	-0.00411372 	0.0064761 	-0.282059
0.00246065 	0.00212449 	0.000456503 	-0.261274
0.00246065 	-0.00397675 	0.00673528 	-0.277968
0.00259244 	0.00225128 	0.000523368 	-0.260721
0.00259244 	-0.0044614 	0.00730516 	-0.279587
0.0027219 	0.00234922 	0.000497189 	-0.259975
0.0027219 	-0.00493923 	0.00702472 	-0.280708
0.00284909 	0.00245807 	0.000434824 	-0.25881
0.00284909 	-0.00517756 	0.00651492 	-0.279499
0.00297403 	0.00256517 	0.000393635 	-0.257547
0.00297403 	-0.00531434 	0.00624681 	-0.277866
0.00309677 	0.00265115 	0.000398372 	-0.25641
0.00309677 	-0.00552128 	0.0063302 	-0.277378
0.00321735 	0.00272841 	0.000423053 	-0.255303
0.00321735 	-0.00575 	0.00655945 	-0.277629
0.0033358 	0.00283265 	0.000376647 	-0.253994
0.0033358 	-0.0057666 	0.00622963 	-0.277373
0.00345217 	0.00296895 	0.000279761 	-0.252348
0.00345217 	-0.00550901 	0.00545754 	-0.275855
0.00356649 	0.00309237 	0.000228894 	-0.250614
0.00356649 	-0.00520096 	0.00511255 	-0.273657
0.00367879 	0.00316159 	0.000237805 	-0.249161
0.00367879 	-0.00510271 	0.00528357 	-0.272545
0.00378912 	-0.00523801 	0.00549185 	-0.272555
0.00378912 	0.00318367 	0.000262326 	-0.247888
0.0038975 	0.00319701 	0.000230559 	-0.246511
0.0038975 	-0.00536917 	0.00525143 	-0.272196
0.00400397 	0.00321478 	0.000168427 	-0.245
0.00400397 	-0.00538769 	0.00479859 	-0.271363
0.00410857 	0.00322163 	0.000140061 	-0.243428
0.00410857 	-0.00538029 	0.00460056 	-0.270512
0.00421133 	0.00321375 	0.000125113 	-0.241803
0.00421133 	-0.00537599 	0.00449786 	-0.269674
0.00431227 	0.00319852 	9.07005e-05 	-0.240103
0.00431227 	-0.00533567 	0.00424647 	-0.268754
0.00441144 	0.00318166 	6.9318e-05 	-0.238316
0.00441144 	-0.00523124 	0.00408219 	-0.26779
0.00450886 	0.00318648 	9.96897e-05 	-0.236397
0.00450886 	-0.00490615 	0.00427335 	-0.266492
0.00460456 	0.00326799 	9.38753e-05 	-0.234161
0.00460456 	-0.00397938 	0.00420694 	-0.263406
0.00469858 	0.00347574 	7.3952e-06 	-0.231297
0.00469858 	-0.00209846 	0.00359207 	-0.256117
0.00479094 	0.00382088 	-0.000107333 	-0.227641
0.00479094 	0.000838319 	0.0027732 	-0.243477
0.00488168 	0.00410717 	-0.00012003 	-0.224117
0.00488168 	0.00345325 	0.00264273 	-0.232113
0.00497081 	0.00415774 	-2.69896e-05 	-0.2215
0.00497081 	0.00447973 	0.00321399 	-0.227544
0.00505838 	0.00408007 	2.80683e-05 	-0.21927
0.00505838 	0.00459668 	0.00352321 	-0.226234
0.0051444 	0.00400236 	-3.19337e-06 	-0.216938
0.0051444 	0.00464758 	0.00327739 	-0.2248
0.00522891 	0.00394579 	-7.58992e-05 	-0.214467
0.00522891 	0.00481048 	0.00278615 	-0.222871
0.00531193 	0.00496937 	0.00260628 	-0.220878
0.00531193 	0.00388177 	-0.000103983 	-0.211946
0.00539348 	0.00379423 	-0.000105909 	-0.209394
0.00539348 	0.00508276 	0.0025711 	-0.218869
0.0054736 	0.00368086 	-0.000111866 	-0.206787
0.0054736 	0.00517399 	0.0024594 	-0.21678
0.00555231 	0.00354464 	-0.00011291 	-0.204091
0.00555231 	0.00525263 	0.00235656 	-0.21459
0.00562963 	0.00339435 	-0.000114907 	-0.201275
0.00562963 	0.00532308 	0.00225466 	-0.212277
0.00570559 	0.0032388 	-0.000117752 	-0.198317
0.00570559 	0.00539031 	0.002158 	-0.209814
0.00578022 	0.00308288 	-0.000120216 	-0.195205
0.00578022 	0.00545896 	0.00206652 	-0.207182
0.00585352 	0.0029266 	-0.000121368 	-0.191939
0.00585352 	0.0055305 	0.00197926 	-0.204383
0.00592554 	0.00276855 	-0.000121165 	-0.188514
0.00592554 	0.00560589 	0.00189472 	-0.201431
0.00599629 	0.00260896 	-0.00012024 	-0.184918
0.00599629 	0.00568799 	0.00181172 	-0.198334
0.00606579 	0.00578099 	0.00172976 	-0.19509
0.00606579 	0.00244979 	-0.0001191 	-0.181136
0.00613406 	0.00229379 	-0.000117899 	-0.17715
0.00613406 	0.00588957 	0.00164847 	-0.191685
0.00620114 	0.0021435 	-0.000116252 	-0.172938
0.00620114 	0.00601907 	0.00156856 	-0.18809
0.00626703 	0.00200149 	-0.000114245 	-0.168477
0.00626703 	0.00617702 	0.00149074 	-0.184258
0.00633176 	0.00187142 	-0.000111793 	-0.163734
0.00633176 	0.00637461 	0.00141416 	-0.180126
0.00639535 	0.00175779 	-0.000108687 	-0.158673
0.00639535 	0.00662565 	0.00133774 	-0.17562
0.00645783 	0.00166504 	-0.00010458 	-0.153256
0.00645783 	0.00694234 	0.00126124 	-0.170667
0.0065192 	0.00159628 	-9.95637e-05 	-0.147458
0.0065192 	0.00733037 	0.00118512 	-0.165203
0.00657949 	0.00155142 	-9.44073e-05 	-0.141261
0.00657949 	0.00778594 	0.00110963 	-0.159176
0.00663871 	0.00152644 	-8.88127e-05 	-0.134654
0.00663871 	0.00829358 	0.0010343 	-0.152555
0.0066969 	0.00151422 	-8.23599e-05 	-0.127629
0.0066969 	0.0088224 	0.000958129 	-0.145331
0.00675406 	0.00150599 	-7.52821e-05 	-0.120179
0.00675406 	0.00932389 	0.000880518 	-0.137544
0.00681021 	0.00149324 	-6.80121e-05 	-0.112313
0.00681021 	0.00973714 	0.000802233 	-0.129262
0.00686537 	0.00146922 	-6.09906e-05 	-0.104059
0.00686537 	0.00999855 	0.000724373 	-0.120554
0.00691956 	0.00142956 	-5.41659e-05 	-0.0954796
0.00691956 	0.0100522 	0.000647161 	-0.111482
0.0069728 	0.00137237 	-4.75044e-05 	-0.0866708
0.0069728 	0.00985846 	0.000571195 	-0.102148
0.0070251 	0.00129796 	-4.11613e-05 	-0.0777626
0.0070251 	0.00939798 	0.000497768 	-0.0926994
0.00707647 	0.00120821 	-3.50909e-05 	-0.0689022
0.00707647 	0.00867463 	0.000428243 	-0.0833127
0.00712695 	0.00110586 	-2.91937e-05 	-0.0602255
0.00712695 	0.00771954 	0.000363652 	-0.0741438
0.00717653 	0.000993688 	-2.34745e-05 	-0.0518293
0.00717653 	0.00659173 	0.000304373 	-0.0652749
0.00722524 	0.000873384 	-1.7962e-05 	-0.0437558
0.00722524 	0.0053748 	0.000247746 	-0.056676
0.00727309 	0.00074395 	-1.27564e-05 	-0.0359934
0.00727309 	0.0041755 	0.000196531 	-0.0481908
0.0073201 	0.000599419 	-8.16578e-06 	-0.0284846
0.0073201 	0.00313363 	0.000159563 	-0.0395225
0.00736628 	0.000424978 	-3.4304e-06 	-0.0211051
0.00736628 	0.00245571 	8.50351e-05 	-0.0301568
0.00741165 	0.000229883 	-1.13876e-06 	-0.0137804
0.00741165 	0.00207501 	6.60713e-05 	-0.0198327
0.00745622 	7.45066e-05 	-1.58897e-08 	-0.00668662
0.00745622 	0.00138395 	3.30323e-05 	-0.00937852
0.0075 	0 	0 	0
0.0075 	0 	0 	0
