0 	0 	0 	0
0 	0 	0 	0
0.00752508 	0.00127688 	0.00142716 	-0.284716
0.00752508 	0.00127688 	0.00142716 	-0.284716
0.00757525 	0.00132283 	0.00140862 	-0.28473
0.00762542 	0.00136879 	0.00139009 	-0.284743
0.00762542 	0.00136879 	0.00139009 	-0.284743
0.00767559 	0.00141428 	0.00137163 	-0.284754
0.00772575 	0.00140912 	0.00136133 	-0.28451
0.00777592 	0.00140397 	0.00135103 	-0.284267
0.00782609 	0.00139881 	0.00134073 	-0.284023
0.00782609 	0.00139881 	0.00134073 	-0.284023
0.00787625 	0.00138775 	0.00133359 	-0.283773
0.00792642 	0.00137241 	0.00132875 	-0.283518
0.00797659 	0.00135707 	0.00132391 	-0.283264
0.00802676 	0.00134317 	0.00132048 	-0.283023
0.00802676 	0.00134317 	0.00132048 	-0.283023
0.00807692 	0.00133467 	0.00132233 	-0.282835
0.00812709 	0.00132616 	0.00132418 	-0.282647
0.00812709 	0.00132616 	0.00132418 	-0.282647
0.00817726 	0.00131765 	0.00132604 	-0.282459
0.00822742 	0.00131705 	0.00133226 	-0.28231
0.00822742 	0.00131705 	0.00133226 	-0.28231
0.00827759 	0.00131731 	0.00133897 	-0.282165
0.00832776 	0.00131758 	0.00134568 	-0.28202
0.00832776 	0.00131758 	0.00134568 	-0.28202
0.00837793 	0.00132058 	0.00134952 	-0.281875
0.00842809 	0.00132506 	0.00135181 	-0.281731
0.00842809 	0.00132506 	0.00135181 	-0.281731
0.00847826 	0.00132954 	0.0013541 	-0.281586
0.00847826 	0.00132954 	0.0013541 	-0.281586
0.00852843 	0.00133431 	0.00135437 	-0.281427
0.00852843 	0.00133431 	0.00135437 	-0.281427
0.0085786 	0.00133943 	0.00135222 	-0.281249
0.0085786 	0.00133943 	0.00135222 	-0.281249
0.00862876 	0.00134454 	0.00135007 	-0.281071
0.00867893 	0.0013495 	0.0013479 	-0.280876
0.00867893 	0.0013495 	0.0013479 	-0.280876
0.0087291 	0.00135413 	0.00134568 	-0.280644
0.00877926 	0.00135876 	0.00134345 	-0.280412
0.00877926 	0.00135876 	0.00134345 	-0.280412
0.00882943 	0.00136305 	0.00134164 	-0.280165
0.0088796 	0.00136621 	0.00134114 	-0.279871
0.0088796 	0.00136621 	0.00134114 	-0.279871
0.00897993 	0.00137198 	0.0013401 	-0.279276
0.00897993 	0.00137198 	0.0013401 	-0.279276
0.0090301 	0.00137246 	0.00133939 	-0.278944
0.00908027 	0.00137294 	0.00133868 	-0.278613
0.00908027 	0.00137294 	0.00133868 	-0.278613
0.00913043 	0.00137261 	0.00133724 	-0.278282
0.0091806 	0.00136959 	0.00133334 	-0.277954
0.0091806 	0.00136959 	0.00133334 	-0.277954
0.00923077 	0.00136657 	0.00132943 	-0.277626
0.00928094 	0.00136249 	0.00132464 	-0.277301
0.00928094 	0.00136249 	0.00132464 	-0.277301
0.0093311 	0.00135605 	0.00131783 	-0.276985
0.00938127 	0.0013496 	0.00131103 	-0.276668
0.00938127 	0.0013496 	0.00131103 	-0.276668
0.00943144 	0.00134198 	0.00130438 	-0.276344
0.00943144 	0.00134198 	0.00130438 	-0.276344
0.00948161 	0.00133284 	0.00129791 	-0.276011
0.00948161 	0.00133284 	0.00129791 	-0.276011
0.00953177 	0.00132371 	0.00129144 	-0.275677
0.00953177 	0.00132371 	0.00129144 	-0.275677
0.00958194 	0.00131339 	0.00128583 	-0.275319
0.00958194 	0.00131339 	0.00128583 	-0.275319
0.00963211 	0.00130235 	0.00128075 	-0.274945
0.00963211 	0.00130235 	0.00128075 	-0.274945
0.00968227 	0.00129131 	0.00127567 	-0.274571
0.00968227 	0.00129131 	0.00127567 	-0.274571
0.00973244 	0.00127889 	0.00126916 	-0.274161
0.00978261 	0.00126623 	0.00126238 	-0.273743
0.00983278 	0.00125336 	0.00125611 	-0.273322
0.00988294 	0.00123908 	0.00125339 	-0.272868
0.00988294 	0.00123908 	0.00125339 	-0.272868
0.00993311 	0.00122479 	0.00125066 	-0.272413
0.00998328 	0.00121086 	0.00125495 	-0.271952
0.00998328 	0.00121086 	0.00125495 	-0.271952
0.0100334 	0.00119735 	0.00126778 	-0.271481
0.0100334 	0.00119735 	0.00126778 	-0.271481
0.0100836 	0.00118385 	0.0012806 	-0.27101
0.0101338 	0.00117559 	0.00129134 	-0.270562
0.0101338 	0.00117559 	0.00129134 	-0.270562
0.0102341 	0.00116231 	0.00130018 	-0.269683
0.0102341 	0.00116231 	0.00130018 	-0.269683
0.0102843 	0.00115928 	0.00126224 	-0.269267
0.0103344 	0.00115626 	0.00122431 	-0.26885
0.0103344 	0.00115626 	0.00122431 	-0.26885
0.0103846 	0.00113762 	0.00115456 	-0.26831
0.0103846 	0.00113762 	0.00115456 	-0.26831
0.0104348 	0.00111256 	0.00107172 	-0.267719
0.0104849 	0.00107668 	0.00100464 	-0.267027
0.0104849 	0.00107668 	0.00100464 	-0.267027
0.0105351 	0.00100197 	0.000994194 	-0.265969
0.0105853 	0.000927261 	0.000983747 	-0.264912
0.0105853 	0.000927261 	0.000983747 	-0.264912
0.0106355 	0.000840638 	0.00103159 	-0.263694
0.0106856 	0.000750478 	0.00109675 	-0.262428
0.0106856 	0.000750478 	0.00109675 	-0.262428
0.0107358 	0.000670772 	0.00114696 	-0.261245
0.0107358 	0.000670772 	0.00114696 	-0.261245
0.010786 	0.000609055 	0.00117147 	-0.260206
0.010786 	0.000609055 	0.00117147 	-0.260206
0.0108361 	0.000547502 	0.00119562 	-0.259167
0.0108361 	0.000547502 	0.00119562 	-0.259167
0.0108863 	0.000511784 	0.00116252 	-0.258336
0.0109365 	0.000476066 	0.00112942 	-0.257506
0.0109365 	0.000476066 	0.00112942 	-0.257506
0.0109866 	0.000449918 	0.00109264 	-0.256728
0.0109866 	0.000449918 	0.00109264 	-0.256728
0.0110368 	0.000428135 	0.00105417 	-0.255974
0.011087 	0.00040792 	0.001032 	-0.255216
0.011087 	0.00040792 	0.001032 	-0.255216
0.0111371 	0.000389979 	0.00103347 	-0.254452
0.0111873 	0.000373057 	0.00103736 	-0.253686
0.0111873 	0.000373057 	0.00103736 	-0.253686
0.0112375 	0.000361133 	0.00105314 	-0.252913
0.0112876 	0.00034921 	0.00106891 	-0.252141
0.0112876 	0.00034921 	0.00106891 	-0.252141
0.0113378 	0.000348973 	0.00105981 	-0.25139
0.011388 	0.000349096 	0.00104994 	-0.25064
0.011388 	0.000349096 	0.00104994 	-0.25064
0.0114883 	0.000358825 	0.000922026 	-0.249087
0.0114883 	0.000358825 	0.000922026 	-0.249087
0.0115385 	0.000348022 	0.000834406 	-0.248165
0.0115886 	0.000329869 	0.000738609 	-0.247178
0.0115886 	0.000329869 	0.000738609 	-0.247178
0.0116388 	0.000284649 	0.000697314 	-0.245991
0.011689 	0.00022157 	0.000691981 	-0.244673
0.011689 	0.00022157 	0.000691981 	-0.244673
0.0117391 	0.000148217 	0.000737204 	-0.243287
0.0117893 	6.65998e-05 	0.000823092 	-0.241846
0.0117893 	6.65998e-05 	0.000823092 	-0.241846
0.0118395 	-1.26117e-05 	0.000898904 	-0.240443
0.0118896 	-8.97911e-05 	0.000966202 	-0.239072
0.0118896 	-8.97911e-05 	0.000966202 	-0.239072
0.0119398 	-0.000168428 	0.000976693 	-0.237692
0.0119398 	-0.000168428 	0.000976693 	-0.237692
0.01199 	-0.000248186 	0.000943504 	-0.236307
0.01199 	-0.000248186 	0.000943504 	-0.236307
0.0120401 	-0.000322363 	0.000872222 	-0.234913
0.0120401 	-0.000322363 	0.000872222 	-0.234913
0.0120903 	-0.000393169 	0.00077793 	-0.233514
0.0120903 	-0.000393169 	0.00077793 	-0.233514
0.0121405 	-0.000445609 	0.000715138 	-0.232167
0.0121405 	-0.000445609 	0.000715138 	-0.232167
0.0121906 	-0.000490754 	0.000664857 	-0.230839
0.0121906 	-0.000490754 	0.000664857 	-0.230839
0.0122408 	-0.000515123 	0.000666178 	-0.229567
0.0122408 	-0.000515123 	0.000666178 	-0.229567
0.012291 	-0.000535574 	0.000677207 	-0.228305
0.012291 	-0.000535574 	0.000677207 	-0.228305
0.0123411 	-0.000540288 	0.000688111 	-0.227061
0.0123411 	-0.000540288 	0.000688111 	-0.227061
0.0123913 	-0.000543972 	0.000689659 	-0.225809
0.0123913 	-0.000543972 	0.000689659 	-0.225809
0.0124415 	-0.000543321 	0.000651817 	-0.224528
0.0124916 	-0.000544432 	0.000609029 	-0.223208
0.0124916 	-0.000544432 	0.000609029 	-0.223208
0.012592 	-0.000561067 	0.000533985 	-0.220364
0.012592 	-0.000561067 	0.000533985 	-0.220364
0.0126421 	-0.000578774 	0.000520763 	-0.218849
0.0126923 	-0.000613864 	0.000534039 	-0.217201
0.0126923 	-0.000613864 	0.000534039 	-0.217201
0.0127425 	-0.000652922 	0.000545791 	-0.21552
0.0127425 	-0.000652922 	0.000545791 	-0.21552
0.0127926 	-0.000700472 	0.000550058 	-0.21377
0.0128428 	-0.000746646 	0.000535073 	-0.21199
0.0128428 	-0.000746646 	0.000535073 	-0.21199
0.012893 	-0.00079196 	0.000508067 	-0.210191
0.0129431 	-0.000822796 	0.000464928 	-0.20837
0.0129431 	-0.000822796 	0.000464928 	-0.20837
0.0129933 	-0.000847058 	0.000426442 	-0.206536
0.0130435 	-0.00086139 	0.000395405 	-0.204683
0.0130435 	-0.00086139 	0.000395405 	-0.204683
0.0130936 	-0.000866889 	0.00037958 	-0.202783
0.0131438 	-0.000868898 	0.000366651 	-0.200849
0.0131438 	-0.000868898 	0.000366651 	-0.200849
0.013194 	-0.00086684 	0.000352819 	-0.198855
0.0132441 	-0.000862509 	0.000333911 	-0.196779
0.0132441 	-0.000862509 	0.000333911 	-0.196779
0.0132943 	-0.000856913 	0.000313612 	-0.194644
0.0133445 	-0.000849833 	0.000293667 	-0.192418
0.0133445 	-0.000849833 	0.000293667 	-0.192418
0.0133946 	-0.000840959 	0.000274101 	-0.190079
0.0134448 	-0.000830622 	0.00025491 	-0.187657
0.0134448 	-0.000830622 	0.00025491 	-0.187657
0.013495 	-0.000818573 	0.000236187 	-0.185141
0.0135452 	-0.00080332 	0.000218442 	-0.182462
0.0135452 	-0.00080332 	0.000218442 	-0.182462
0.0136455 	-0.000766161 	0.000183577 	-0.176751
0.0136455 	-0.000766161 	0.000183577 	-0.176751
0.0136957 	-0.000743475 	0.000166674 	-0.173673
0.0137458 	-0.000717119 	0.000150394 	-0.170386
0.0137458 	-0.000717119 	0.000150394 	-0.170386
0.013796 	-0.000687823 	0.000134689 	-0.166921
0.0138462 	-0.000655486 	0.000119625 	-0.163259
0.0138462 	-0.000655486 	0.000119625 	-0.163259
0.0138963 	-0.000620043 	0.000105259 	-0.159378
0.0138963 	-0.000620043 	0.000105259 	-0.159378
0.0139465 	-0.000580617 	9.17446e-05 	-0.155172
0.0139967 	-0.000538123 	7.88869e-05 	-0.15069
0.0139967 	-0.000538123 	7.88869e-05 	-0.15069
0.0140468 	-0.000492349 	6.68938e-05 	-0.145914
0.0140468 	-0.000492349 	6.68938e-05 	-0.145914
0.014097 	-0.000442684 	5.59947e-05 	-0.140819
0.0141472 	-0.000388221 	4.63127e-05 	-0.135378
0.0141973 	-0.000327918 	3.76235e-05 	-0.12956
0.0141973 	-0.000327918 	3.76235e-05 	-0.12956
0.0142475 	-0.000260256 	2.94903e-05 	-0.123259
0.0142977 	-0.000186898 	2.20869e-05 	-0.116509
0.0143478 	-0.000110309 	1.61985e-05 	-0.109296
0.0143478 	-0.000110309 	1.61985e-05 	-0.109296
0.014398 	-3.5151e-05 	1.2277e-05 	-0.101612
0.014398 	-3.5151e-05 	1.2277e-05 	-0.101612
0.0144482 	3.17821e-05 	1.00297e-05 	-0.0934646
0.0144983 	8.23518e-05 	8.62333e-06 	-0.0848917
0.0144983 	8.23518e-05 	8.62333e-06 	-0.0848917
0.0145485 	0.000109144 	7.33316e-06 	-0.0759693
0.0145987 	0.000108658 	5.84214e-06 	-0.0668143
0.0145987 	0.000108658 	5.84214e-06 	-0.0668143
0.0146488 	8.43724e-05 	3.97768e-06 	-0.0575726
0.014699 	4.8652e-05 	1.64919e-06 	-0.0483971
0.014699 	4.8652e-05 	1.64919e-06 	-0.0483971
0.0147492 	2.38102e-05 	-9.92447e-07 	-0.0394261
0.0147993 	4.3947e-05 	-3.67336e-06 	-0.030777
0.0147993 	4.3947e-05 	-3.67336e-06 	-0.030777
0.0148495 	0.000160546 	-5.4042e-06 	-0.0225509
0.0148495 	0.000160546 	-5.4042e-06 	-0.0225509
0.0148997 	0.000355247 	-5.37086e-06 	-0.0148041
0.0148997 	0.000355247 	-5.37086e-06 	-0.0148041
0.0149498 	0.000387222 	-3.59523e-06 	-0.00742622
0.0149498 	0.000387222 	-3.59523e-06 	-0.00742622
0.015 	0 	0 	0
