/*--------------------------------*- C++ -*----------------------------------*\
| =========                 |                                                 |
| \\      /  F ield         | OpenFOAM: The Open Source CFD Toolbox           |
|  \\    /   O peration     | Version:  v1912                                 |
|   \\  /    A nd           | Website:  www.openfoam.com                      |
|    \\/     M anipulation  |                                                 |
\*---------------------------------------------------------------------------*/
FoamFile
{
    version     2.0;
    format      ascii;
    class       volScalarField;
    location    "100";
    object      alphat;
}
// * * * * * * * * * * * * * * * * * * * * * * * * * * * * * * * * * * * * * //

dimensions      [1 -1 -1 0 0 0 0];


internalField   nonuniform List<scalar> 
10077
(
9.55764e-09
9.54494e-09
9.55898e-09
9.59815e-09
1.19765e-08
1.22521e-08
1.23782e-08
1.23577e-08
1.12128e-08
1.11761e-08
1.10331e-08
1.07805e-08
7.76845e-09
7.66068e-09
7.61037e-09
7.62025e-09
6.30296e-08
6.27771e-08
6.18806e-08
6.03229e-08
6.95084e-08
7.09621e-08
7.10512e-08
6.97796e-08
5.58078e-08
5.65694e-08
5.63062e-08
5.50068e-08
3.14107e-08
3.19307e-08
3.22363e-08
3.23343e-08
5.01922e-07
5.01053e-07
4.96028e-07
4.86788e-07
5.35123e-07
5.43598e-07
5.43617e-07
5.35183e-07
4.24284e-07
4.27124e-07
4.23799e-07
4.14163e-07
2.49399e-07
2.51071e-07
2.51962e-07
2.52083e-07
2.4985e-06
2.49936e-06
2.48641e-06
2.45971e-06
2.64744e-06
2.67644e-06
2.67518e-06
2.64358e-06
2.11288e-06
2.11101e-06
2.08808e-06
2.04312e-06
1.31361e-06
1.30809e-06
1.30434e-06
1.30223e-06
8.78782e-06
8.80168e-06
8.78225e-06
8.73044e-06
9.20757e-06
9.2743e-06
9.26419e-06
9.1768e-06
7.3827e-06
7.34071e-06
7.24817e-06
7.10109e-06
4.81134e-06
4.76232e-06
4.73197e-06
4.71945e-06
2.40084e-05
2.40604e-05
2.40436e-05
2.39614e-05
2.47253e-05
2.48316e-05
2.47851e-05
2.45839e-05
1.98699e-05
1.97023e-05
1.94397e-05
1.90706e-05
1.34948e-05
1.33205e-05
1.32149e-05
1.31753e-05
5.41463e-05
5.42726e-05
5.42651e-05
5.41321e-05
5.46081e-05
5.47072e-05
5.45554e-05
5.41461e-05
4.39144e-05
4.34824e-05
4.29019e-05
4.21478e-05
3.09845e-05
3.05595e-05
3.03053e-05
3.02156e-05
0.000105091
0.000105327
0.000105311
0.000105059
0.000103617
0.000103582
0.000103197
0.000102443
8.33245e-05
8.24592e-05
8.13942e-05
8.00835e-05
6.09573e-05
6.01409e-05
5.96577e-05
5.94966e-05
0.000180953
0.000181315
0.00018123
0.000180721
0.000174398
0.000174019
0.00017321
0.000171938
0.000140225
0.000138764
0.000137068
0.000135066
0.000106176
0.000104853
0.000104079
0.000103837
0.000283027
0.000283506
0.000283242
0.000282266
0.000266864
0.000265867
0.000264407
0.000262421
0.000214557
0.000212375
0.000209954
0.00020719
0.000167805
0.00016592
0.000164833
0.000164522
0.000409867
0.000410425
0.000409835
0.000408136
0.000377743
0.000375807
0.000373452
0.000370577
0.000304059
0.000301067
0.000297883
0.00029437
0.000245281
0.000242853
0.000241478
0.00024113
0.000557492
0.000558027
0.000556873
0.000554065
0.000500289
0.000497002
0.000493485
0.000489588
0.000401554
0.000397726
0.00039387
0.000389817
0.000336392
0.000333544
0.000331972
0.000331655
0.00072026
0.000720568
0.000718433
0.000713874
0.000628568
0.000623365
0.000618166
0.000612748
0.000501603
0.000497189
0.000492962
0.00048874
0.000434245
0.000431497
0.000430086
0.000430006
0.000896119
0.000896115
0.000892846
0.000886309
0.000762251
0.000754815
0.00074772
0.00074066
0.000603515
0.000598372
0.000593746
0.000589437
0.000537103
0.000534495
0.000533291
0.000533506
0.00107704
0.0010767
0.00107231
0.00106387
0.000901422
0.000891628
0.000882504
0.000873656
0.000708354
0.000702314
0.000697129
0.000692576
0.000642992
0.000640504
0.000639517
0.000640066
0.00125973
0.00125904
0.00125362
0.00124342
0.00104204
0.0010303
0.00101941
0.00100888
0.000816309
0.000809298
0.000803545
0.000798801
0.000751242
0.000748897
0.000748146
0.000749049
0.00144239
0.00144136
0.00143501
0.00142325
0.00118626
0.00117259
0.00115988
0.0011476
0.00092641
0.000918363
0.000912046
0.000907187
0.000863448
0.000861362
0.000860931
0.00086224
0.00162856
0.00162716
0.00161987
0.0016066
0.00133364
0.00131799
0.00130341
0.00128926
0.0010378
0.00102866
0.0010218
0.00101692
0.000979567
0.00097788
0.00097787
0.000979657
0.00181783
0.00181603
0.0018078
0.00179304
0.00148343
0.00146576
0.00144922
0.0014331
0.00115007
0.00113978
0.00113241
0.00112762
0.00109924
0.00109811
0.00109863
0.00110097
0.00200926
0.00200704
0.00199789
0.00198165
0.00163492
0.00161519
0.00159663
0.00157845
0.00126263
0.00125114
0.00124329
0.00123873
0.00122206
0.00122164
0.00122282
0.00122579
0.00220192
0.00219926
0.00218919
0.00217152
0.00178752
0.00176572
0.00174509
0.00172474
0.00137501
0.00136227
0.00135398
0.00134977
0.00134756
0.00134803
0.00134998
0.00135365
0.00239476
0.00239165
0.00238068
0.00236165
0.00194074
0.00191686
0.00189412
0.00187152
0.00148682
0.00147279
0.00146409
0.00146037
0.00147523
0.00147677
0.00147961
0.00148403
0.00258696
0.00258341
0.00257159
0.00255126
0.00209408
0.00206814
0.00204325
0.00201834
0.00159774
0.00158235
0.0015733
0.00157019
0.00160444
0.00160722
0.00161105
0.00161627
0.00277815
0.00277415
0.00276151
0.00273996
0.00224733
0.00221936
0.0021923
0.002165
0.00170729
0.00169051
0.00168113
0.00167876
0.00173438
0.00173857
0.00174349
0.00174953
0.00296863
0.0029642
0.00295078
0.00292806
0.00240046
0.00237044
0.00234118
0.0023114
0.00181489
0.00179665
0.00178697
0.00178545
0.00186496
0.00187073
0.00187684
0.00188374
0.0031591
0.00315425
0.00314005
0.00311617
0.00255341
0.0025213
0.00248974
0.00245737
0.00192025
0.00190048
0.00189053
0.00188996
0.00199569
0.0020032
0.00201061
0.00201844
0.00335023
0.00334494
0.00332995
0.00330488
0.00270662
0.00267232
0.00263834
0.00260322
0.00202271
0.00200134
0.00199113
0.00199163
0.00212567
0.00213508
0.00214389
0.00215269
0.00354236
0.00353666
0.00352089
0.00349465
0.00286091
0.00282433
0.00278779
0.00274972
0.00212197
0.00209884
0.00208832
0.00208995
0.00225406
0.00226552
0.00227583
0.00228566
0.00373471
0.00372864
0.00371218
0.00368491
0.00301764
0.00297876
0.00293954
0.00289831
0.00221853
0.00219341
0.00218247
0.00218523
0.00238153
0.00239522
0.00240716
0.00241808
0.00392559
0.00391924
0.00390228
0.00387428
0.00317787
0.00313682
0.0030949
0.0030503
0.00231417
0.00228686
0.00227544
0.00227942
0.00251011
0.00252627
0.00253998
0.00255204
0.00411315
0.00410665
0.00408948
0.00406119
0.00334135
0.00329846
0.00325391
0.00320577
0.0024108
0.00238105
0.00236909
0.0023744
0.0026421
0.00266096
0.00267658
0.00268985
0.00429567
0.00428918
0.00427215
0.00424416
0.00350553
0.00346129
0.00341426
0.00336242
0.00250994
0.00247752
0.00246493
0.00247161
0.00277819
0.00279996
0.0028176
0.00283211
0.00447126
0.00446491
0.00444836
0.0044212
0.00365346
0.00360819
0.00355892
0.00350352
0.00261227
0.00257707
0.00256379
0.00257184
0.00291842
0.00294319
0.00296293
0.00297868
0.00462913
0.00462248
0.00460564
0.00457816
0.00377063
0.00372466
0.00367347
0.00361484
0.00270567
0.00266922
0.00265633
0.00266645
0.0030631
0.00309091
0.00311273
0.0031297
0.00477268
0.00476549
0.00474795
0.00471957
0.00385634
0.0038098
0.00375696
0.00369551
0.00277406
0.00273777
0.00272601
0.00273826
0.00321178
0.00324274
0.0032667
0.00328489
0.00490888
0.00490111
0.00488288
0.00485364
0.00393572
0.00388829
0.00383375
0.00376975
0.00280766
0.00277176
0.00276137
0.00277605
0.00336149
0.00339608
0.00342249
0.00344203
0.00504401
0.00503561
0.00501655
0.00498625
0.0040217
0.00397174
0.00391404
0.00384611
0.00282161
0.0027857
0.00277691
0.00279485
0.00349179
0.00353213
0.00356237
0.00358398
0.00518517
0.00517602
0.00515584
0.005124
0.00413145
0.00407759
0.00401625
0.00394479
0.00284091
0.00280357
0.00279615
0.00281831
0.00360867
0.00365473
0.00368882
0.00371253
0.00533503
0.00532501
0.00530335
0.00526938
0.00425944
0.00420044
0.00413497
0.00406018
0.00289185
0.00285162
0.00284518
0.00287225
0.00371122
0.00376276
0.00380056
0.00382634
0.00548952
0.00547853
0.00545517
0.00541871
0.00435115
0.00428751
0.00421758
0.00413835
0.00294808
0.00290465
0.00289923
0.0029316
0.0038037
0.0038606
0.00390203
0.00392986
0.00563997
0.005628
0.00560294
0.00556395
0.00442547
0.00435755
0.00428318
0.00419915
0.00295028
0.00290502
0.00290067
0.00293703
0.00389215
0.00395446
0.00399955
0.0040294
0.00577782
0.00576496
0.00573838
0.00569722
0.00449272
0.0044209
0.00434232
0.0042536
0.00294877
0.00290169
0.0028984
0.00293876
0.00397671
0.00404446
0.00409319
0.00412503
0.00589685
0.00588323
0.00585552
0.0058128
0.00455218
0.00447705
0.00439468
0.0043015
0.0029447
0.00289576
0.0028935
0.00293784
0.00405716
0.00413033
0.00418267
0.00421646
0.005994
0.00597977
0.00595134
0.00590778
0.00460681
0.00452902
0.00444337
0.00434615
0.00293813
0.00288729
0.00288603
0.0029343
0.00413304
0.00421159
0.0042675
0.00430317
0.00607238
0.00605764
0.00602883
0.00598493
0.00465326
0.00457346
0.00448501
0.00438411
0.00292876
0.00287606
0.00287578
0.00292792
0.0042035
0.00428734
0.00434674
0.00438421
0.00614629
0.00613107
0.00610185
0.00605758
0.00469411
0.00461251
0.00452145
0.004417
0.00291662
0.0028621
0.00286277
0.00291867
0.00418483
0.00427497
0.00433589
0.00436988
0.00624403
0.00622819
0.00619794
0.00615218
0.00473674
0.00465256
0.00455837
0.00445011
0.00290237
0.00284607
0.00284764
0.00290714
0.00414765
0.00424413
0.00430616
0.00433573
0.00637541
0.00636033
0.00632819
0.00627797
0.00479208
0.00470308
0.0046042
0.00449117
0.00288762
0.00282966
0.00283213
0.00289515
0.00416329
0.00426523
0.00432949
0.00435802
0.00652007
0.00650956
0.00647511
0.00641601
0.00487346
0.00477581
0.00466956
0.00455011
0.00287445
0.002815
0.00281847
0.002885
0.0042748
0.0043808
0.00444934
0.00448269
0.00673016
0.00672316
0.00668496
0.00661506
0.00498228
0.0048727
0.00475691
0.0046299
0.00286491
0.0028042
0.00280873
0.00287871
0.00450791
0.00461619
0.00469155
0.00473706
0.00694227
0.00693509
0.00689315
0.00681597
0.00509301
0.00497279
0.00484873
0.00471549
0.00286164
0.00279992
0.00280556
0.00287881
0.00459926
0.00471157
0.00479034
0.00483883
0.00714537
0.00713273
0.00708737
0.00700843
0.00513611
0.00501455
0.00488893
0.00475384
0.00282954
0.00276825
0.00277504
0.0028502
0.00467661
0.00479277
0.00487423
0.00492436
0.00733362
0.00731098
0.0072626
0.00718697
0.00517089
0.00504956
0.00492373
0.00478798
0.00271896
0.00266116
0.00266913
0.00274322
0.00475995
0.00487927
0.00496296
0.00501449
0.00732798
0.00730527
0.00725788
0.00718427
0.00520442
0.00508434
0.00495945
0.00482437
0.00268864
0.00263329
0.00264249
0.00271664
0.00485022
0.00497174
0.00505702
0.0051096
0.0072986
0.00727595
0.0072299
0.00715892
0.00523557
0.00511784
0.00499521
0.00486239
0.00279855
0.0027432
0.00275374
0.0028306
0.00494758
0.00507011
0.00515618
0.00520937
0.00724421
0.00722171
0.00717734
0.00710959
0.00526216
0.00514789
0.00502887
0.00489998
0.00308815
0.00302929
0.00304127
0.00312459
0.00505082
0.00517309
0.00525911
0.00531249
0.00716266
0.00714037
0.00709802
0.0070341
0.0052813
0.00517153
0.00505741
0.00493401
0.00319761
0.00314153
0.00315507
0.0032388
0.00515713
0.005278
0.00536324
0.00541641
0.00705537
0.00703335
0.00699324
0.00693355
0.00528909
0.00518474
0.00507667
0.0049602
0.00331878
0.00326626
0.0032815
0.00336516
0.00526323
0.00538174
0.00546554
0.0055182
0.00692731
0.00690553
0.00686765
0.00681218
0.00528365
0.00518517
0.00508394
0.00497557
0.00344655
0.00339837
0.00341553
0.00349878
0.00536774
0.00548313
0.00556501
0.0056169
0.00678616
0.00676454
0.0067286
0.00667688
0.0052643
0.00517163
0.00507762
0.00497821
0.00357678
0.00353382
0.00355329
0.00363605
0.00547015
0.00558184
0.00566144
0.00571238
0.00653724
0.00652161
0.00648927
0.00643915
0.00523041
0.00514316
0.00505652
0.00496675
0.00370623
0.00366932
0.00369153
0.00377382
0.00557095
0.00567856
0.00575563
0.00580549
0.00623693
0.00623019
0.00620191
0.00615161
0.00518245
0.0051
0.00502066
0.004941
0.0038328
0.00380275
0.00382813
0.00391003
0.00566962
0.00577285
0.00584718
0.00589589
0.00602987
0.00602686
0.0060001
0.00594938
0.00512214
0.00504358
0.00497123
0.00490196
0.00395505
0.00393262
0.00396158
0.00404319
0.0057657
0.00586427
0.00593572
0.00598323
0.00595528
0.00594884
0.00592028
0.00586915
0.00505119
0.0049754
0.00490955
0.0048508
0.00401258
0.00399693
0.00402984
0.00411274
0.00585807
0.00595172
0.00602013
0.0060664
0.00607167
0.00605141
0.00601654
0.0059657
0.00493335
0.00485567
0.00479033
0.00473451
0.00396509
0.00395426
0.00399142
0.00407817
0.00588361
0.00598005
0.00605052
0.00609822
0.0060218
0.00599814
0.00595992
0.00590554
0.00478171
0.00469873
0.00462975
0.00457179
0.0038232
0.00381544
0.00385708
0.00394993
0.00586209
0.00596635
0.00604223
0.00609314
0.00595238
0.00592715
0.00588553
0.00582583
0.0046291
0.00454046
0.00446832
0.00440956
0.00348803
0.00348932
0.00353564
0.00362899
0.00584541
0.00595576
0.00603593
0.00608954
0.00589792
0.00587085
0.00582513
0.00575895
0.00449225
0.00439916
0.00432669
0.0042717
0.0033432
0.00335372
0.00340485
0.00349879
0.00585915
0.00597046
0.00605161
0.00610627
0.00585613
0.00582697
0.00577654
0.00570289
0.00438152
0.00428622
0.0042177
0.00417302
0.00348408
0.00350373
0.00355974
0.00365452
0.00591878
0.00602385
0.00610128
0.00615464
0.00582479
0.00579333
0.00573769
0.00565573
0.00430088
0.00420605
0.00414634
0.00411917
0.00395501
0.00398305
0.00404395
0.00414034
0.00602974
0.00612065
0.00618919
0.00623867
0.00580166
0.0057677
0.00570643
0.00561556
0.00424578
0.00415377
0.00410699
0.00410342
0.00433094
0.00437741
0.00444319
0.00453113
0.0061828
0.00625282
0.00630808
0.00635148
0.00578432
0.00574768
0.00568053
0.00558038
0.00420903
0.00412154
0.00409063
0.00411497
0.00479656
0.00486384
0.00493443
0.00501137
0.00636367
0.00640797
0.00644679
0.00648252
0.00577031
0.00573087
0.00565774
0.00554826
0.00417834
0.00409594
0.0040818
0.0041353
0.00528286
0.00537141
0.00544664
0.0055118
0.00654811
0.00656504
0.00658636
0.00661388
0.00575715
0.00571486
0.0056359
0.00551741
0.00413721
0.00405885
0.00405951
0.00413922
0.00566713
0.00577403
0.0058536
0.00590929
0.00670263
0.00669495
0.00670056
0.00672081
0.00574246
0.00569739
0.00561303
0.00548635
0.00404861
0.00396958
0.00397696
0.00407107
0.00591441
0.00603544
0.00611887
0.00616827
0.0067575
0.00673717
0.00673494
0.00675194
0.00572414
0.00567653
0.0055876
0.00545414
0.00396078
0.00388051
0.00389243
0.00399704
0.0060437
0.00617473
0.00626131
0.00630715
0.00678264
0.00675331
0.0067456
0.00676049
0.00570102
0.00565133
0.00555914
0.00542111
0.00389836
0.00381798
0.00383421
0.00394775
0.00614362
0.00628222
0.00637109
0.00641407
0.00670812
0.00667233
0.00665771
0.00666471
0.00567238
0.00562135
0.00552782
0.00538834
0.00387768
0.00379884
0.00381922
0.00393972
0.0062399
0.00638352
0.00647348
0.00651366
0.00657407
0.00653423
0.00651224
0.00650776
9.32226e-09
9.22917e-09
9.25361e-09
9.40863e-09
1.25988e-08
1.36297e-08
1.37737e-08
1.31742e-08
1.1852e-08
1.2202e-08
1.20388e-08
1.11996e-08
7.38295e-09
6.99773e-09
6.92388e-09
7.11016e-09
6.78351e-08
6.92258e-08
6.81916e-08
6.36603e-08
7.68377e-08
8.3771e-08
8.38662e-08
7.72319e-08
6.16067e-08
6.62947e-08
6.60135e-08
6.04421e-08
3.24504e-08
3.39439e-08
3.42934e-08
3.3865e-08
5.3378e-07
5.43664e-07
5.37726e-07
5.09982e-07
5.81771e-07
6.23879e-07
6.239e-07
5.81859e-07
4.61491e-07
4.86946e-07
4.83393e-07
4.46777e-07
2.53793e-07
2.58861e-07
2.59924e-07
2.58041e-07
2.60857e-06
2.64591e-06
2.62981e-06
2.54498e-06
2.81782e-06
2.96644e-06
2.96508e-06
2.81221e-06
2.2527e-06
2.32137e-06
2.29687e-06
2.15128e-06
1.30837e-06
1.29396e-06
1.28991e-06
1.29168e-06
9.06648e-06
9.17066e-06
9.14322e-06
8.96184e-06
9.65292e-06
1.00192e-05
1.00084e-05
9.60818e-06
7.75979e-06
7.86561e-06
7.76673e-06
7.35036e-06
4.73109e-06
4.59478e-06
4.56081e-06
4.59267e-06
2.46107e-05
2.48541e-05
2.482e-05
2.44909e-05
2.56512e-05
2.63379e-05
2.62882e-05
2.54456e-05
2.06775e-05
2.07369e-05
2.04563e-05
1.95154e-05
1.3183e-05
1.26916e-05
1.25723e-05
1.26984e-05
5.53462e-05
5.58499e-05
5.58078e-05
5.52171e-05
5.62317e-05
5.72401e-05
5.70778e-05
5.55599e-05
4.53671e-05
4.51919e-05
4.45717e-05
4.27986e-05
3.01869e-05
2.89794e-05
2.86908e-05
2.9016e-05
0.000107341
0.000108284
0.000108203
0.000107092
0.00010611
0.00010725
0.000106838
0.000104403
8.55981e-05
8.49139e-05
8.37759e-05
8.08859e-05
5.93634e-05
5.70278e-05
5.64767e-05
5.71312e-05
0.000184896
0.000186507
0.000186308
0.000184216
0.000177848
0.000178708
0.000177844
0.000174272
0.000143396
0.000141892
0.00014008
0.000135895
0.000103487
9.96757e-05
9.87889e-05
9.99003e-05
0.000289439
0.000291969
0.00029152
0.000287803
0.000271266
0.000271265
0.000269705
0.000264807
0.000218567
0.000215939
0.000213353
0.000207856
0.000163796
0.000158322
0.000157069
0.000158738
0.000419556
0.000423241
0.000422373
0.000416282
0.000382901
0.000381267
0.000378751
0.000372482
0.000308661
0.000304597
0.000301195
0.000294574
0.000239828
0.0002327
0.000231102
0.000233392
0.000571446
0.000576532
0.000574977
0.000565441
0.000505631
0.000501228
0.000497471
0.000490073
0.000406
0.000400069
0.000395948
0.000388935
0.000329507
0.00032102
0.000319174
0.000322095
0.000739913
0.000746708
0.000744009
0.000729304
0.000634172
0.00062596
0.000620406
0.000611172
0.000505226
0.000497635
0.000493119
0.000486525
0.000426382
0.000417884
0.000416174
0.000419579
0.000921925
0.000930513
0.000926502
0.000906028
0.0007677
0.00075483
0.000747249
0.00073631
0.000605634
0.000595776
0.000590833
0.000585166
0.00052807
0.000519606
0.000518073
0.00052206
0.00110859
0.00111882
0.00111353
0.00108753
0.000906993
0.000889295
0.000879546
0.000866623
0.000708942
0.000696522
0.000690982
0.000686003
0.000632513
0.000623966
0.000622612
0.000627311
0.00129636
0.00130798
0.00130151
0.00127051
0.00104828
0.00102694
0.0010153
0.00100006
0.000814972
0.000799659
0.000793511
0.000789516
0.000739274
0.000730682
0.000729526
0.000734962
0.00148331
0.00149608
0.00148856
0.00145316
0.00119337
0.00116856
0.00115499
0.00113716
0.00092274
0.000904195
0.000897446
0.000894791
0.000850071
0.000841734
0.000840864
0.000847013
0.00167349
0.00168729
0.00167872
0.00163908
0.0013418
0.00131354
0.00129796
0.00127727
0.00103137
0.00100925
0.00100192
0.00100101
0.000964807
0.000957058
0.000956581
0.000963451
0.00186655
0.00188128
0.00187166
0.00182788
0.00149282
0.00146115
0.00144348
0.00141965
0.00114032
0.00111425
0.00110637
0.00110769
0.00108316
0.00107638
0.00107641
0.00108399
0.00206154
0.0020771
0.00206645
0.00201865
0.00164572
0.00161071
0.00159088
0.00156363
0.001249
0.00121859
0.00121019
0.00121424
0.00120474
0.00119935
0.00120002
0.00120829
0.00225749
0.00227379
0.00226212
0.00221046
0.00179994
0.00176167
0.00173962
0.00170867
0.00135692
0.00132178
0.00131292
0.00132022
0.00132916
0.00132559
0.00132703
0.00133595
0.00245335
0.00247028
0.00245763
0.0024023
0.00195497
0.00191356
0.00188926
0.00185433
0.0014637
0.00142345
0.00141416
0.00142523
0.00145596
0.0014547
0.00145702
0.00146651
0.00264828
0.00266575
0.00265217
0.00259339
0.00211031
0.00206597
0.00203937
0.0020002
0.001569
0.00152327
0.0015136
0.00152895
0.0015846
0.00158612
0.00158946
0.00159939
0.00284193
0.00285986
0.00284539
0.0027834
0.00226575
0.00221866
0.00218976
0.00214606
0.00167241
0.00162083
0.00161082
0.00163094
0.00171438
0.0017192
0.00172366
0.00173386
0.00303473
0.00305307
0.00303775
0.00297268
0.00242126
0.00237155
0.00234028
0.00229178
0.00177342
0.00171562
0.00170528
0.00173062
0.00184502
0.00185358
0.00185928
0.00186967
0.00322751
0.00324628
0.00323011
0.00316201
0.00257676
0.00252444
0.00249072
0.00243713
0.00187163
0.00180719
0.00179655
0.00182759
0.00197603
0.00198877
0.00199582
0.00200632
0.00342106
0.00344028
0.00342326
0.00335201
0.00273269
0.00267771
0.00264141
0.00258236
0.00196637
0.00189484
0.00188392
0.00192118
0.00210647
0.00212381
0.00213233
0.00214286
0.0036156
0.00363528
0.00361741
0.00354306
0.00289001
0.0028324
0.00279336
0.00272835
0.00205734
0.00197813
0.00196688
0.00201078
0.00223549
0.00225783
0.00226793
0.00227845
0.00381005
0.00383013
0.00381151
0.00373444
0.00305026
0.00299035
0.00294844
0.00287676
0.00214502
0.00205737
0.00204568
0.00209661
0.00236382
0.00239168
0.00240349
0.0024139
0.00400234
0.00402265
0.00400349
0.0039245
0.00321483
0.00315337
0.00310857
0.00302936
0.00223103
0.00213406
0.00212185
0.00218051
0.00249363
0.00252761
0.00254129
0.00255145
0.00419019
0.00421047
0.00419109
0.00411144
0.00338409
0.00332244
0.00327483
0.00318697
0.00231726
0.00221004
0.00219726
0.00226434
0.00262728
0.00266808
0.00268379
0.00269352
0.00437159
0.00439149
0.00437229
0.00429354
0.0035564
0.00349644
0.00344619
0.00334832
0.00240543
0.00228711
0.00227365
0.0023497
0.00276544
0.00281362
0.0028315
0.00284064
0.00454466
0.00456384
0.00454519
0.00446884
0.0037142
0.00365678
0.00360413
0.00349621
0.00249659
0.00236676
0.00235257
0.0024378
0.00290803
0.00296394
0.00298406
0.00299247
0.00470216
0.00472098
0.00470205
0.00462514
0.00384349
0.00378906
0.00373436
0.00361697
0.0025803
0.0024429
0.00242912
0.00252327
0.00305527
0.003119
0.00314136
0.00314896
0.00484635
0.00486493
0.00484527
0.00476631
0.0039422
0.00389046
0.00383399
0.00370837
0.00264559
0.00250511
0.00249254
0.00259354
0.00320682
0.00327871
0.00330338
0.00331003
0.00498292
0.00500116
0.0049808
0.00489991
0.00403155
0.00398106
0.00392278
0.00379024
0.00267879
0.00253544
0.00252434
0.00263283
0.00336019
0.0034416
0.00346893
0.00347432
0.00511888
0.00513687
0.00511566
0.00503231
0.00412307
0.00407075
0.0040091
0.00386778
0.00268826
0.00253934
0.00252995
0.00264937
0.00349668
0.00359325
0.00362474
0.00362795
0.00526213
0.0052802
0.00525781
0.00517066
0.00422846
0.00416926
0.00410371
0.00395707
0.0026907
0.00253004
0.00252211
0.00265784
0.00361947
0.00373108
0.00376674
0.00376789
0.00541569
0.00543425
0.00541029
0.0053177
0.00434451
0.00427399
0.00420403
0.0040548
0.00271056
0.00253228
0.0025254
0.00268206
0.00372736
0.00385329
0.00389297
0.0038923
0.0055749
0.00559424
0.00556844
0.00546935
0.00443549
0.00435707
0.00428235
0.0041261
0.00273158
0.00253406
0.00252827
0.00270761
0.00382495
0.00396484
0.00400844
0.00400606
0.0057301
0.00575022
0.00572258
0.00561694
0.00451353
0.00442895
0.00434948
0.00418447
0.00271554
0.00250537
0.00250071
0.00269628
0.00391878
0.00407283
0.00412038
0.00411616
0.00587175
0.0058924
0.00586313
0.00575192
0.00458524
0.00449555
0.00441158
0.00423757
0.00269583
0.00247298
0.00246946
0.00268127
0.00400898
0.00417732
0.00422882
0.00422263
0.00599287
0.00601357
0.00598311
0.00586807
0.00465
0.00455684
0.00446882
0.00428553
0.00267346
0.00243783
0.00243542
0.00266348
0.00409531
0.00427795
0.00433339
0.00432512
0.00609008
0.0061103
0.00607913
0.00596228
0.00470941
0.00461418
0.00452265
0.00433042
0.00264863
0.00240022
0.00239887
0.00264307
0.00417724
0.00437414
0.00443346
0.00442302
0.00616708
0.00618643
0.0061549
0.00603773
0.00476102
0.00466533
0.00457081
0.00436969
0.00262124
0.00236023
0.00235993
0.00262002
0.00425392
0.0044649
0.00452803
0.00451533
0.00623992
0.00625851
0.00622661
0.00610892
0.0048071
0.00471136
0.00461405
0.0044042
0.00259152
0.00231825
0.00231897
0.0025945
0.00427311
0.00450863
0.00457455
0.00454449
0.00634024
0.00635918
0.00632617
0.00620467
0.00485424
0.00475634
0.00465569
0.00443749
0.00256029
0.00227518
0.00227685
0.00256724
0.00427896
0.00454042
0.00460884
0.00455896
0.00649325
0.00652002
0.0064845
0.00634799
0.00491242
0.00480656
0.0047009
0.00447491
0.00252916
0.00223269
0.00223534
0.00254012
0.00431676
0.00459677
0.00466821
0.00460842
0.00669741
0.00674775
0.00670822
0.00653758
0.00499345
0.00486963
0.00475609
0.00452331
0.00250025
0.00219302
0.00219673
0.0025156
0.00441443
0.0047005
0.00477594
0.00472336
0.00696895
0.00704265
0.00699759
0.00678827
0.00509742
0.00494669
0.00482295
0.00458508
0.00247593
0.00215878
0.00216362
0.00249599
0.00458859
0.00486502
0.00494566
0.00492177
0.00720884
0.00729164
0.00724205
0.00701016
0.00519989
0.00502438
0.00489181
0.00465098
0.00245931
0.0021334
0.00213944
0.00248428
0.00467601
0.00496098
0.00504503
0.00502358
0.00738973
0.00746063
0.00740825
0.00717839
0.00524286
0.00506605
0.00493181
0.00468703
0.00242936
0.00210157
0.00210882
0.0024594
0.0047561
0.00505087
0.00513779
0.00511555
0.0075115
0.00755201
0.00749854
0.00729283
0.00527791
0.00510299
0.00496853
0.00472116
0.00235597
0.00204109
0.00204961
0.00239123
0.00484143
0.00514418
0.00523348
0.00521072
0.0074975
0.00753517
0.00748292
0.00728365
0.00530984
0.00513797
0.00500451
0.00475726
0.00234513
0.00203803
0.00204786
0.00238584
0.00493268
0.00524087
0.00533184
0.00530891
0.00745807
0.00749244
0.00744183
0.0072507
0.00533694
0.00516914
0.00503809
0.00479433
0.00243744
0.00212597
0.00213723
0.00248405
0.00502971
0.00534018
0.00543196
0.00540934
0.00739165
0.00742214
0.00737355
0.00719236
0.00535674
0.00519389
0.00506671
0.00483013
0.00265865
0.00232547
0.00233827
0.00271163
0.00513118
0.0054406
0.00553228
0.00551047
0.00729619
0.00732224
0.00727606
0.00710653
0.00536644
0.00520939
0.00508743
0.00486149
0.00277212
0.00244746
0.00246193
0.00283201
0.00523438
0.00553971
0.00563047
0.00560997
0.0071736
0.00719477
0.00715127
0.00699464
0.00536222
0.00521163
0.00509613
0.00488403
0.0029008
0.00258809
0.00260438
0.00296824
0.00533617
0.00563481
0.00572396
0.0057052
0.00703014
0.00704639
0.00700556
0.00686183
0.00534202
0.00519744
0.00508925
0.00489407
0.00303893
0.00274132
0.00275966
0.00311486
0.0054354
0.00572532
0.00581231
0.00579566
0.00687501
0.00688673
0.00684825
0.00671605
0.00530488
0.00516463
0.00506416
0.0048889
0.00318179
0.00290227
0.00292309
0.00326796
0.00553179
0.00581145
0.00589588
0.00588162
0.00665176
0.00667697
0.00664134
0.0065059
0.00525017
0.0051119
0.0050193
0.00486681
0.00332583
0.00306716
0.0030909
0.00342411
0.00562606
0.00589441
0.00597601
0.00596433
0.00639963
0.00644822
0.00641526
0.006267
0.00517849
0.00503931
0.00495451
0.00482741
0.00346872
0.00323342
0.00326054
0.00358101
0.00571774
0.00597395
0.0060525
0.00604358
0.00621414
0.00627297
0.00624092
0.0060862
0.00509156
0.00494798
0.00487066
0.00477142
0.00360888
0.00339932
0.00343027
0.00373704
0.00580626
0.00604956
0.00612488
0.00611895
0.00612289
0.00617335
0.00613997
0.00598869
0.00499125
0.00483936
0.00476898
0.00469987
0.00367751
0.00348824
0.00352341
0.00382313
0.00589047
0.00612006
0.00619198
0.00618929
0.00616428
0.00617836
0.00614083
0.00600953
0.00485485
0.00469191
0.00462208
0.00456574
0.00362867
0.00344897
0.00348868
0.00379309
0.00591668
0.006153
0.00622707
0.00622446
0.0061103
0.00612021
0.00607945
0.00594172
0.00469133
0.00451454
0.00444081
0.00438609
0.00347439
0.00329469
0.0033392
0.00365867
0.00590142
0.00615783
0.0062377
0.00623315
0.00605351
0.00606632
0.00602181
0.00586957
0.00452239
0.00432827
0.00425117
0.00420317
0.00319646
0.00304525
0.00309476
0.00340143
0.00588852
0.00616029
0.00624474
0.0062392
0.00601479
0.00603131
0.00598225
0.00581227
0.00435934
0.00414428
0.00406682
0.00403865
0.00308982
0.00296783
0.00302248
0.00331606
0.00589951
0.00617285
0.00625823
0.00625415
0.0059914
0.00601234
0.00595804
0.00576751
0.00420935
0.00396983
0.0038966
0.00390617
0.00323913
0.00314617
0.00320603
0.00348696
0.00594731
0.00620289
0.00628403
0.00628479
0.00598055
0.0060064
0.00594629
0.00573294
0.00407552
0.0038084
0.00374458
0.0038113
0.00367924
0.00361218
0.00367727
0.00394873
0.00603649
0.00625306
0.0063243
0.00633358
0.00597925
0.00601029
0.00594393
0.00570612
0.00395566
0.00365848
0.00360848
0.00374865
0.00412409
0.00413212
0.00420243
0.00441518
0.00615936
0.00631887
0.00637539
0.00639632
0.00598426
0.00602053
0.00594764
0.00568447
0.00384616
0.00351741
0.00348438
0.0037094
0.00467197
0.00476724
0.00484268
0.00498433
0.00630409
0.00639361
0.00643195
0.00646672
0.00599217
0.00603342
0.00595392
0.00566537
0.00374068
0.00338013
0.00336501
0.0036781
0.00524397
0.00542932
0.00550973
0.00557687
0.00645033
0.00646546
0.00648445
0.00653383
0.00599939
0.00604507
0.00595915
0.00564631
0.00363089
0.00323997
0.00324068
0.0036338
0.00569972
0.00596158
0.00604663
0.00605185
0.00656991
0.00651795
0.00651957
0.00658236
0.00600225
0.00605148
0.00595966
0.00562497
0.00349622
0.00307908
0.00308697
0.00352887
0.00599865
0.00631782
0.00640699
0.00636779
0.00660418
0.00651708
0.00650991
0.00658087
0.00599715
0.00604867
0.0059519
0.00559948
0.00337238
0.00293365
0.00294638
0.00342511
0.00616133
0.00651954
0.00661207
0.00654443
0.00661352
0.00650112
0.00648777
0.00656509
0.00598097
0.00603307
0.00593285
0.00556897
0.0032815
0.00282754
0.00284489
0.00335332
0.006287
0.00667505
0.00677004
0.00668025
0.00656219
0.00644044
0.00642067
0.00648593
0.00595089
0.00600141
0.00589988
0.00553333
0.00324206
0.00278163
0.00280342
0.00333227
0.00640311
0.00681244
0.0069086
0.00680119
0.00647804
0.00635944
0.00633361
0.00637431
0.00590453
0.00595096
0.00585105
0.00549331
9.39441e-09
9.28544e-09
9.30784e-09
9.47067e-09
1.26214e-08
1.36364e-08
1.37787e-08
1.31886e-08
1.18572e-08
1.22022e-08
1.20409e-08
1.1214e-08
7.49168e-09
7.09428e-09
7.02447e-09
7.2388e-09
6.71716e-08
6.8713e-08
6.76998e-08
6.3106e-08
7.62338e-08
8.32193e-08
8.33137e-08
7.66238e-08
6.11193e-08
6.58574e-08
6.55787e-08
5.99673e-08
3.22991e-08
3.38072e-08
3.41502e-08
3.36803e-08
5.28162e-07
5.3934e-07
5.33553e-07
5.05152e-07
5.77351e-07
6.19917e-07
6.19937e-07
5.77437e-07
4.57755e-07
4.83686e-07
4.80164e-07
4.43201e-07
2.52829e-07
2.58033e-07
2.59067e-07
2.56926e-07
2.5833e-06
2.62653e-06
2.611e-06
2.52274e-06
2.80008e-06
2.95072e-06
2.94938e-06
2.79454e-06
2.23673e-06
2.30778e-06
2.28351e-06
2.1364e-06
1.30734e-06
1.29327e-06
1.28924e-06
1.29077e-06
8.98478e-06
9.10817e-06
9.08235e-06
8.88875e-06
9.60168e-06
9.97436e-06
9.96365e-06
9.55743e-06
7.71113e-06
7.82514e-06
7.72714e-06
7.30614e-06
4.73728e-06
4.60109e-06
4.56759e-06
4.60127e-06
2.44006e-05
2.46937e-05
2.46634e-05
2.43013e-05
2.55328e-05
2.62356e-05
2.61864e-05
2.53295e-05
2.0561e-05
2.06417e-05
2.03636e-05
1.94116e-05
1.3217e-05
1.27238e-05
1.26064e-05
1.27421e-05
5.48933e-05
5.55042e-05
5.547e-05
5.48066e-05
5.60005e-05
5.70433e-05
5.68825e-05
5.5336e-05
4.51359e-05
4.50056e-05
4.43908e-05
4.25952e-05
3.02868e-05
2.90718e-05
2.87881e-05
2.91411e-05
0.000106494
0.000107637
0.000107572
0.000106324