/*--------------------------------*- C++ -*----------------------------------*\
| =========                 |                                                 |
| \\      /  F ield         | OpenFOAM: The Open Source CFD Toolbox           |
|  \\    /   O peration     | Version:  v1912                                 |
|   \\  /    A nd           | Website:  www.openfoam.com                      |
|    \\/     M anipulation  |                                                 |
\*---------------------------------------------------------------------------*/
FoamFile
{
    version     2.0;
    format      ascii;
    class       volVectorField;
    location    "100";
    object      UMean;
}
// * * * * * * * * * * * * * * * * * * * * * * * * * * * * * * * * * * * * * //

dimensions      [0 1 -1 0 0 0 0];


internalField   nonuniform List<vector> 
10077
(
(0.000141397 4.08699e-06 0.00829976)
(0.000138846 4.03443e-06 0.00825596)
(0.000131921 3.87677e-06 0.00815342)
(0.000120659 3.61529e-06 0.00799215)
(-9.43472e-05 3.83321e-06 0.00751216)
(-0.000104175 3.0984e-06 0.00759467)
(-0.000111691 2.57115e-06 0.00760133)
(-0.000117066 2.23948e-06 0.0075323)
(-0.000190654 -1.49796e-06 0.00783578)
(-0.000192864 -1.5095e-06 0.00793056)
(-0.000190002 -1.51981e-06 0.00794072)
(-0.000182004 -1.52911e-06 0.00786651)
(-2.47113e-05 -2.43986e-06 0.00860069)
(-1.8216e-05 -2.55042e-06 0.00877904)
(-1.33362e-05 -2.61728e-06 0.00889188)
(-9.95962e-06 -2.63993e-06 0.00893912)
(0.000209307 5.33668e-06 0.0148899)
(0.000205624 5.27764e-06 0.0148624)
(0.000195996 5.09261e-06 0.0148515)
(0.000180172 4.77756e-06 0.0148553)
(-0.0001569 -5.24016e-06 0.0149151)
(-0.000174777 -5.11434e-06 0.0149143)
(-0.000190407 -5.00281e-06 0.01493)
(-0.000204465 -4.90074e-06 0.014963)
(-0.000325322 -3.939e-06 0.0154961)
(-0.000326565 -3.97394e-06 0.015514)
(-0.000322026 -4.01906e-06 0.0155367)
(-0.000311507 -4.07631e-06 0.0155654)
(-7.04011e-05 -6.41659e-06 0.0159273)
(-5.75507e-05 -6.56033e-06 0.0159316)
(-4.79912e-05 -6.64523e-06 0.0159474)
(-4.12714e-05 -6.6732e-06 0.0159767)
(0.000315927 -4.78564e-06 0.0248695)
(0.000310539 -4.82793e-06 0.0248285)
(0.000296425 -4.94224e-06 0.0248125)
(0.000273219 -5.13144e-06 0.0248189)
(-0.000235198 -5.72574e-06 0.0249262)
(-0.0002613 -6.23807e-06 0.0249258)
(-0.000284341 -6.59106e-06 0.0249519)
(-0.000305316 -6.79996e-06 0.0250057)
(-0.000502788 -1.01479e-05 0.0258785)
(-0.000505997 -1.0188e-05 0.0259084)
(-0.000500466 -1.03039e-05 0.0259446)
(-0.000485958 -1.05005e-05 0.0259888)
(-0.000132996 -1.3976e-05 0.0265444)
(-0.000115007 -1.42067e-05 0.0265491)
(-0.000101337 -1.43458e-05 0.0265715)
(-9.13141e-05 -1.43967e-05 0.0266148)
(0.000398874 -6.60906e-06 0.0348716)
(0.000392192 -6.67175e-06 0.0348201)
(0.000374682 -6.86817e-06 0.0348003)
(0.000345887 -7.20261e-06 0.0348088)
(-0.00029765 -1.54369e-05 0.0349655)
(-0.00033027 -1.55123e-05 0.0349666)
(-0.000359399 -1.55573e-05 0.0350028)
(-0.000386294 -1.55739e-05 0.0350759)
(-0.00065437 -1.74769e-05 0.0362731)
(-0.0006599 -1.75819e-05 0.0363152)
(-0.000654351 -1.77928e-05 0.0363636)
(-0.000637483 -1.81186e-05 0.0364205)
(-0.000207126 -2.40864e-05 0.0371326)
(-0.000185695 -2.44578e-05 0.0371365)
(-0.000169032 -2.46834e-05 0.0371636)
(-0.000156283 -2.47691e-05 0.0372173)
(0.000467172 -1.53786e-05 0.0448373)
(0.000459453 -1.54204e-05 0.0447782)
(0.000439214 -1.55753e-05 0.0447556)
(0.000405929 -1.58463e-05 0.0447658)
(-0.000348323 -2.09537e-05 0.0449733)
(-0.000386504 -2.12532e-05 0.0449766)
(-0.000421007 -2.14845e-05 0.0450227)
(-0.000453323 -2.16575e-05 0.0451133)
(-0.000789196 -2.63206e-05 0.046615)
(-0.000797241 -2.64963e-05 0.0466691)
(-0.000792264 -2.68209e-05 0.0467284)
(-0.000774052 -2.73084e-05 0.0467954)
(-0.000290822 -3.54987e-05 0.0476315)
(-0.000266994 -3.59887e-05 0.047634)
(-0.000248036 -3.62902e-05 0.0476639)
(-0.000232938 -3.64115e-05 0.0477251)
(0.000524445 -1.95276e-05 0.0547037)
(0.000515875 -1.95733e-05 0.0546392)
(0.000493401 -1.97854e-05 0.0546148)
(0.000456443 -2.01668e-05 0.0546262)
(-0.000390873 -2.84109e-05 0.0548837)
(-0.000433761 -2.87297e-05 0.05489)
(-0.000472934 -2.9006e-05 0.0549452)
(-0.000510083 -2.92516e-05 0.0550517)
(-0.000910986 -3.59769e-05 0.0568348)
(-0.000921664 -3.62463e-05 0.0569005)
(-0.000917697 -3.67024e-05 0.0569693)
(-0.000898913 -3.73651e-05 0.0570442)
(-0.00038007 -4.80767e-05 0.057977)
(-0.000354725 -4.87026e-05 0.0579776)
(-0.000334074 -4.90924e-05 0.0580088)
(-0.000316973 -4.92572e-05 0.058075)
(0.000570438 -2.53071e-05 0.0644052)
(0.000561167 -2.5341e-05 0.0643371)
(0.000536888 -2.55712e-05 0.0643114)
(0.00049697 -2.60004e-05 0.0643236)
(-0.000427132 -3.54837e-05 0.0646261)
(-0.000473932 -3.58747e-05 0.0646356)
(-0.000517079 -3.62413e-05 0.0646993)
(-0.000558438 -3.65994e-05 0.0648199)
(-0.00102014 -4.60472e-05 0.0668613)
(-0.00103344 -4.64241e-05 0.0669381)
(-0.0010308 -4.70281e-05 0.0670152)
(-0.00101209 -4.78851e-05 0.0670961)
(-0.000472845 -6.12772e-05 0.0681029)
(-0.000446771 -6.20476e-05 0.0681012)
(-0.000424974 -6.2533e-05 0.0681327)
(-0.000406197 -6.27478e-05 0.0682018)
(0.000605375 -3.05657e-05 0.0738727)
(0.00059554 -3.05847e-05 0.0738024)
(0.00056985 -3.08365e-05 0.0737758)
(0.000527637 -3.13225e-05 0.0737881)
(-0.000457985 -4.24817e-05 0.0741266)
(-0.000507943 -4.29323e-05 0.0741392)
(-0.000554388 -4.33864e-05 0.0742104)
(-0.000599327 -4.38635e-05 0.0743435)
(-0.00111698 -5.62631e-05 0.0766203)
(-0.00113287 -5.676e-05 0.0767076)
(-0.00113181 -5.75263e-05 0.0767921)
(-0.00111376 -5.85951e-05 0.0768776)
(-0.000567911 -7.48804e-05 0.0779412)
(-0.00054183 -7.58053e-05 0.0779371)
(-0.000519394 -7.63943e-05 0.077968)
(-0.000499255 -7.66658e-05 0.0780386)
(0.000629939 -3.57039e-05 0.0830364)
(0.000619673 -3.57022e-05 0.0829648)
(0.000592958 -3.5968e-05 0.0829372)
(0.000549096 -3.65015e-05 0.0829489)
(-0.000483469 -4.92137e-05 0.0833104)
(-0.000535861 -4.97155e-05 0.0833255)
(-0.000584958 -5.02561e-05 0.0834034)
(-0.00063288 -5.08588e-05 0.0835473)
(-0.00120196 -6.64199e-05 0.0860375)
(-0.00122039 -6.7046e-05 0.0861345)
(-0.00122117 -6.79873e-05 0.0862257)
(-0.00120431 -6.92845e-05 0.0863149)
(-0.0006648 -8.86598e-05 0.0874235)
(-0.000639387 -8.97485e-05 0.087417)
(-0.000616789 -9.04489e-05 0.087447)
(-0.000595588 -9.07836e-05 0.087518)
(0.000645227 -4.03987e-05 0.0918339)
(0.000634665 -4.03716e-05 0.0917616)
(0.000607302 -4.06486e-05 0.0917329)
(0.00056242 -4.12281e-05 0.0917429)
(-0.000503229 -5.55123e-05 0.0921113)
(-0.000557378 -5.6061e-05 0.0921284)
(-0.00060853 -5.66886e-05 0.0922117)
(-0.000658896 -5.74222e-05 0.0923648)
(-0.00127574 -7.63282e-05 0.0950469)
(-0.00129672 -7.70906e-05 0.0951533)
(-0.00129958 -7.8218e-05 0.0952504)
(-0.00128445 -7.97593e-05 0.0953425)
(-0.000763476 -0.000102411 0.0964892)
(-0.000739354 -0.000103674 0.0964808)
(-0.000717038 -0.000104495 0.0965097)
(-0.000695059 -0.000104899 0.0965804)
(0.000652599 -4.46553e-05 0.100221)
(0.000641872 -4.45974e-05 0.100148)
(0.000614222 -4.48806e-05 0.100118)
(0.000568918 -4.55012e-05 0.100125)
(-0.000516912 -6.11997e-05 0.100483)
(-0.000572198 -6.18026e-05 0.100502)
(-0.00062488 -6.25247e-05 0.100589)
(-0.000677233 -6.33974e-05 0.10075)
(-0.00133927 -8.58566e-05 0.103604)
(-0.00136283 -8.67606e-05 0.103719)
(-0.00136804 -8.80834e-05 0.103822)
(-0.00135513 -8.98822e-05 0.103916)
(-0.000864057 -0.00011597 0.105097)
(-0.000841784 -0.000117418 0.105088)
(-0.000820153 -0.000118367 0.105116)
(-0.00079766 -0.000118849 0.105186)
(0.000653442 -4.88153e-05 0.108179)
(0.000642677 -4.87195e-05 0.108107)
(0.00061507 -4.89962e-05 0.108074)
(0.000569891 -4.96391e-05 0.108078)
(-0.000524364 -6.64425e-05 0.108407)
(-0.000580242 -6.70813e-05 0.108426)
(-0.000634001 -6.78881e-05 0.108517)
(-0.000687965 -6.88976e-05 0.108684)
(-0.00139366 -9.49362e-05 0.111693)
(-0.00141987 -9.59853e-05 0.111816)
(-0.00142769 -9.75108e-05 0.111924)
(-0.00141745 -9.95783e-05 0.112021)
(-0.000966594 -0.000129266 0.113234)
(-0.000946659 -0.000130906 0.113224)
(-0.000926069 -0.000131989 0.113251)
(-0.000903304 -0.000132555 0.11332)
(0.00064907 -5.32246e-05 0.115716)
(0.000638382 -5.30822e-05 0.115643)
(0.000611119 -5.33325e-05 0.115609)
(0.000566552 -5.39665e-05 0.115608)
(-0.000525768 -7.14021e-05 0.115893)
(-0.000581762 -7.20318e-05 0.115913)
(-0.000636219 -7.28936e-05 0.116006)
(-0.000691491 -7.40249e-05 0.116178)
(-0.00144005 -0.000103495 0.119325)
(-0.00146901 -0.000104691 0.119457)
(-0.00147967 -0.000106426 0.119569)
(-0.0014725 -0.000108774 0.119667)
(-0.00107087 -0.000142229 0.120913)
(-0.00105369 -0.000144066 0.120903)
(-0.00103445 -0.00014529 0.120929)
(-0.00101162 -0.000145945 0.120997)
(0.000640651 -5.76169e-05 0.122857)
(0.000630151 -5.74199e-05 0.122785)
(0.000603491 -5.76282e-05 0.122748)
(0.000559959 -5.82289e-05 0.122741)
(-0.000521591 -7.58818e-05 0.12297)
(-0.0005773 -7.64681e-05 0.122989)
(-0.000632143 -7.73613e-05 0.123084)
(-0.000688488 -7.85999e-05 0.12326)
(-0.00147949 -0.000111366 0.126533)
(-0.00151127 -0.000112708 0.126672)
(-0.00152499 -0.000114658 0.126789)
(-0.00152123 -0.000117299 0.126889)
(-0.00117629 -0.000154713 0.128166)
(-0.00116219 -0.000156758 0.128156)
(-0.00114454 -0.000158131 0.128182)
(-0.00112183 -0.000158884 0.128248)
(0.000629204 -6.13068e-05 0.129636)
(0.000618987 -6.10501e-05 0.129564)
(0.000593149 -6.1212e-05 0.129524)
(0.000550997 -6.17757e-05 0.129511)
(-0.000512531 -7.95043e-05 0.129675)
(-0.000567626 -8.00458e-05 0.129693)
(-0.000622606 -8.09678e-05 0.129789)
(-0.000679846 -8.231e-05 0.129968)
(-0.00151291 -0.000118345 0.133354)
(-0.0015476 -0.000119832 0.133501)
(-0.00156452 -0.000122002 0.133622)
(-0.00156442 -0.000124948 0.133723)
(-0.00128186 -0.000166532 0.13503)
(-0.0012711 -0.000168799 0.13502)
(-0.00125523 -0.000170332 0.135045)
(-0.00123276 -0.00017119 0.135109)
(0.00061558 -6.3968e-05 0.136082)
(0.000605727 -6.36485e-05 0.136011)
(0.000580884 -6.37661e-05 0.135968)
(0.000540381 -6.42998e-05 0.135949)
(-0.000499453 -8.20861e-05 0.136042)
(-0.000553675 -8.25953e-05 0.136058)
(-0.000608599 -8.35526e-05 0.136155)
(-0.000666598 -8.49993e-05 0.136337)
(-0.00154111 -0.000124321 0.139824)
(-0.00157874 -0.000125947 0.139977)
(-0.00159898 -0.000128341 0.140103)
(-0.00160271 -0.000131605 0.140205)
(-0.00138657 -0.000177562 0.141539)
(-0.00137931 -0.000180065 0.141529)
(-0.00136536 -0.00018177 0.141553)
(-0.00134322 -0.000182742 0.141616)
(0.000600383 -6.5811e-05 0.142222)
(0.000590959 -6.54248e-05 0.142152)
(0.000567239 -6.54955e-05 0.142107)
(0.000528584 -6.59976e-05 0.142082)
(-0.000483259 -8.37601e-05 0.142099)
(-0.000536409 -8.4228e-05 0.142114)
(-0.000591126 -8.52124e-05 0.142211)
(-0.000649772 -8.67558e-05 0.142394)
(-0.00156481 -0.000129248 0.145971)
(-0.00160541 -0.000131008 0.146131)
(-0.00162902 -0.000133628 0.14626)
(-0.00163668 -0.000137221 0.146363)
(-0.0014896 -0.000187768 0.14772)
(-0.00148597 -0.00019052 0.147711)
(-0.00147401 -0.000192406 0.147734)
(-0.00145228 -0.000193501 0.147794)
(0.000583979 -6.7164e-05 0.148078)
(0.000575032 -6.67051e-05 0.14801)
(0.000552525 -6.67182e-05 0.147963)
(0.000515853 -6.71729e-05 0.147931)
(-0.000464861 -8.46285e-05 0.147871)
(-0.000516787 -8.50274e-05 0.147883)
(-0.000571172 -8.60169e-05 0.14798)
(-0.000630364 -8.76398e-05 0.148165)
(-0.0015847 -0.000133083 0.15182)
(-0.00162823 -0.000134972 0.151986)
(-0.00165524 -0.000137822 0.152118)
(-0.00166689 -0.000141757 0.152221)
(-0.00159043 -0.000197121 0.153598)
(-0.00159048 -0.000200135 0.15359)
(-0.00158058 -0.000202213 0.153612)
(-0.00155931 -0.000203437 0.153669)
(0.000566593 -6.81019e-05 0.153672)
(0.000558155 -6.75638e-05 0.153605)
(0.00053692 -6.7506e-05 0.153555)
(0.000502315 -6.78929e-05 0.153518)
(-0.000445079 -8.46241e-05 0.153378)
(-0.000495668 -8.49279e-05 0.153389)
(-0.000549618 -8.59012e-05 0.153485)
(-0.000609257 -8.7586e-05 0.15367)
(-0.00160132 -0.000135759 0.157393)
(-0.00164774 -0.000137772 0.157564)
(-0.00167812 -0.000140856 0.157699)
(-0.00169376 -0.000145146 0.157803)
(-0.00168865 -0.000205573 0.159195)
(-0.00169242 -0.000208865 0.159187)
(-0.00168461 -0.000211146 0.159208)
(-0.00166383 -0.000212509 0.159262)
(0.000548417 -6.85271e-05 0.159021)
(0.000540509 -6.79038e-05 0.158956)
(0.000520576 -6.77635e-05 0.158904)
(0.000488081 -6.80648e-05 0.15886)
(-0.000424588 -8.36866e-05 0.158642)
(-0.000473762 -8.3874e-05 0.158651)
(-0.000527192 -8.48126e-05 0.158746)
(-0.000587186 -8.65428e-05 0.158931)
(-0.00161511 -0.000137229 0.16271)
(-0.00166434 -0.000139359 0.162887)
(-0.00169804 -0.000142681 0.163024)
(-0.00171766 -0.000147338 0.163127)
(-0.0017839 -0.000213089 0.164531)
(-0.0017914 -0.000216674 0.164524)
(-0.00178568 -0.000219171 0.164543)
(-0.00176542 -0.000220681 0.164594)
(0.000529633 -6.83861e-05 0.164141)
(0.000522262 -6.76731e-05 0.164079)
(0.000503639 -6.74399e-05 0.164025)
(0.000473264 -6.76391e-05 0.163975)
(-0.000403931 -8.18068e-05 0.16368)
(-0.00045164 -8.18561e-05 0.163687)
(-0.000504482 -8.2741e-05 0.16378)
(-0.000564739 -8.44998e-05 0.163965)
(-0.00162645 -0.000137477 0.167791)
(-0.00167839 -0.000139719 0.167972)
(-0.00171533 -0.000143282 0.16811)
(-0.00173888 -0.00014832 0.168214)
(-0.00187589 -0.000219657 0.169624)
(-0.00188709 -0.000223553 0.169617)
(-0.00188347 -0.000226277 0.169636)
(-0.00186374 -0.000227942 0.169683)
(0.000510377 -6.76788e-05 0.169049)
(0.000503542 -6.68724e-05 0.168989)
(0.000486219 -6.65358e-05 0.168933)
(0.000457944 -6.66154e-05 0.168877)
(-0.000383532 -7.89892e-05 0.168507)
(-0.00042975 -7.88778e-05 0.168511)
(-0.000481948 -7.96894e-05 0.168604)
(-0.000542379 -8.14589e-05 0.168787)
(-0.00163569 -0.000136504 0.17265)
(-0.00169022 -0.000138852 0.172835)
(-0.00173031 -0.00014266 0.172975)
(-0.00175769 -0.000148092 0.173078)
(-0.00196447 -0.000225286 0.174491)
(-0.00197932 -0.000229509 0.174485)
(-0.00197779 -0.000232474 0.174502)
(-0.0019586 -0.000234302 0.174546)
(0.00049073 -6.64388e-05 0.173757)
(0.000484423 -6.55353e-05 0.173699)
(0.000468377 -6.50847e-05 0.173642)
(0.000442162 -6.50269e-05 0.17358)
(-0.000363715 -7.52574e-05 0.173136)
(-0.000408433 -7.49625e-05 0.173139)
(-0.000459939 -7.56806e-05 0.17323)
(-0.000520459 -7.74425e-05 0.173412)
(-0.0016431 -0.000134308 0.177304)
(-0.00170009 -0.000136757 0.177492)
(-0.00174322 -0.000140814 0.177633)
(-0.00177435 -0.000146655 0.177735)
(-0.00204957 -0.000229996 0.179147)
(-0.00206802 -0.000234566 0.17914)
(-0.00206855 -0.000237783 0.179156)
(-0.00204991 -0.000239782 0.179197)
(0.00047074 -6.47024e-05 0.178276)
(0.000464947 -6.36978e-05 0.178222)
(0.000450146 -6.31229e-05 0.178163)
(0.000425942 -6.29108e-05 0.178096)
(-0.000344725 -7.06403e-05 0.177582)
(-0.000387945 -7.01396e-05 0.177583)
(-0.00043872 -7.07437e-05 0.177672)
(-0.000499242 -7.24789e-05 0.177853)
(-0.00164893 -0.000130895 0.181764)
(-0.00170825 -0.000133438 0.181955)
(-0.00175429 -0.000137747 0.182098)
(-0.00178906 -0.00014401 0.182198)
(-0.00213121 -0.0002338 0.183604)
(-0.00215318 -0.000238733 0.183597)
(-0.00215573 -0.000242216 0.183612)
(-0.00213765 -0.000244393 0.183649)
(0.000450463 -6.25434e-05 0.182619)
(0.000445165 -6.14335e-05 0.182567)
(0.000431569 -6.07238e-05 0.182507)
(0.000409314 -6.03404e-05 0.182435)
(-0.00032679 -6.51801e-05 0.181856)
(-0.000368526 -6.44524e-05 0.181855)
(-0.000418535 -6.49226e-05 0.181942)
(-0.000478977 -6.6611e-05 0.182121)
(-0.00165342 -0.000126313 0.186044)
(-0.00171492 -0.000128944 0.186237)
(-0.00176377 -0.000133509 0.18638)
(-0.00180207 -0.000140207 0.186479)
(-0.00220943 -0.00023674 0.187874)
(-0.00223486 -0.000242057 0.187867)
(-0.00223939 -0.000245817 0.18788)
(-0.00222187 -0.00024818 0.187915)
(0.000429974 -6.00233e-05 0.186795)
(0.000425146 -5.88063e-05 0.186746)
(0.000412705 -5.79519e-05 0.186684)
(0.000392322 -5.7379e-05 0.186608)
(-0.000310161 -5.89612e-05 0.185967)
(-0.000350441 -5.79823e-05 0.185964)
(-0.000399659 -5.82957e-05 0.18605)
(-0.00045994 -5.99151e-05 0.186227)
(-0.00165683 -0.000120643 0.190154)
(-0.00172038 -0.000123352 0.190349)
(-0.00177189 -0.000128176 0.190492)
(-0.00181359 -0.000135323 0.19059)
(-0.0022843 -0.000238841 0.191969)
(-0.0023131 -0.000244561 0.191962)
(-0.00231958 -0.000248612 0.191973)
(-0.00230262 -0.000251167 0.192004)
(0.000409362 -5.72022e-05 0.190814)
(0.000404975 -5.58778e-05 0.190767)
(0.000393625 -5.48689e-05 0.190705)
(0.000375015 -5.40873e-05 0.190624)
(-0.000295134 -5.20575e-05 0.189925)
(-0.000334007 -5.08015e-05 0.189921)
(-0.000382418 -5.09344e-05 0.190005)
(-0.000442459 -5.24619e-05 0.190179)
(-0.00165938 -0.000113924 0.194104)
(-0.00172481 -0.000116704 0.1943)
(-0.00177884 -0.000121789 0.194443)
(-0.00182382 -0.000129397 0.194538)
(-0.00235574 -0.000240129 0.195897)
(-0.00238781 -0.00024627 0.19589)
(-0.00239618 -0.000250624 0.1959)
(-0.00237978 -0.000253374 0.195928)
(0.000388731 -5.4157e-05 0.194683)
(0.000384748 -5.27231e-05 0.194639)
(0.000374408 -5.15492e-05 0.194576)
(0.000357442 -5.05395e-05 0.194491)
(-0.000282052 -4.45061e-05 0.193739)
(-0.000319588 -4.29511e-05 0.193734)
(-0.000367186 -4.28833e-05 0.193815)
(-0.000426904 -4.42998e-05 0.193988)
(-0.00166121 -0.000106169 0.197902)
(-0.00172834 -0.000109016 0.1981)
(-0.00178474 -0.000114363 0.198242)
(-0.00183284 -0.000122441 0.198335)
(-0.00242348 -0.000240702 0.19967)
(-0.0024587 -0.00024728 0.199662)
(-0.00246891 -0.000251946 0.19967)
(-0.00245306 -0.000254897 0.199694)
(0.000368174 -5.09167e-05 0.19841)
(0.000364546 -4.93752e-05 0.198368)
(0.000355118 -4.80252e-05 0.198304)
(0.000339646 -4.67639e-05 0.198216)
(-0.00027126 -3.63536e-05 0.197417)
(-0.000307541 -3.44759e-05 0.19741)
(-0.000354322 -3.41869e-05 0.19749)
(-0.000413624 -3.54741e-05 0.19766)
(-0.00166248 -9.74647e-05 0.201557)
(-0.00173111 -0.000100373 0.201756)
(-0.00178968 -0.000105985 0.201897)
(-0.00184072 -0.000114543 0.201987)
(-0.00248731 -0.000240682 0.203293)
(-0.00252557 -0.000247712 0.203284)
(-0.00253756 -0.000252702 0.20329)
(-0.00252226 -0.000255863 0.203312)
(0.000347718 -4.76697e-05 0.201999)
(0.000344383 -4.60132e-05 0.20196)
(0.00033576 -4.44721e-05 0.201896)
(0.000321624 -4.29358e-05 0.201804)
(-0.000263049 -2.76351e-05 0.200964)
(-0.00029816 -2.54028e-05 0.200956)
(-0.000344118 -2.48652e-05 0.201034)
(-0.000402908 -2.59991e-05 0.201201)
(-0.00166338 -8.79371e-05 0.205076)
(-0.0017333 -9.09011e-05 0.205274)
(-0.00179386 -9.67836e-05 0.205414)
(-0.00184767 -0.000105838 0.205502)
(-0.0025474 -0.000240158 0.206774)
(-0.00258859 -0.000247661 0.206765)
(-0.0026023 -0.000252988 0.206769)
(-0.00258753 -0.000256368 0.206788)
(0.00032711 -4.45767e-05 0.205457)
(0.000324013 -4.27938e-05 0.20542)
(0.000316093 -4.10434e-05 0.205355)
(0.000303141 -3.92063e-05 0.205261)
(-0.000257544 -1.82764e-05 0.204385)
(-0.000291566 -1.56656e-05 0.204376)
(-0.000336697 -1.48566e-05 0.204453)
(-0.000394887 -1.58147e-05 0.204618)
(-0.00166409 -7.75913e-05 0.208465)
(-0.0017351 -8.06096e-05 0.208663)
(-0.00179746 -8.67723e-05 0.208801)
(-0.00185387 -9.63454e-05 0.208885)
(-0.00260405 -0.00023913 0.21012)
(-0.00264805 -0.000247129 0.21011)
(-0.00266341 -0.000252809 0.210112)
(-0.00264919 -0.000256412 0.210128)
(0.000306063 -4.13217e-05 0.208788)
(0.000303168 -3.94108e-05 0.208754)
(0.000295866 -3.7441e-05 0.208689)
(0.00028396 -3.52845e-05 0.208593)
(-0.000254569 -8.39269e-06 0.207686)
(-0.000287576 -5.37382e-06 0.207677)
(-0.000331878 -4.26713e-06 0.207752)
(-0.000389389 -5.02482e-06 0.207914)
(-0.00166449 -6.63469e-05 0.211729)
(-0.0017364 -6.94223e-05 0.211926)
(-0.0018004 -7.58732e-05 0.212062)
(-0.00185923 -8.59783e-05 0.212144)
(-0.00265712 -0.000237527 0.213337)
(-0.00270379 -0.000246047 0.213326)
(-0.00272073 -0.00025209 0.213326)
(-0.00270704 -0.000255914 0.213339)
(0.000284577 -3.73529e-05 0.212001)
(0.000281859 -3.53298e-05 0.211969)
(0.000275101 -3.31449e-05 0.211905)
(0.00026412 -3.06629e-05 0.211807)
(-0.000253727 1.99296e-06 0.210872)
(-0.000285789 5.4255e-06 0.210862)
(-0.000329261 6.83661e-06 0.210935)
(-0.000386021 6.28724e-06 0.211095)
(-0.00166435 -5.43913e-05 0.214873)
(-0.00173699 -5.7522e-05 0.215069)
(-0.00180243 -6.42633e-05 0.215203)
(-0.0018635 -7.49065e-05 0.215281)
(-0.00270616 -0.000235406 0.216435)
(-0.00275536 -0.000244461 0.216421)
(-0.0027738 -0.000250874 0.21642)
(-0.00276063 -0.000254915 0.216431)
(0.000262931 -3.28875e-05 0.215104)
(0.000260359 -3.07698e-05 0.215073)
(0.000254076 -2.83727e-05 0.215009)
(0.000243908 -2.55546e-05 0.214909)
(-0.000254682 1.28735e-05 0.213947)
(-0.000285863 1.67021e-05 0.213936)
(-0.000328496 1.84056e-05 0.214008)
(-0.000384422 1.80575e-05 0.214165)
(-0.00166349 -4.20047e-05 0.217903)
(-0.00173667 -4.51852e-05 0.218098)
(-0.00180337 -5.22177e-05 0.21823)
(-0.00186649 -6.3406e-05 0.218305)
(-0.00275072 -0.000233064 0.219417)
(-0.0028023 -0.000242659 0.219402)
(-0.00282216 -0.000249448 0.219399)
(-0.00280949 -0.000253719 0.219408)
(0.000241501 -2.90365e-05 0.218101)
(0.000239019 -2.68003e-05 0.218072)
(0.000233129 -2.41713e-05 0.218008)
(0.000223661 -2.09998e-05 0.217907)
(-0.000257544 2.3719e-05 0.216916)
(-0.000287905 2.79877e-05 0.216904)
(-0.000329682 3.00159e-05 0.216974)
(-0.00038468 2.98911e-05 0.217129)
(-0.00166198 -2.91482e-05 0.220824)
(-0.0017355 -3.23747e-05 0.221018)
(-0.00180329 -3.96988e-05 0.221147)
(-0.00186829 -5.14368e-05 0.221219)
(-0.00279096 -0.000230543 0.222286)
(-0.00284479 -0.000240684 0.222269)
(-0.00286601 -0.000247857 0.222264)
(-0.00285382 -0.000252365 0.222271)
(0.000220041 -2.62932e-05 0.220996)
(0.000217592 -2.39196e-05 0.220968)
(0.000212002 -2.10308e-05 0.220904)
(0.000203103 -1.74676e-05 0.220801)
(-0.000262764 3.45344e-05 0.219783)
(-0.000292379 3.92865e-05 0.21977)
(-0.00033329 4.16767e-05 0.219839)
(-0.000387263 4.18084e-05 0.21999)
(-0.00166014 -1.56187e-05 0.223639)
(-0.00173381 -1.88891e-05 0.223831)
(-0.00180253 -2.65071e-05 0.223959)
(-0.00186925 -3.88017e-05 0.224027)
(-0.0028279 -0.000227536 0.225045)
(-0.00288389 -0.000238239 0.225027)
(-0.00290642 -0.000245801 0.22502)
(-0.00289472 -0.000250538 0.225024)
(0.000197689 -2.40685e-05 0.223789)
(0.000195222 -2.15641e-05 0.223763)
(0.000189838 -1.84062e-05 0.223699)
(0.000181369 -1.44271e-05 0.223595)
(-0.00027115 4.55589e-05 0.222552)
(-0.000300108 5.08264e-05 0.222539)
(-0.000340144 5.36199e-05 0.222605)
(-0.000392987 5.40601e-05 0.222754)
(-0.00165824 -1.49832e-06 0.226352)
(-0.00173188 -4.79635e-06 0.226542)
(-0.00180135 -1.27038e-05 0.226667)
(-0.00186965 -2.55622e-05 0.226731)
(-0.00286229 -0.000224121 0.227699)
(-0.00292034 -0.000235414 0.227679)
(-0.00294413 -0.000243377 0.22767)
(-0.00293293 -0.000248345 0.227673)
(0.000173165 -2.15165e-05 0.226485)
(0.000170626 -1.89057e-05 0.226461)
(0.000165344 -1.54931e-05 0.226397)
(0.000157147 -1.11036e-05 0.226291)
(-0.000284495 5.69153e-05 0.225228)
(-0.000312872 6.27024e-05 0.225214)
(-0.000351997 6.59186e-05 0.225278)
(-0.00040356 6.67028e-05 0.225424)
(-0.00165667 1.2851e-05 0.228964)
(-0.00173004 9.55425e-06 0.229152)
(-0.00180007 1.36599e-06 0.229274)
(-0.00186979 -1.20674e-05 0.229335)
(-0.00289458 -0.00022075 0.230253)
(-0.00295462 -0.00023266 0.230231)
(-0.00297963 -0.000241047 0.23022)
(-0.00296893 -0.000246262 0.230222)
(0.000145431 -1.84862e-05 0.229086)
(0.000142733 -1.57804e-05 0.229063)
(0.000137393 -1.21204e-05 0.228999)
(0.000129228 -7.32451e-06 0.228893)
(-0.000304571 6.83804e-05 0.227817)
(-0.000332456 7.46678e-05 0.227802)
(-0.00037061 7.82891e-05 0.227864)
(-0.00042068 7.94008e-05 0.228007)
(-0.00165632 2.7302e-05 0.231482)
(-0.00172911 2.40029e-05 0.231667)
(-0.00179946 1.55177e-05 0.231785)
(-0.0018704 1.47992e-06 0.231843)
(-0.0029249 -0.000217615 0.232713)
(-0.00298684 -0.000230165 0.232689)
(-0.00301305 -0.000238992 0.232677)
(-0.00300286 -0.000244464 0.232677)
(0.00011469 -1.52727e-05 0.231591)
(0.000111715 -1.24535e-05 0.231569)
(0.000106093 -8.53391e-06 0.231506)
(9.76243e-05 -3.32467e-06 0.2314)
(-0.000331788 7.95892e-05 0.230321)
(-0.000359312 8.64011e-05 0.230306)
(-0.000396453 9.04287e-05 0.230366)
(-0.000444815 9.18457e-05 0.230506)
(-0.00165772 4.21815e-05 0.233912)
(-0.00172953 3.88471e-05 0.234093)
(-0.00179987 3.00411e-05 0.234209)
(-0.00187179 1.53834e-05 0.234262)
(-0.00295243 -0.000214553 0.235084)
(-0.00301614 -0.00022775 0.235058)
(-0.00304348 -0.000237016 0.235045)
(-0.00303383 -0.000242736 0.235044)
(8.25236e-05 -1.19712e-05 0.233999)
(7.91969e-05 -9.03539e-06 0.233979)
(7.31114e-05 -4.84748e-06 0.233917)
(6.40428e-05 7.89637e-07 0.233812)
(-0.000364052 9.09993e-05 0.23274)
(-0.000391367 9.83371e-05 0.232725)
(-0.00042751 0.00010277 0.232784)
(-0.000474041 0.000104491 0.23292)
(-0.00165979 5.75202e-05 0.236256)
(-0.00173026 5.41341e-05 0.236434)
(-0.00180027 4.50051e-05 0.236546)
(-0.00187283 2.97388e-05 0.236596)
(-0.00297567 -0.00021131 0.23737)
(-0.00304097 -0.000225144 0.237343)
(-0.00306935 -0.000234843 0.237328)
(-0.00306023 -0.000240806 0.237326)
(5.12112e-05 -9.11456e-06 0.236311)
(4.75295e-05 -6.06542e-06 0.236293)
(4.09231e-05 -1.61308e-06 0.236232)
(3.11438e-05 4.44721e-06 0.236129)
(-0.000397576 0.00010299 0.235071)
(-0.000424799 0.000110823 0.235056)
(-0.000460002 0.000115665 0.235114)
(-0.000504707 0.000117724 0.235247)
(-0.00166066 7.27592e-05 0.238511)
(-0.00172965 6.93524e-05 0.238685)
(-0.00179913 5.99278e-05 0.238793)
(-0.00187208 4.40782e-05 0.238841)
(-0.00299441 -0.000207864 0.239573)
(-0.00306106 -0.000222333 0.239544)
(-0.00309037 -0.000232467 0.239529)
(-0.00308178 -0.000238684 0.239526)
(2.17641e-05 -6.59168e-06 0.238534)
(1.77559e-05 -3.46238e-06 0.238516)
(1.06666e-05 1.23463e-06 0.238457)
(2.26148e-07 7.70959e-06 0.238355)
(-0.000429257 0.00011479 0.237316)
(-0.000456455 0.000123138 0.237301)
(-0.000490757 0.000128414 0.237357)
(-0.000533641 0.000130846 0.237488)
(-0.00165976 8.73981e-05 0.240673)
(-0.00172732 8.40107e-05 0.240844)
(-0.00179625 7.43131e-05 0.240949)
(-0.00186953 5.78863e-05 0.240993)
(-0.00300933 -0.00020382 0.241691)
(-0.00307721 -0.000218927 0.241661)
(-0.00310736 -0.000229481 0.241645)
(-0.00309927 -0.000235915 0.241642)
(-6.2682e-06 -4.10304e-06 0.240675)
(-1.06557e-05 -8.92384e-07 0.240659)
(-1.82489e-05 4.06033e-06 0.2406)
(-2.93434e-05 1.09709e-05 0.2405)
(-0.000459341 0.000125352 0.239479)
(-0.000486548 0.000134243 0.239464)
(-0.000519917 0.000139962 0.239519)
(-0.000560891 0.000142757 0.239647)
(-0.00165758 0.000102252 0.242747)
(-0.00172365 9.88523e-05 0.242914)
(-0.00179199 8.8863e-05 0.243016)
(-0.00186555 7.18532e-05 0.243058)
(-0.00302153 -0.000199779 0.243727)
(-0.00309057 -0.000215521 0.243696)
(-0.00312154 -0.000226485 0.243679)
(-0.00311395 -0.000233116 0.243676)
(-3.37616e-05 -2.20104e-06 0.24274)
(-3.86402e-05 1.09829e-06 0.242724)
(-4.6856e-05 6.30146e-06 0.242666)
(-5.87374e-05 1.36303e-05 0.242567)
(-0.000492018 0.000135806 0.241564)
(-0.000519257 0.000145189 0.241549)
(-0.000551638 0.000151317 0.241602)
(-0.00059056 0.000154454 0.241727)
(-0.00165476 0.000117008 0.244738)
(-0.00171913 0.000113609 0.244902)
(-0.00178672 0.000103341 0.245001)
(-0.00186043 8.5762e-05 0.24504)
(-0.00303163 -0.000196579 0.245688)
(-0.00310182 -0.000212953 0.245657)
(-0.00313361 -0.000224342 0.24564)
(-0.00312657 -0.000231206 0.245636)
(-6.12197e-05 -1.42273e-06 0.244725)
(-6.6684e-05 2.01092e-06 0.244709)
(-7.5716e-05 7.46257e-06 0.244653)
(-8.86832e-05 1.51631e-05 0.244556)
(-0.000528746 0.000145016 0.243575)
(-0.000556122 0.000154924 0.243559)
(-0.000587501 0.000161495 0.243611)
(-0.000624239 0.000165012 0.243733)
(-0.00165199 0.000131414 0.246652)
(-0.00171435 0.000128046 0.246811)
(-0.00178097 0.000117514 0.246907)
(-0.00185473 9.93655e-05 0.246945)
(-0.00304035 -0.000195015 0.247581)
(-0.00311165 -0.00021203 0.24755)
(-0.00314429 -0.000223885 0.247532)
(-0.00313785 -0.000231063 0.24753)
(-8.69308e-05 -2.02131e-06 0.246638)
(-9.30253e-05 1.52331e-06 0.246623)
(-0.000103043 7.22185e-06 0.246568)
(-0.000117394 1.53127e-05 0.246472)
(-0.000569499 0.000153849 0.245516)
(-0.000597203 0.000164265 0.2455)
(-0.000627613 0.000171278 0.24555)
(-0.000662041 0.000175191 0.245668)
(-0.00164872 0.000145068 0.248491)
(-0.00170886 0.000141757 0.248646)
(-0.00177438 0.000130963 0.248739)
(-0.00184812 0.000112219 0.248774)
(-0.00304623 -0.000193309 0.249399)
(-0.00311865 -0.000210998 0.249367)
(-0.00315214 -0.000223318 0.24935)
(-0.00314631 -0.000230771 0.249348)
(-0.000109961 -2.83582e-06 0.248484)
(-0.000116759 7.67544e-07 0.248469)
(-0.00012799 6.72346e-06 0.248416)
(-0.00014411 1.52744e-05 0.248323)
(-0.000615272 0.000163118 0.247389)
(-0.000643544 0.000174147 0.247373)
(-0.000673059 0.000181675 0.247422)
(-0.000705088 0.000186027 0.247536)
(-0.0016451 0.000158867 0.250257)
(-0.00170268 0.000155586 0.250407)
(-0.00176685 0.000144514 0.250497)
(-0.0018404 0.000125174 0.25053)
(-0.00304749 -0.000190555 0.251142)
(-0.00312099 -0.000208943 0.25111)
(-0.00315528 -0.000221697 0.251093)
(-0.00315002 -0.000229328 0.251092)
(-0.000131374 -1.85144e-06 0.250264)
(-0.000139008 1.81501e-06 0.250249)
(-0.000151744 8.08195e-06 0.250198)
(-0.000170095 1.71962e-05 0.250109)
(-0.000664066 0.000172676 0.249197)
(-0.000693127 0.000184335 0.249183)
(-0.000721811 0.000192384 0.24923)
(-0.000751358 0.00019717 0.249339)
(-0.00164179 0.00017354 0.251953)
(-0.00169636 0.00017016 0.252098)
(-0.00175883 0.000158738 0.252184)
(-0.0018319 0.00013878 0.252215)
(-0.0030426 -0.000188012 0.252816)
(-0.00311703 -0.000207076 0.252784)
(-0.00315202 -0.00022025 0.252768)
(-0.0031473 -0.00022806 0.252768)
(-0.000151312 -8.34339e-07 0.251968)
(-0.000159796 2.88313e-06 0.251953)
(-0.000174069 9.39234e-06 0.251904)
(-0.0001947 1.89436e-05 0.25182)
(-0.000714623 0.000182684 0.250944)
(-0.00074455 0.000194766 0.250931)
(-0.000772396 0.000203182 0.250977)
(-0.000799364 0.000208293 0.251082)
(-0.0016361 0.000186739 0.253582)
(-0.0016875 0.000183351 0.253721)
(-0.00174807 0.000171645 0.253803)
(-0.0018204 0.000151115 0.253832)
(-0.00303062 -0.000186583 0.254424)
(-0.00310574 -0.000206288 0.254393)
(-0.00314133 -0.000219893 0.254378)
(-0.00313713 -0.000227942 0.254378)
(-0.000171788 -9.74263e-07 0.253596)
(-0.000181123 2.85025e-06 0.253581)
(-0.000196911 9.55335e-06 0.253535)
(-0.000219782 1.93926e-05 0.253456)
(-0.000766849 0.000189839 0.252626)
(-0.000797603 0.000202391 0.252615)
(-0.000824562 0.000211213 0.252659)