# Region type : patch leftWall
# Faces       : 16
# Area        : 5.400000e-03
# Scale factor: 1.000000e+00
# Time        	areaAverage(heatTransferCoeff(T))	areaAverage(wallShearStress)	areaAverage(T)
0.4           	-4.298617e+02	(3.120640e-06 -5.988942e-03 -1.299010e-01)	3.730000e+02
0.8           	-3.940032e+02	(2.447558e-06 -1.609436e-02 -3.670276e-01)	3.730000e+02
1.2           	-3.468835e+02	(4.296942e-06 1.114044e-03 -3.082964e-01)	3.730000e+02
1.6           	-3.190671e+02	(2.608983e-06 -2.251295e-03 -2.963442e-01)	3.730000e+02
2             	-2.994081e+02	(-5.503671e-05 1.774747e-03 -2.733125e-01)	3.730000e+02
2.4           	-2.871766e+02	(-6.250054e-05 2.623283e-03 -2.708006e-01)	3.730000e+02
2.8           	-2.808788e+02	(-4.569905e-05 -2.293146e-03 -2.627156e-01)	3.730000e+02
3.2           	-2.753644e+02	(-6.632101e-06 4.442900e-03 -2.691204e-01)	3.730000e+02
3.6           	-2.729934e+02	(-1.776756e-05 -3.759049e-03 -2.717854e-01)	3.730000e+02
4             	-2.705988e+02	(-2.158237e-05 -2.015241e-03 -2.483475e-01)	3.730000e+02
4.4           	-2.724251e+02	(-1.682575e-04 3.391154e-03 -2.512750e-01)	3.730000e+02
4.8           	-2.749635e+02	(6.658832e-04 6.063876e-03 -2.779507e-01)	3.730000e+02
5.2           	-2.718907e+02	(6.387187e-04 -3.116153e-03 -2.686727e-01)	3.730000e+02
5.6           	-2.676752e+02	(-2.264992e-04 1.484781e-03 -2.677102e-01)	3.730000e+02
6             	-2.676018e+02	(-3.231796e-04 -6.292084e-03 -2.755664e-01)	3.730000e+02
6.4           	-2.685231e+02	(4.816335e-04 -2.193474e-03 -2.699173e-01)	3.730000e+02
6.8           	-2.708151e+02	(3.139015e-04 2.906320e-03 -2.746583e-01)	3.730000e+02
7.2           	-2.686172e+02	(4.604917e-04 -1.888811e-03 -2.702604e-01)	3.730000e+02
7.6           	-2.674918e+02	(1.374281e-04 -1.197949e-03 -2.708164e-01)	3.730000e+02
8             	-2.666117e+02	(1.854302e-05 3.570713e-03 -2.784646e-01)	3.730000e+02
8.4           	-2.648919e+02	(2.414077e-04 -2.583809e-03 -2.721250e-01)	3.730000e+02
8.8           	-2.622599e+02	(2.078013e-04 6.335810e-04 -2.837186e-01)	3.730000e+02
9.2           	-2.633417e+02	(4.578095e-04 -2.488447e-03 -2.771261e-01)	3.730000e+02
9.6           	-2.656349e+02	(2.918377e-04 4.228712e-03 -2.775411e-01)	3.730000e+02
10            	-2.686520e+02	(-4.226798e-05 -2.103686e-03 -2.685201e-01)	3.730000e+02
10.4          	-2.699390e+02	(-2.391773e-05 1.129207e-03 -2.689258e-01)	3.730000e+02
10.8          	-2.701290e+02	(-2.894773e-04 -5.040380e-03 -2.745381e-01)	3.730000e+02
11.2          	-2.689056e+02	(-4.305225e-04 -5.783676e-03 -2.469775e-01)	3.730000e+02
11.6          	-2.660103e+02	(-3.942153e-04 -2.082090e-03 -2.733709e-01)	3.730000e+02
12            	-2.669112e+02	(-5.430472e-04 -1.911416e-03 -2.654715e-01)	3.730000e+02
12.4          	-2.673958e+02	(-4.261268e-04 4.944478e-03 -2.510905e-01)	3.730000e+02
12.8          	-2.669217e+02	(-9.730301e-04 -9.763819e-03 -2.537427e-01)	3.730000e+02
13.2          	-2.674401e+02	(-5.545793e-04 1.786804e-03 -2.597857e-01)	3.730000e+02
13.6          	-2.695167e+02	(-4.803809e-04 -4.372383e-03 -2.564535e-01)	3.730000e+02
14            	-2.719223e+02	(-1.323862e-04 1.977122e-03 -2.644501e-01)	3.730000e+02
14.4          	-2.736689e+02	(3.116750e-04 2.018787e-03 -2.732933e-01)	3.730000e+02
14.8          	-2.759124e+02	(-1.997356e-05 1.526737e-03 -2.705529e-01)	3.730000e+02
15.2          	-2.748297e+02	(-2.743578e-04 -3.322180e-03 -2.750224e-01)	3.730000e+02
15.6          	-2.723604e+02	(1.311412e-04 -2.999160e-03 -2.644700e-01)	3.730000e+02
16            	-2.671131e+02	(-2.972034e-04 -9.417920e-03 -2.769390e-01)	3.730000e+02
16.4          	-2.656519e+02	(-3.782955e-04 -8.153526e-03 -2.436817e-01)	3.730000e+02
16.8          	-2.665184e+02	(-3.809203e-04 -1.459714e-03 -2.680489e-01)	3.730000e+02
17.2          	-2.653218e+02	(2.528664e-04 -4.710788e-03 -2.682004e-01)	3.730000e+02
17.6          	-2.666626e+02	(4.279761e-04 -3.629362e-03 -2.640857e-01)	3.730000e+02
18            	-2.637158e+02	(3.175297e-04 -1.736046e-03 -2.692665e-01)	3.730000e+02
18.4          	-2.656558e+02	(-5.930783e-04 3.719049e-03 -2.735419e-01)	3.730000e+02
18.8          	-2.646828e+02	(-2.336806e-05 -1.186036e-03 -2.709824e-01)	3.730000e+02
19.2          	-2.687285e+02	(-8.126122e-04 -3.165906e-04 -2.681396e-01)	3.730000e+02
19.6          	-2.690810e+02	(-2.015599e-03 8.489800e-04 -2.676384e-01)	3.730000e+02
20            	-2.685166e+02	(-1.989900e-03 3.137318e-03 -2.699648e-01)	3.730000e+02
20.4          	-2.691240e+02	(-1.778055e-03 -2.312239e-03 -2.659765e-01)	3.730000e+02
20.8          	-2.749561e+02	(1.375284e-03 2.090511e-03 -2.728387e-01)	3.730000e+02
21.2          	-2.738580e+02	(2.054100e-03 1.202242e-02 -2.820586e-01)	3.730000e+02
21.6          	-2.681862e+02	(2.747870e-03 -2.214663e-03 -2.711344e-01)	3.730000e+02
22            	-2.686586e+02	(2.105937e-03 2.429415e-03 -2.780585e-01)	3.730000e+02
22.4          	-2.681641e+02	(1.266729e-03 1.721501e-03 -2.656922e-01)	3.730000e+02
22.8          	-2.713603e+02	(-1.864977e-04 6.402791e-03 -2.970310e-01)	3.730000e+02
23.2          	-2.710690e+02	(-2.551566e-04 2.573149e-03 -2.626236e-01)	3.730000e+02
23.6          	-2.723190e+02	(-9.520040e-04 -1.236864e-03 -2.687098e-01)	3.730000e+02
24            	-2.707461e+02	(-1.401945e-05 -1.423699e-03 -2.702827e-01)	3.730000e+02
24.4          	-2.701720e+02	(-3.794184e-04 -1.292515e-03 -2.622464e-01)	3.730000e+02
24.8          	-2.703193e+02	(-1.075406e-04 -2.318509e-03 -2.731377e-01)	3.730000e+02
25.2          	-2.685277e+02	(-1.057460e-03 -1.593756e-03 -2.634844e-01)	3.730000e+02
25.6          	-2.671878e+02	(-1.518592e-03 5.282560e-03 -2.588819e-01)	3.730000e+02
26            	-2.687688e+02	(-4.378411e-04 3.115610e-03 -2.652040e-01)	3.730000e+02
26.4          	-2.703907e+02	(1.307000e-03 2.907796e-03 -2.610847e-01)	3.730000e+02
26.8          	-2.722211e+02	(2.655020e-03 1.935045e-03 -2.709728e-01)	3.730000e+02
27.2          	-2.744449e+02	(3.434689e-03 -2.430900e-03 -2.782867e-01)	3.730000e+02
27.6          	-2.756220e+02	(1.779099e-03 2.721597e-03 -2.692120e-01)	3.730000e+02
28            	-2.740703e+02	(-5.091584e-05 3.160557e-03 -2.614815e-01)	3.730000e+02
28.4          	-2.753858e+02	(-4.482767e-03 -3.159227e-04 -2.739029e-01)	3.730000e+02
28.8          	-2.783892e+02	(-7.526593e-03 -8.136709e-04 -2.778171e-01)	3.730000e+02
29.2          	-2.763463e+02	(-7.210015e-03 -9.994905e-04 -2.802739e-01)	3.730000e+02
29.6          	-2.741196e+02	(-5.572445e-03 -1.287699e-03 -2.727753e-01)	3.730000e+02
30            	-2.778990e+02	(2.644630e-04 -2.016921e-03 -2.775207e-01)	3.730000e+02
30.4          	-2.759728e+02	(6.326454e-03 5.647975e-03 -2.877171e-01)	3.730000e+02
30.8          	-2.759542e+02	(9.929087e-03 2.942990e-03 -2.851892e-01)	3.730000e+02
31.2          	-2.722984e+02	(1.025675e-02 2.402411e-03 -2.894727e-01)	3.730000e+02
31.6          	-2.679168e+02	(8.315772e-03 8.503537e-04 -2.861205e-01)	3.730000e+02
32            	-2.702823e+02	(6.283013e-03 -5.761523e-03 -2.949847e-01)	3.730000e+02
32.4          	-2.714779e+02	(9.520761e-04 -1.418549e-03 -2.797503e-01)	3.730000e+02
32.8          	-2.748863e+02	(-2.753396e-03 -3.201229e-04 -2.843727e-01)	3.730000e+02
33.2          	-2.780402e+02	(-4.727331e-03 4.789514e-04 -2.872000e-01)	3.730000e+02
33.6          	-2.854384e+02	(-5.280075e-03 4.557038e-03 -2.924758e-01)	3.730000e+02
34            	-2.911094e+02	(-3.638367e-03 2.569607e-03 -2.819094e-01)	3.730000e+02
34.4          	-2.917797e+02	(-3.772944e-04 3.990725e-03 -2.791925e-01)	3.730000e+02
34.8          	-2.941816e+02	(4.763902e-03 -1.722003e-03 -2.743127e-01)	3.730000e+02
35.2          	-2.844173e+02	(1.347573e-02 -5.770729e-04 -2.790712e-01)	3.730000e+02
35.6          	-2.830881e+02	(1.291003e-02 3.526616e-03 -2.895812e-01)	3.730000e+02
36            	-2.797814e+02	(1.053520e-02 3.757145e-03 -2.815069e-01)	3.730000e+02
36.4          	-2.751052e+02	(1.024574e-02 3.212038e-03 -2.792518e-01)	3.730000e+02
36.8          	-2.627122e+02	(7.407345e-03 2.910101e-03 -2.650220e-01)	3.730000e+02
37.2          	-2.601701e+02	(6.356811e-03 1.439132e-03 -2.778419e-01)	3.730000e+02
37.6          	-2.599789e+02	(6.324169e-03 -3.232734e-03 -2.742396e-01)	3.730000e+02
38            	-2.546699e+02	(5.610896e-03 3.858017e-03 -2.645837e-01)	3.730000e+02
38.4          	-2.530655e+02	(4.464999e-03 -3.893795e-04 -2.642288e-01)	3.730000e+02
38.8          	-2.583162e+02	(5.569034e-03 1.151750e-03 -2.644523e-01)	3.730000e+02
39.2          	-2.697550e+02	(8.362089e-03 -3.467899e-03 -2.874225e-01)	3.730000e+02
39.6          	-2.699813e+02	(7.293347e-03 -2.279874e-03 -2.769043e-01)	3.730000e+02
40            	-2.668048e+02	(4.666490e-03 9.714055e-03 -2.701888e-01)	3.730000e+02
40.4          	-2.677504e+02	(3.356682e-03 -6.057798e-03 -2.692496e-01)	3.730000e+02
40.8          	-2.716831e+02	(-1.586575e-03 2.932226e-03 -2.708587e-01)	3.730000e+02
41.2          	-2.712305e+02	(-2.608273e-03 2.555481e-03 -2.731139e-01)	3.730000e+02
41.6          	-2.633814e+02	(-2.112404e-04 4.756972e-03 -2.808190e-01)	3.730000e+02
42            	-2.577946e+02	(6.957850e-04 -1.935449e-03 -2.742060e-01)	3.730000e+02
42.4          	-2.526881e+02	(2.771572e-05 3.800107e-03 -2.694875e-01)	3.730000e+02
42.8          	-2.508962e+02	(1.014826e-03 9.466150e-04 -2.678271e-01)	3.730000e+02
43.2          	-2.528868e+02	(1.794996e-03 -4.742862e-04 -2.727037e-01)	3.730000e+02
43.6          	-2.565767e+02	(5.907129e-04 -1.360278e-03 -2.759597e-01)	3.730000e+02
44            	-2.590450e+02	(3.183542e-04 1.709725e-03 -2.762006e-01)	3.730000e+02
44.4          	-2.578152e+02	(2.233300e-05 1.558046e-03 -2.706372e-01)	3.730000e+02
44.8          	-2.585718e+02	(1.062828e-03 1.583948e-03 -2.695998e-01)	3.730000e+02
45.2          	-2.677696e+02	(2.773202e-03 8.275590e-04 -2.849331e-01)	3.730000e+02
45.6          	-2.801523e+02	(3.781288e-03 -6.060213e-04 -2.961558e-01)	3.730000e+02
46            	-2.745462e+02	(9.322600e-04 5.998186e-03 -2.870285e-01)	3.730000e+02
46.4          	-2.655642e+02	(1.511652e-03 1.015404e-03 -2.763133e-01)	3.730000e+02
46.8          	-2.610596e+02	(1.477974e-03 1.749258e-03 -2.680485e-01)	3.730000e+02
47.2          	-2.578201e+02	(2.303847e-03 -2.139371e-03 -2.640122e-01)	3.730000e+02
47.6          	-2.594326e+02	(5.721510e-04 7.299648e-03 -2.717029e-01)	3.730000e+02
48            	-2.655107e+02	(-1.088391e-03 -6.656966e-04 -2.693276e-01)	3.730000e+02
48.4          	-2.756599e+02	(-2.639160e-03 3.657921e-04 -2.771172e-01)	3.730000e+02
48.8          	-2.784619e+02	(-2.445593e-03 2.425362e-03 -2.765310e-01)	3.730000e+02
49.2          	-2.775935e+02	(-3.510161e-03 -4.548726e-04 -2.775174e-01)	3.730000e+02
49.6          	-2.700170e+02	(-2.268526e-03 -1.619607e-03 -2.676629e-01)	3.730000e+02
50            	-2.661736e+02	(-2.440241e-03 2.661268e-03 -2.579598e-01)	3.730000e+02
50.4          	-2.694859e+02	(-1.774267e-03 -3.878316e-03 -2.549174e-01)	3.730000e+02
50.8          	-2.864091e+02	(-4.467132e-04 -2.650448e-03 -2.625403e-01)	3.730000e+02
51.2          	-2.976984e+02	(-1.061132e-03 -2.978328e-04 -2.665330e-01)	3.730000e+02
51.6          	-2.930451e+02	(2.067116e-03 -1.218284e-03 -2.702535e-01)	3.730000e+02
52            	-2.839057e+02	(1.767437e-03 -2.303695e-03 -2.666197e-01)	3.730000e+02
52.4          	-2.810475e+02	(-3.236910e-03 4.023444e-04 -2.754646e-01)	3.730000e+02
52.8          	-2.752952e+02	(-2.898259e-03 -4.671629e-04 -2.734075e-01)	3.730000e+02
53.2          	-2.747088e+02	(2.636117e-03 1.006195e-03 -2.635539e-01)	3.730000e+02
53.6          	-2.820566e+02	(4.499668e-03 2.984268e-03 -2.647565e-01)	3.730000e+02
54            	-2.800504e+02	(2.736358e-03 9.857999e-04 -2.603577e-01)	3.730000e+02
54.4          	-2.741937e+02	(1.442088e-03 6.556606e-04 -2.621032e-01)	3.730000e+02
54.8          	-2.707845e+02	(-1.720085e-03 2.991919e-03 -2.627979e-01)	3.730000e+02
55.2          	-2.763292e+02	(7.202939e-04 6.680084e-04 -2.782572e-01)	3.730000e+02
55.6          	-2.838481e+02	(3.156454e-03 1.652748e-03 -2.932951e-01)	3.730000e+02
56            	-2.773596e+02	(4.204826e-03 -4.297542e-03 -2.899277e-01)	3.730000e+02
56.4          	-2.735715e+02	(4.345870e-03 1.602534e-03 -2.851177e-01)	3.730000e+02
56.8          	-2.710726e+02	(4.490018e-03 6.467559e-03 -2.844317e-01)	3.730000e+02
57.2          	-2.678836e+02	(3.185660e-03 2.653267e-03 -2.746746e-01)	3.730000e+02
57.6          	-2.640363e+02	(1.699425e-03 -5.169313e-03 -2.680694e-01)	3.730000e+02
58            	-2.622468e+02	(4.653058e-04 -4.253985e-03 -2.693448e-01)	3.730000e+02
58.4          	-2.622889e+02	(-8.478564e-04 -6.250897e-03 -2.744893e-01)	3.730000e+02
58.8          	-2.608182e+02	(-1.201747e-03 -5.770733e-03 -2.724906e-01)	3.730000e+02
59.2          	-2.590957e+02	(-1.973754e-03 3.618279e-03 -2.766587e-01)	3.730000e+02
59.6          	-2.549365e+02	(-1.116885e-03 -2.977981e-03 -2.716493e-01)	3.730000e+02
60            	-2.511293e+02	(-1.061364e-03 1.395727e-03 -2.679516e-01)	3.730000e+02
60.4          	-2.521250e+02	(-3.909202e-04 6.893546e-03 -2.779220e-01)	3.730000e+02
60.8          	-2.559640e+02	(-1.887020e-03 -3.893821e-03 -2.640055e-01)	3.730000e+02
61.2          	-2.624745e+02	(-4.425177e-03 3.319343e-03 -2.609875e-01)	3.730000e+02
61.6          	-2.693181e+02	(-8.949264e-03 -3.826329e-03 -2.704205e-01)	3.730000e+02
62            	-2.780939e+02	(-1.274309e-02 -5.614974e-03 -2.810292e-01)	3.730000e+02
62.4          	-2.817597e+02	(-1.307221e-02 1.180697e-03 -2.851997e-01)	3.730000e+02
62.8          	-2.767472e+02	(-9.971025e-03 1.934476e-03 -2.857266e-01)	3.730000e+02
63.2          	-2.725367e+02	(-8.964016e-03 -3.699817e-03 -2.865370e-01)	3.730000e+02
63.6          	-2.709640e+02	(-9.513329e-03 -1.048787e-02 -2.787546e-01)	3.730000e+02
64            	-2.651536e+02	(-6.809263e-03 2.697900e-03 -2.745439e-01)	3.730000e+02
64.4          	-2.694154e+02	(-1.579465e-03 5.707189e-04 -2.757454e-01)	3.730000e+02
64.8          	-2.752770e+02	(4.236474e-04 -1.629893e-03 -2.786877e-01)	3.730000e+02
65.2          	-2.750825e+02	(9.057646e-04 -3.576317e-03 -2.780100e-01)	3.730000e+02
65.6          	-2.675923e+02	(-2.650501e-03 2.397768e-03 -2.677889e-01)	3.730000e+02
66            	-2.613157e+02	(-2.719382e-03 4.421303e-03 -2.706206e-01)	3.730000e+02
66.4          	-2.601141e+02	(-1.102236e-03 3.550902e-03 -2.612648e-01)	3.730000e+02
66.8          	-2.612759e+02	(-8.726437e-04 1.586347e-03 -2.661393e-01)	3.730000e+02
67.2          	-2.625191e+02	(-1.290089e-03 -1.578397e-03 -2.638093e-01)	3.730000e+02
67.6          	-2.629524e+02	(-9.909022e-04 -7.096421e-04 -2.662673e-01)	3.730000e+02
68            	-2.634767e+02	(-2.008860e-03 9.729898e-04 -2.759208e-01)	3.730000e+02
68.4          	-2.611351e+02	(1.473601e-03 -7.299683e-04 -2.656421e-01)	3.730000e+02
68.8          	-2.645490e+02	(6.349600e-03 5.736385e-04 -2.791245e-01)	3.730000e+02
69.2          	-2.597340e+02	(7.124884e-04 -3.344442e-03 -2.785773e-01)	3.730000e+02
69.6          	-2.582652e+02	(5.088849e-03 -2.008706e-03 -2.743574e-01)	3.730000e+02
70            	-2.606890e+02	(2.244427e-03 2.114335e-03 -2.684447e-01)	3.730000e+02
70.4          	-2.651912e+02	(-1.522248e-03 7.416490e-04 -2.657802e-01)	3.730000e+02
70.8          	-2.690726e+02	(-3.396210e-04 5.838221e-04 -2.733458e-01)	3.730000e+02
71.2          	-2.685773e+02	(2.876958e-03 -6.754732e-03 -2.807068e-01)	3.730000e+02
71.6          	-2.681976e+02	(4.048328e-03 1.458683e-03 -2.713533e-01)	3.730000e+02
72            	-2.627037e+02	(2.217754e-03 -3.819811e-03 -2.576363e-01)	3.730000e+02
72.4          	-2.621570e+02	(6.670400e-04 -2.031504e-03 -2.710455e-01)	3.730000e+02
72.8          	-2.626718e+02	(-1.467775e-03 -7.251435e-04 -2.685971e-01)	3.730000e+02
73.2          	-2.636994e+02	(-1.599725e-03 1.700255e-03 -2.717813e-01)	3.730000e+02
73.6          	-2.634770e+02	(-1.581423e-03 -2.004994e-03 -2.737297e-01)	3.730000e+02
74            	-2.654957e+02	(4.688921e-04 1.229787e-03 -2.776763e-01)	3.730000e+02
74.4          	-2.656475e+02	(-6.923752e-04 -4.833915e-03 -2.807658e-01)	3.730000e+02
74.8          	-2.649340e+02	(-5.948245e-04 1.513335e-03 -2.823503e-01)	3.730000e+02
75.2          	-2.631083e+02	(-1.227945e-03 -4.894272e-03 -2.830949e-01)	3.730000e+02
75.6          	-2.569680e+02	(-1.598711e-03 5.467903e-03 -2.777215e-01)	3.730000e+02
76            	-2.569142e+02	(-3.708510e-03 -3.946390e-03 -2.719795e-01)	3.730000e+02
76.4          	-2.572811e+02	(-5.577257e-03 -8.664809e-04 -2.687908e-01)	3.730000e+02
76.8          	-2.621281e+02	(-7.732758e-03 -6.201410e-04 -2.757180e-01)	3.730000e+02
77.2          	-2.648759e+02	(-5.609429e-03 8.363194e-04 -2.786273e-01)	3.730000e+02
77.6          	-2.632807e+02	(-1.502762e-03 2.293198e-03 -2.813117e-01)	3.730000e+02
78            	-2.598857e+02	(-8.704044e-04 -3.418962e-03 -2.707012e-01)	3.730000e+02
78.4          	-2.580071e+02	(-3.228497e-04 -2.243319e-03 -2.729919e-01)	3.730000e+02
78.8          	-2.588027e+02	(3.800834e-04 -5.431992e-03 -2.727913e-01)	3.730000e+02
79.2          	-2.585927e+02	(6.711698e-04 -2.666003e-03 -2.731936e-01)	3.730000e+02
79.6          	-2.594291e+02	(9.151278e-04 -2.203335e-03 -2.770305e-01)	3.730000e+02
80            	-2.618755e+02	(-9.198528e-04 -1.955723e-03 -2.770343e-01)	3.730000e+02
80.4          	-2.575472e+02	(4.614788e-04 -3.382124e-03 -2.759948e-01)	3.730000e+02
80.8          	-2.575045e+02	(5.100779e-03 1.713511e-03 -2.681406e-01)	3.730000e+02
81.2          	-2.644166e+02	(4.091976e-03 1.412207e-03 -2.767027e-01)	3.730000e+02
81.6          	-2.651893e+02	(6.595687e-03 -6.026933e-03 -2.810200e-01)	3.730000e+02
82            	-2.598488e+02	(5.389175e-03 -1.006115e-02 -2.667971e-01)	3.730000e+02
82.4          	-2.530846e+02	(3.567398e-03 -1.995603e-03 -2.695009e-01)	3.730000e+02
82.8          	-2.528520e+02	(2.894031e-03 2.194275e-03 -2.753567e-01)	3.730000e+02
83.2          	-2.520701e+02	(1.878346e-03 1.117150e-02 -2.372097e-01)	3.730000e+02
83.6          	-2.523700e+02	(1.523441e-03 3.155009e-03 -2.762820e-01)	3.730000e+02
84            	-2.529145e+02	(1.236348e-03 4.487140e-03 -2.573704e-01)	3.730000e+02
84.4          	-2.551384e+02	(1.544117e-03 -1.572130e-03 -2.657826e-01)	3.730000e+02
84.8          	-2.553576e+02	(1.438491e-03 -3.876413e-03 -2.754487e-01)	3.730000e+02
85.2          	-2.515827e+02	(1.935777e-03 1.315282e-03 -2.652568e-01)	3.730000e+02
85.6          	-2.485808e+02	(1.355363e-03 5.498733e-03 -2.642151e-01)	3.730000e+02
86            	-2.476939e+02	(1.080741e-03 7.296062e-03 -2.648806e-01)	3.730000e+02
86.4          	-2.468226e+02	(5.758964e-04 1.409711e-03 -2.616037e-01)	3.730000e+02
86.8          	-2.489795e+02	(5.664328e-05 -2.489935e-03 -2.651047e-01)	3.730000e+02
87.2          	-2.545925e+02	(-5.094146e-03 7.165135e-04 -2.735116e-01)	3.730000e+02
87.6          	-2.621388e+02	(-7.626678e-03 -2.480491e-03 -2.792009e-01)	3.730000e+02
88            	-2.654582e+02	(-9.258098e-03 3.855401e-04 -2.834719e-01)	3.730000e+02
88.4          	-2.649453e+02	(-9.133386e-03 -1.975529e-03 -2.781723e-01)	3.730000e+02
88.8          	-2.623116e+02	(-7.784641e-03 2.262537e-03 -2.744809e-01)	3.730000e+02
89.2          	-2.598935e+02	(-7.166057e-03 3.496354e-03 -2.653556e-01)	3.730000e+02
89.6          	-2.622981e+02	(-5.026163e-03 1.059319e-03 -2.719603e-01)	3.730000e+02
90            	-2.613464e+02	(-4.780521e-03 2.933854e-03 -2.663557e-01)	3.730000e+02
90.4          	-2.616596e+02	(-4.936000e-03 1.004572e-03 -2.723322e-01)	3.730000e+02
90.8          	-2.597143e+02	(-5.033607e-03 6.284399e-03 -2.724766e-01)	3.730000e+02
91.2          	-2.674986e+02	(1.314709e-03 -8.542472e-04 -2.745310e-01)	3.730000e+02
91.6          	-2.780648e+02	(3.843785e-03 -1.496173e-03 -2.866163e-01)	3.730000e+02
92            	-2.712510e+02	(2.907666e-03 4.034236e-03 -2.680635e-01)	3.730000e+02
92.4          	-2.612841e+02	(2.218601e-03 -1.793530e-03 -2.667072e-01)	3.730000e+02
92.8          	-2.545762e+02	(4.131356e-03 -3.613762e-03 -2.646311e-01)	3.730000e+02
93.2          	-2.560506e+02	(6.868242e-03 -3.067783e-03 -2.648089e-01)	3.730000e+02
93.6          	-2.597456e+02	(9.411461e-03 2.654690e-03 -2.744124e-01)	3.730000e+02
94            	-2.568383e+02	(6.341681e-03 4.787358e-03 -2.680674e-01)	3.730000e+02
94.4          	-2.517979e+02	(4.588244e-03 5.249813e-03 -2.606666e-01)	3.730000e+02
94.8          	-2.502935e+02	(3.604389e-03 -2.672885e-03 -2.572323e-01)	3.730000e+02
95.2          	-2.497266e+02	(2.272056e-03 -2.817623e-03 -2.766569e-01)	3.730000e+02
95.6          	-2.497290e+02	(1.679113e-03 -1.058129e-02 -2.345916e-01)	3.730000e+02
96            	-2.483651e+02	(1.320775e-03 4.701656e-03 -2.499862e-01)	3.730000e+02
96.4          	-2.470959e+02	(1.042371e-03 2.859279e-03 -2.792973e-01)	3.730000e+02
96.8          	-2.467910e+02	(1.079121e-03 1.291622e-02 -2.477048e-01)	3.730000e+02
97.2          	-2.429598e+02	(4.249663e-04 -2.509276e-03 -2.519350e-01)	3.730000e+02
97.6          	-2.427089e+02	(1.459589e-03 1.173515e-03 -2.555105e-01)	3.730000e+02
98            	-2.462512e+02	(1.809215e-03 1.790812e-03 -2.672061e-01)	3.730000e+02
98.4          	-2.501885e+02	(5.630722e-04 2.252875e-03 -2.694339e-01)	3.730000e+02
98.8          	-2.491632e+02	(-1.045742e-04 1.503789e-03 -2.654767e-01)	3.730000e+02
99.2          	-2.516424e+02	(-1.085136e-03 4.258693e-03 -2.715404e-01)	3.730000e+02
99.6          	-2.561112e+02	(-2.201994e-03 3.286017e-03 -2.677182e-01)	3.730000e+02
100           	-2.548704e+02	(-4.502762e-04 2.046070e-03 -2.687486e-01)	3.730000e+02
