/*--------------------------------*- C++ -*----------------------------------*\
| =========                 |                                                 |
| \\      /  F ield         | OpenFOAM: The Open Source CFD Toolbox           |
|  \\    /   O peration     | Version:  v1906                                 |
|   \\  /    A nd           | Web:      www.OpenFOAM.com                      |
|    \\/     M anipulation  |                                                 |
\*---------------------------------------------------------------------------*/
FoamFile
{
    version     2.0;
    format      ascii;
    class       volScalarField;
    location    "96.8";
    object      k;
}
// * * * * * * * * * * * * * * * * * * * * * * * * * * * * * * * * * * * * * //

dimensions      [0 2 -2 0 0 0 0];


internalField   nonuniform List<scalar> 
630
(
0.000359511
0.00042077
0.000270957
0.000383557
0.000368111
0.000417936
0.00027462
0.000380613
0.000376434
0.000415118
0.000278707
0.000378333
0.000384494
0.000412377
0.000283194
0.000376765
0.000392328
0.000409766
0.000288056
0.000375939
0.000399982
0.000407338
0.000293273
0.000375855
0.00040751
0.000405139
0.000298831
0.000376491
0.000414972
0.000403203
0.000304726
0.000377809
0.000422428
0.000401555
0.000310953
0.000379757
0.000429935
0.000400211
0.000317517
0.000382277
0.000437546
0.000399173
0.000324425
0.000385305
0.000445307
0.000398437
0.000331683
0.000388774
0.000453256
0.000397994
0.000339295
0.000392617
0.000461424
0.000397839
0.000347268
0.000396769
0.000469831
0.000397975
0.000355613
0.000401167
0.000478484
0.000398417
0.000364339
0.000405753
0.000487371
0.000399186
0.000373454
0.000410474
0.000496457
0.000400306
0.000382959
0.00041528
0.000505695
0.000401807
0.000392844
0.000420129
0.000515131
0.000403722
0.000403094
0.000424982
0.000525234
0.000406092
0.000413681
0.000429802
0.000536395
0.000408959
0.00042457
0.000434559
0.000547468
0.000412365
0.000435716
0.000439227
0.000556387
0.00041635
0.000447066
0.000443783
0.000562799
0.000420944
0.000458561
0.0004482
0.000567972
0.000426166
0.000470137
0.000452451
0.000572997
0.000432018
0.000481728
0.000456499
0.000578052
0.000438495
0.000493267
0.000460312
0.000583113
0.000445591
0.000504688
0.000463857
0.000588101
0.00045331
0.00051593
0.000467109
0.000592953
0.000461656
0.000526936
0.000470051
0.000597619
0.000470623
0.000537655
0.000472667
0.000602044
0.000480194
0.000548046
0.000474941
0.000606175
0.000490339
0.000558072
0.000476857
0.00060996
0.000501008
0.000567704
0.000478398
0.000613351
0.000512138
0.00057692
0.000479542
0.000616309
0.000523654
0.0005857
0.00048026
0.000618791
0.000535488
0.000594026
0.000480521
0.000620758
0.000547584
0.000601885
0.00048029
0.000622167
0.000559895
0.000609257
0.000479535
0.000622971
0.000572378
0.000616127
0.000478221
0.000623119
0.000584981
0.000622472
0.000476314
0.000622562
0.000597651
0.000628265
0.000473776
0.000621244
0.000610322
0.000633471
0.000470568
0.000619109
0.000622922
0.000638048
0.000466645
0.000616096
0.000635368
0.000641944
0.000461958
0.000612139
0.000647571
0.000645094
0.000456455
0.000607166
0.000659429
0.000647423
0.000450076
0.000601098
0.00067083
0.000648839
0.000442756
0.000593847
0.000681656
0.000649234
0.000434424
0.000585315
0.000691791
0.00064848
0.000425002
0.000575388
0.00070111
0.000646402
0.000414404
0.000563938
0.000709434
0.000642803
0.000402536
0.00055082
0.000716514
0.000637432
0.000389301
0.000535867
0.000722029
0.000630012
0.000374593
0.000518896
0.000725567
0.000620235
0.000358306
0.000499714
0.000726611
0.000607756
0.000340338
0.000478116
0.000724557
0.0005922
0.000320597
0.0004539
0.000718743
0.000573161
0.000299019
0.000426879
0.00070844
0.000550217
0.000275592
0.000396897
0.000692847
0.000522953
0.00025038
0.000363862
0.000671102
0.000490994
0.00022357
0.00032772
0.000642304
0.000454063
0.000195515
0.000288721
0.000605582
0.000412053
0.000166779
0.000247519
0.000560198
0.000365116
0.000138153
0.00020525
0.000505706
0.000313567
0.000110616
0.000163552
0.000442188
0.000258747
8.52231e-05
0.000124417
0.000370355
0.000203189
6.29233e-05
8.98204e-05
0.000293073
0.000150383
4.43644e-05
6.12315e-05
0.000215866
0.000104032
2.97659e-05
3.92394e-05
0.000145871
6.68935e-05
1.89205e-05
2.35027e-05
8.94092e-05
3.98487e-05
1.13123e-05
1.30246e-05
4.92936e-05
2.18952e-05
6.28294e-06
6.55255e-06
2.4166e-05
1.09685e-05
3.17328e-06
2.89041e-06
1.02541e-05
4.87429e-06
1.40525e-06
1.05024e-06
3.54576e-06
1.81388e-06
5.12471e-07
2.87339e-07
8.90724e-07
5.09858e-07
1.4192e-07
9.52557e-08
1.93366e-07
1.41973e-07
5.26164e-08
3.89886e-07
5.85334e-07
4.60614e-07
2.32583e-07
0.000219889
0.000246672
0.000185916
0.000101182
0.000224629
0.000258069
0.000191398
9.4679e-05
0.000230712
0.000268606
0.000197368
9.04836e-05
0.000237947
0.000278285
0.000203728
8.87345e-05
0.000246154
0.000287171
0.00021039
8.94204e-05
0.000255161
0.000295377
0.000217275
9.23716e-05
0.000264811
0.000302981
0.000224312
9.74136e-05
0.000274948
0.00031007
0.000231443
0.000104645
0.000285411
0.000316723
0.000238616
0.000114027
0.000296356
0.000323015
0.000245793
0.00012512
0.000308059
0.000329014
0.000252943
0.000137315
0.000320284
0.000334791
0.000260042
0.000149949
0.000332578
0.000340415
0.000267079
0.00016248
0.000344636
0.000345956
0.00027405
0.000174781
0.000356428
0.000351475
0.000280978
0.000187212
0.000368085
0.000357028
0.000287899
0.000200095
0.00037977
0.000362659
0.000294828
0.000213342
0.000391569
0.0003684
0.000301773
0.000226521
0.000403474
0.000374274
0.000308759
0.000239444
0.000415442
0.000380295
0.000315832
0.000252418
0.000427435
0.000386482
0.000323051
0.000265629
0.000439436
0.000392862
0.000330456
0.000279063
0.000451432
0.000399478
0.00033803
0.000293203
0.000463401
0.000406369
0.000345674
0.000309006
0.000475298
0.000413534
0.000353246
0.000326646
0.000487056
0.000420902
0.000360637
0.000344728
0.00049859
0.000428311
0.000367805
0.000361205
0.000509804
0.000435541
0.000374757
0.00037491
0.000520602
0.000442381
0.000381513
0.000386762
0.000530898
0.000448698
0.000388086
0.000398353
0.000540621
0.000454467
0.000394478
0.000410236
0.000549722
0.000459765
0.000400675
0.000422719
0.000558178
0.000464715
0.000406654
0.000436337
0.000565994
0.000469433
0.000412393
0.000451216
0.000573194
0.000473982
0.000417857
0.000466184
0.000579817
0.000478357
0.000422995
0.000478991
0.000585898
0.000482483
0.000427753
0.000488236
0.00059147
0.000486236
0.000432075
0.000494453
0.000596557
0.000489498
0.000435902
0.00049909
0.000601162
0.000492177
0.000439172
0.000503398
0.000605276
0.000494216
0.000441817
0.000507821
0.000608876
0.000495577
0.000443766
0.000512377
0.000611928
0.000496231
0.000444944
0.000516996
0.000614382
0.000496139
0.00044527
0.000521563
0.000616179
0.000495251
0.000444662
0.000525813
0.000617244
0.0004935
0.000443033
0.000529314
0.000617488
0.000490806
0.000440291
0.000531569
0.00061681
0.000487078
0.000436344
0.000532216
0.000615093
0.000482215
0.000431097
0.000531109
0.000612206
0.000476108
0.000424454
0.000528245
0.000608
0.000468641
0.000416304
0.00052363
0.000602311
0.000459687
0.000406497
0.000517198
0.000594957
0.000449099
0.000394911
0.000508788
0.000585734
0.000436735
0.000381436
0.000498161
0.000574413
0.000422453
0.000365981
0.000485065
0.000560742
0.000406118
0.000348478
0.00046925
0.000544452
0.00038761
0.000328882
0.000450496
0.000525266
0.000366831
0.000307186
0.000428618
0.000502901
0.000343719
0.000283438
0.000403482
0.000477093
0.000318266
0.000257758
0.000375021
0.000447618
0.000290532
0.000230334
0.000343266
0.000414334
0.000260671
0.000201333
0.000308387
0.000377221
0.00022887
0.000171323
0.000270758
0.000336363
0.000195716
0.000141216
0.000230877
0.000292029
0.000162197
0.000112177
0.00018995
0.000245224
0.000129604
8.54766e-05
0.000149781
0.000197709
9.93831e-05
6.2243e-05
0.000112473
0.000151885
7.28575e-05
4.31973e-05
7.99957e-05
0.000110408
5.09217e-05
2.85072e-05
5.36772e-05
7.55208e-05
3.38518e-05
1.78292e-05
3.38681e-05
4.83967e-05
2.13336e-05
1.04987e-05
1.99964e-05
2.89126e-05
1.26629e-05
5.74874e-06
1.09376e-05
1.59535e-05
6.99297e-06
2.86374e-06
5.43369e-06
7.97974e-06
3.51556e-06
1.24951e-06
2.36357e-06
3.49143e-06
1.54911e-06
4.45954e-07
8.41501e-07
1.25011e-06
5.5877e-07
1.14386e-07
2.16486e-07
3.24023e-07
1.45004e-07
1.98254e-08
4.23105e-08
6.54233e-08
2.57956e-08
3.50144e-08
1.02937e-07
1.64761e-07
4.82427e-08
)
;

boundaryField
{
    leftWall
    {
        type            kqRWallFunction;
        value           nonuniform 0();
    }
    rightWall
    {
        type            kqRWallFunction;
        value           nonuniform List<scalar> 8(3.89886e-07 3.50144e-08 5.85334e-07 1.02937e-07 4.60614e-07 1.64761e-07 2.32583e-07 4.82427e-08);
    }
    leftSides_periodic0
    {
        type            cyclic;
    }
    leftSides_periodic1
    {
        type            cyclic;
    }
    rightSides_periodic0
    {
        type            cyclic;
    }
    rightSides_periodic1
    {
        type            cyclic;
    }
    leftInOut_periodic0
    {
        type            cyclic;
    }
    leftInOut_periodic1
    {
        type            cyclic;
    }
    rightInOut_periodic0
    {
        type            cyclic;
    }
    rightInOut_periodic1
    {
        type            cyclic;
    }
    procBoundary3to1
    {
        type            processor;
        value           nonuniform List<scalar> 
316
(
6.55079e-05
8.33015e-05
0.000192967
0.000174438
6.3604e-05
9.14852e-05
0.000198027
0.000180403
6.33365e-05
9.93485e-05
0.000203865
0.000187731
6.50237e-05
0.00010683
0.000210394
0.000196203
6.87609e-05
0.000113911
0.00021754
0.00020561
7.4403e-05
0.000120597
0.000225235
0.000215765
8.16743e-05
0.000126913
0.000233423
0.0002265
9.025e-05
0.000132895
0.000242055
0.000237666
9.9811e-05
0.000138579
0.000251084
0.000249129
0.000110089
0.000144006
0.000260469
0.000260773
0.000120874
0.000149213
0.000270161
0.000272492
0.000132009
0.00015424
0.000280122
0.00028419
0.000143374
0.000159123
0.000290328
0.000295786
0.00015488
0.000163897
0.000300755
0.000307203
0.000166459
0.000168596
0.000311374
0.000318376
0.000178058
0.000173253
0.000322146
0.000329249
0.000189633
0.000177899
0.000333035
0.000339772
0.000201147
0.000182564
0.000344007
0.000349904
0.000212567
0.000187277
0.000355033
0.00035961
0.000223817
0.000192065
0.000366081
0.000368862
0.000234773
0.000196955
0.000377123
0.000377639
0.000245332
0.000201969
0.000388131
0.000385925
0.000255423
0.000207129
0.000399078
0.000393708
0.000265005
0.00021246
0.00040994
0.000400982
0.000274072
0.000217982
0.000420693
0.000407745
0.000282639
0.000223707
0.000431316
0.000413997
0.00029072
0.000229643
0.00044179
0.000419741
0.000298317
0.000235792
0.000452096
0.000424985
0.000305428
0.000242156
0.000462218
0.000429736
0.000312055
0.00024873
0.000472141
0.000434007
0.000318211
0.000255505
0.000481851
0.000437808
0.000323906
0.000262466
0.000491338
0.000441155
0.000329136
0.000269593
0.000500607
0.000444062
0.000333898
0.000276855
0.000509649
0.000446545
0.000338196
0.000284217
0.000518408
0.000448622
0.000342031
0.000291635
0.000526811
0.000450307
0.000345411
0.000299057
0.000534791
0.000451611
0.000348346
0.000306428
0.000542279
0.000452543
0.000350844
0.000313691
0.000549199
0.000453108
0.000352917
0.000320787
0.000555481
0.000453309
0.000354574
0.000327664
0.000561057
0.00045314
0.000355822
0.00033427
0.000565865
0.000452593
0.000356663
0.000340559
0.000569842
0.000451653
0.000357099
0.00034649
0.000572925
0.000450299
0.00035712
0.000352029
0.000575046
0.000448501
0.000356712
0.000357135
0.000576135
0.000446225
0.00035585
0.000361738
0.000576114
0.000443424
0.000354501
0.000365698
0.000574894
0.000440044
0.000352614
0.000368839
0.000572379
0.00043602
0.000350127
0.000370969
0.000568459
0.000431275
0.000346966
0.000371893
0.000563011
0.000425717
0.000343018
0.000371442
0.000555897
0.000419223
0.00033815
0.000369448
0.00054696
0.000411593
0.00033219
0.000365727
0.000536017
0.000402581
0.000324944
0.000360092
0.000522869
0.000391946
0.000316201
0.000352353
0.000507314
0.000379457
0.000305754
0.000342328
0.000489152
0.000364907
0.000293402
0.000329851
0.000468195
0.000348114
0.000278973
0.000314779
0.000444276
0.000328935
0.000262334
0.000297013
0.000417276
0.000307282
0.000243414
0.000276519
0.000387139
0.000283155
0.000222232
0.000253364
0.000353914
0.000256666
0.000198926
0.000227738
0.000317791
0.000228054
0.000173718
0.000199968
0.000279143
0.000197594
0.000147169
0.000170447
0.0002384
0.000166035
0.000120249
0.000140196
0.000196681
0.000134549
9.42071e-05
0.000110618
0.000155717
0.00010458
7.0377e-05
8.32643e-05
0.000117555
7.75935e-05
4.99019e-05
5.95121e-05
8.41391e-05
5.47529e-05
3.34605e-05
4.02345e-05
5.68233e-05
3.66412e-05
2.1138e-05
2.56306e-05
3.60368e-05
2.31819e-05
1.25085e-05
1.52938e-05
2.13094e-05
1.37868e-05
6.85859e-06
8.45523e-06
1.1598e-05
7.62123e-06
3.41538e-06
4.24544e-06
5.67653e-06
3.83616e-06
1.49057e-06
1.86869e-06
2.40085e-06
1.696e-06
5.35976e-07
6.77855e-07
8.20804e-07
6.18916e-07
1.475e-07
1.87407e-07
2.08239e-07
1.72761e-07
5.90517e-08
7.09572e-08
7.31185e-08
6.76806e-08
2.76009e-07
3.15691e-07
3.62002e-07
3.06966e-07
)
;
    }
    procBoundary3to1throughrightSides_periodic1
    {
        type            processorCyclic;
        value           nonuniform List<scalar> 
314
(
0.000299652
0.000306701
0.000314221
0.000322156
0.000330445
0.000339027
0.000347837
0.000356816
0.000365907
0.000375058
0.000384226
0.000393369
0.000402454
0.000411448
0.000420323
0.000429055
0.000437622
0.000446004
0.000454185
0.000462151
0.000469893
0.000477408
0.000484697
0.000491765
0.000498619
0.000505269
0.000511723
0.00051799
0.000524078
0.000529996
0.000535754
0.000541365
0.000546842
0.000552201
0.000557453
0.000562596
0.000567615
0.000572469
0.000577089
0.000581395
0.000585295
0.000588689
0.000591471
0.000593525
0.000594728
0.000594949
0.000594046
0.000591867
0.000588251
0.000583027
0.000576014
0.000567018
0.000555812
0.000542126
0.000525714
0.000506351
0.000483845
0.000458045
0.000428866
0.000396316
0.000360536
0.000321839
0.000280742
0.00023782
0.000194294
0.00015212
0.000113515
8.04111e-05
5.39326e-05
3.41665e-05
2.03434e-05
1.12624e-05
5.67808e-06
2.51166e-06
9.11417e-07
2.41242e-07
5.54341e-08
1.67704e-07
0.000466991
0.000463801
0.00046036
0.000456696
0.000452845
0.000448867
0.000444838
0.000440855
0.00043703
0.000433489
0.000430368
0.000427806
0.000425936
0.000424876
0.000424725
0.000425564
0.000427456
0.000430445
0.000434556
0.000439789
0.000446129
0.000453547
0.000462
0.000471441
0.000481814
0.000493062
0.000505112
0.000517867
0.0005312
0.000544971
0.000559032
0.000573239
0.00058745
0.000601576
0.000615545
0.000629201
0.000642446
0.000655328
0.000667898
0.000680155
0.000692027
0.000703396
0.000714141
0.000724152
0.000733335
0.000741598
0.000748839
0.000754935
0.00075974
0.00076308
0.000764757
0.000764542
0.000762181
0.00075738
0.000749811
0.000739098
0.000724812
0.000706469
0.000683545
0.000655492
0.000621762
0.000581866
0.000535449
0.0004824
0.000422903
0.000357419
0.000288123
0.00021895
0.000155062
0.000101406
6.0845e-05
3.32748e-05
1.63565e-05
7.00323e-06
2.44886e-06
6.17611e-07
1.15459e-07
2.64001e-07
0.000185387
0.000190078
0.000195037
0.000200242
0.000205677
0.000211341
0.000217241
0.000223389
0.000229804
0.000236504
0.000243508
0.000250839
0.000258514
0.000266541
0.000274919
0.000283629
0.000292649
0.000301946
0.000311485
0.000321225
0.00033112
0.000341122
0.00035118
0.000361242
0.000371254
0.000381166
0.000390924
0.00040048
0.000409778
0.000418775
0.000427441
0.000435694
0.000443408
0.000450524
0.000457093
0.000463215
0.000468978
0.000474432
0.000479597
0.000484481
0.00048908
0.000493386
0.000497378
0.000501025
0.000504279
0.000507078
0.00050934
0.000510965
0.000511829
0.000511788
0.000510678
0.000508313
0.000504491
0.000498981
0.000491511
0.000481796
0.000469542
0.000454457
0.000436262
0.000414704
0.000389582
0.000360787
0.00032835
0.000292495
0.000253611
0.000212367
0.00017039
0.000129967
9.35932e-05
6.33036e-05
4.00703e-05
2.36386e-05
1.28837e-05
6.3685e-06
2.75501e-06
9.75859e-07
2.51008e-07
5.3417e-08
1.50608e-07
0.000334437
0.000334906
0.00033557
0.000336648
0.000338169
0.000340123
0.000342464
0.000345122
0.000348014
0.000351055
0.000354165
0.000357269
0.0003603
0.000363203
0.000365934
0.00036846
0.000370756
0.000372808
0.000374611
0.000376163
0.000377474
0.000378555
0.000379423
0.0003801
0.00038061
0.000380981
0.00038124
0.000381412
0.000381518
0.000381574
0.000381595
0.000381589
0.000381545
0.000381428
0.000381176
0.000380713
0.000379967
0.000378886
0.000377439
0.000375612
0.000373396
0.000370779
0.000367735
0.000364229
0.000360214
0.000355635
0.000350432
0.000344527
0.000337785
0.000330062
0.000321246
0.000311252
0.000300014
0.000287487
0.000273636
0.00025845
0.000241945
0.000224167
0.000205209
0.000185218
0.000164406
0.000143008
0.000121388
0.000100181
8.01209e-05
6.19222e-05
4.61474e-05
3.31091e-05
2.28321e-05
1.50949e-05
9.522e-06
5.68288e-06
3.16395e-06
1.60589e-06
7.15072e-07
2.61192e-07
6.99938e-08
1.79234e-08
6.14224e-08
)
;
    }
    procBoundary3to2
    {
        type            processor;
        value           nonuniform List<scalar> 
11
(
0.000350754
0.000423503
0.000267781
0.000387122
0.000216713
0.000234572
0.000181027
0.000109754
0.000181027
0.000109754
0.000109754
)
;
    }
    procBoundary3to2throughrightInOut_periodic0
    {
        type            processorCyclic;
        value           uniform 0.000181027;
    }
}


// ************************************************************************* //
