/*--------------------------------*- C++ -*----------------------------------*\
| =========                 |                                                 |
| \\      /  F ield         | OpenFOAM: The Open Source CFD Toolbox           |
|  \\    /   O peration     | Version:  v1906                                 |
|   \\  /    A nd           | Web:      www.OpenFOAM.com                      |
|    \\/     M anipulation  |                                                 |
\*---------------------------------------------------------------------------*/
FoamFile
{
    version     2.0;
    format      ascii;
    class       surfaceScalarField;
    location    "96.8";
    object      phi;
}
// * * * * * * * * * * * * * * * * * * * * * * * * * * * * * * * * * * * * * //

dimensions      [1 0 -1 0 0 0 0];
oriented        oriented;


internalField   nonuniform List<scalar> 
1408
(
6.4072e-06
0.0018558
1.9175e-05
0.00173858
-2.14795e-05
0.00203011
-0.000589416
-0.00384604
-0.000521356
5.80066e-06
0.00185315
-0.000536551
2.04497e-05
0.00175033
-0.000545234
-1.68836e-05
0.00207273
-0.000578391
-0.00386419
-0.000509017
5.15934e-06
0.00184785
-0.00052512
2.16397e-05
0.0017592
-0.000536266
-1.23012e-05
0.00211123
-0.000567378
-0.00387677
-0.000496924
4.46666e-06
0.0018403
-0.000513847
2.23206e-05
0.00176538
-0.000527061
-7.77664e-06
0.00214516
-0.000556432
-0.00388388
-0.000485125
3.72357e-06
0.00183089
-0.000502738
2.3336e-05
0.0017683
-0.000517663
-3.32349e-06
0.00217492
-0.000545568
-0.00388558
-0.000473622
2.94226e-06
0.00181999
-0.000491797
2.44677e-05
0.00176765
-0.000508129
1.3879e-06
0.00220038
-0.00053479
-0.00388167
-0.000462396
2.12527e-06
0.00180786
-0.000481022
2.56027e-05
0.00176332
-0.000498549
5.81175e-06
0.00222186
-0.000524108
-0.00387244
-0.000451431
1.27403e-06
0.00179477
-0.000470414
2.66953e-05
0.00175532
-0.000488982
9.90537e-06
0.00223967
-0.000513534
-0.00385823
-0.000440715
4.65613e-07
0.00178082
-0.000459971
2.77224e-05
0.00174369
-0.000479372
1.38118e-05
0.00225399
-0.000503101
-0.00383926
-0.000430234
-1.58444e-07
0.00176598
-0.000449691
2.86653e-05
0.00172859
-0.000469678
1.75524e-05
0.00226496
-0.000492788
-0.00381572
-0.000419979
-9.18308e-07
0.00175047
-0.000439572
2.95076e-05
0.00170992
-0.00045995
2.11307e-05
0.00227257
-0.000482512
-0.00378777
-0.000409939
-1.80291e-06
0.00173447
-0.000429611
3.02481e-05
0.00168767
-0.000450281
2.45499e-05
0.00227683
-0.000472244
-0.00375556
-0.000400107
-2.71728e-06
0.00171806
-0.000419805
3.08852e-05
0.00166201
-0.000440771
2.78135e-05
0.00227776
-0.000462041
-0.00371925
-0.000390476
-3.59607e-06
0.00170125
-0.00041015
3.14179e-05
0.00163332
-0.000431525
3.09098e-05
0.00227548
-0.000451981
-0.00367899
-0.000381037
-4.45363e-06
0.00168406
-0.000400647
3.18458e-05
0.00160197
-0.000422599
3.38294e-05
0.00227016
-0.000442103
-0.00363497
-0.000371782
-5.29205e-06
0.0016665
-0.000391292
3.2169e-05
0.00156831
-0.000413951
3.65651e-05
0.00226195
-0.000432401
-0.00358737
-0.000362704
-6.11094e-06
0.00164858
-0.000382076
3.23888e-05
0.00153258
-0.000405473
3.91118e-05
0.00225101
-0.000422849
-0.00353638
-0.000353795
-6.90654e-06
0.0016303
-0.000372994
3.25078e-05
0.00149493
-0.000397092
4.14659e-05
0.00223745
-0.000413428
-0.00348222
-0.00034505
-7.63439e-06
0.00161166
-0.000364061
3.25282e-05
0.00145563
-0.000388857
4.36275e-05
0.00222141
-0.000404128
-0.00342511
-0.000336465
-8.12762e-06
0.0015926
-0.000355308
3.24515e-05
0.00141515
-0.000380839
4.56011e-05
0.00220299
-0.000394949
-0.0033654
-0.00032804
-8.35721e-06
0.00157271
-0.000346666
3.22837e-05
0.00137399
-0.000373012
4.73877e-05
0.00218232
-0.000385892
-0.00330312
-0.000319774
-8.79144e-06
0.00155194
-0.000337947
3.20372e-05
0.00133211
-0.000365319
4.89834e-05
0.00215953
-0.000376958
-0.00323819
-0.000311666
-1.00089e-05
0.00153116
-0.000329087
3.1729e-05
0.00128886
-0.000357777
5.03823e-05
0.00213478
-0.000368143
-0.00317088
-0.000303708
-1.16616e-05
0.00151119
-0.000320308
3.13745e-05
0.00124396
-0.000350374
5.15836e-05
0.00210822
-0.000359443
-0.00310181
-0.000295882
-1.28856e-05
0.00149183
-0.000311836
3.09786e-05
0.0011978
-0.000342952
5.26005e-05
0.00208001
-0.000350857
-0.00303144
-0.000288169
-1.34545e-05
0.00147236
-0.000303646
3.05388e-05
0.0011508
-0.0003353
5.34542e-05
0.00205029
-0.000342384
-0.00296
-0.000280547
-1.36649e-05
0.00145249
-0.00029565
3.00504e-05
0.00110305
-0.000327385
5.41658e-05
0.00201914
-0.000334024
-0.00288777
-0.00027301
-1.3802e-05
0.00143225
-0.000287811
2.95111e-05
0.00105463
-0.000319477
5.47524e-05
0.00198664
-0.00032578
-0.00281503
-0.000265562
-1.39268e-05
0.00141168
-0.000280111
2.89247e-05
0.00100589
-0.000311914
5.52236e-05
0.00195289
-0.000317655
-0.00274195
-0.000258222
-1.40304e-05
0.00139079
-0.000272545
2.82974e-05
0.000957219
-0.000304738
5.55861e-05
0.00191795
-0.000309654
-0.00266868
-0.000251014
-1.41117e-05
0.00136962
-0.000265108
2.76348e-05
0.00090888
-0.000297811
5.58467e-05
0.00188192
-0.000301781
-0.00259534
-0.000243959
-1.41721e-05
0.00134817
-0.000257794
2.6942e-05
0.000861029
-0.000291044
5.60122e-05
0.00184488
-0.000294041
-0.00252202
-0.000237066
-1.42133e-05
0.00132644
-0.000250598
2.6224e-05
0.000813786
-0.000284402
5.60892e-05
0.00180692
-0.000286435
-0.00244879
-0.000230331
-1.42352e-05
0.00130443
-0.000243514
2.54857e-05
0.000767177
-0.000277796
5.60844e-05
0.00176815
-0.000278966
-0.00237575
-0.000223739
-1.42349e-05
0.00128216
-0.00023654
2.47315e-05
0.000721058
-0.000271054
5.60043e-05
0.00172867
-0.000271631
-0.00230299
-0.000217269
-1.42094e-05
0.0012596
-0.000229673
2.39655e-05
0.000675164
-0.00026406
5.58556e-05
0.00168856
-0.000264428
-0.0022306
-0.000210901
-1.41586e-05
0.00123676
-0.00022291
2.31914e-05
0.000629327
-0.000256911
5.56445e-05
0.00164793
-0.000257352
-0.0021587
-0.000204624
-1.40843e-05
0.00121363
-0.000216249
2.2412e-05
0.000583641
-0.000249877
5.53765e-05
0.00160685
-0.000250396
-0.00208737
-0.000198434
-1.39868e-05
0.0011902
-0.000209687
2.16299e-05
0.000538406
-0.000243168
5.50569e-05
0.00156539
-0.000243554
-0.0020167
-0.000192331
-1.38657e-05
0.00116646
-0.00020322
2.08466e-05
0.000493915
-0.000236779
5.46907e-05
0.00152363
-0.000236819
-0.00194675
-0.000186321
-1.37217e-05
0.00114241
-0.000196846
2.00632e-05
0.000450347
-0.000230593
5.42828e-05
0.00148162
-0.000230185
-0.00187756
-0.000180404
-1.35556e-05
0.00111802
-0.00019056
1.92809e-05
0.000407793
-0.000224525
5.38378e-05
0.00143941
-0.000223646
-0.00180918
-0.000174581
-1.33674e-05
0.00109329
-0.000184359
1.85004e-05
0.000366311
-0.00021854
5.336e-05
0.00139705
-0.000217194
-0.00174163
-0.000168848
-1.31565e-05
0.0010682
-0.000178241
1.77228e-05
0.000325944
-0.000212617
5.28533e-05
0.00135458
-0.000210822
-0.00167493
-0.0001632
-1.2922e-05
0.00104272
-0.000172202
1.69488e-05
0.000286703
-0.000206727
5.23218e-05
0.00131203
-0.000204524
-0.0016091
-0.000157631
-1.26631e-05
0.00101684
-0.000166238
1.6179e-05
0.000248573
-0.000200831
5.17689e-05
0.00126944
-0.000198294
-0.00154414
-0.000152137
-1.2379e-05
0.000990538
-0.000160346
1.54137e-05
0.000211529
-0.000194911
5.11981e-05
0.00122682
-0.000192124
-0.00148005
-0.000146712
-1.20689e-05
0.000963783
-0.000154523
1.46529e-05
0.000175568
-0.000188976
5.06124e-05
0.00118421
-0.000186008
-0.00141682
-0.000141352
-1.17315e-05
0.000936553
-0.000148765
1.3893e-05
0.000140734
-0.000183057
5.00137e-05
0.00114161
-0.000179939
-0.00135443
-0.000136051
-1.13594e-05
0.000908816
-0.000143066
1.31173e-05
0.000107121
-0.00017718
4.93994e-05
0.00109903
-0.000173909
-0.00129287
-0.000130806
-1.09407e-05
0.000880525
-0.000137423
1.23013e-05
7.48701e-05
-0.000171352
4.87735e-05
0.00105645
-0.00016791
-0.0012321
-0.000125611
-1.04738e-05
0.000851633
-0.000131828
1.14375e-05
4.41254e-05
-0.000165562
4.81422e-05
0.00101381
-0.000161929
-0.00117208
-0.00012046
-9.96307e-06
0.000822102
-0.000126271
1.05437e-05
1.49974e-05
-0.000159788
4.75004e-05
0.000971099
-0.000155954
-0.00111277
-0.000115346
-9.40659e-06
0.00079189
-0.000120742
9.63436e-06
-1.24263e-05
-0.000154008
4.68478e-05
0.000928319
-0.000149975
-0.00105411
-0.00011026
-8.80452e-06
0.000760969
-0.000115236
8.71088e-06
-3.80672e-05
-0.000148202
4.61882e-05
0.000885463
-0.000143981
-0.000996046
-0.000105197
-8.16549e-06
0.000729325
-0.000109748
7.77345e-06
-6.1859e-05
-0.000142353
4.55198e-05
0.000842528
-0.000137962
-0.000938513
-0.00010015
-7.49533e-06
0.000696957
-0.00010427
6.82198e-06
-8.3742e-05
-0.000136451
4.48405e-05
0.000799511
-0.000131907
-0.000881465
-9.51126e-05
-6.78923e-06
0.000663866
-9.87964e-05
5.85188e-06
-0.000103645
-0.00013049
4.41469e-05
0.000756408
-0.000125804
-0.000824856
-9.0078e-05
-6.03719e-06
0.000630053
-9.33202e-05
4.85691e-06
-0.000121479
-0.000124461
4.34343e-05
0.000713208
-0.000119639
-0.000768657
-8.50394e-05
-5.22942e-06
0.000595521
-8.78347e-05
3.8311e-06
-0.000137138
-0.000118355
4.26979e-05
0.000669901
-0.000113401
-0.000712851
-7.99901e-05
-4.35131e-06
0.000560276
-8.23332e-05
2.76794e-06
-0.000150496
-0.000112161
4.19314e-05
0.00062647
-0.000107077
-0.000657448
-7.49248e-05
-3.38078e-06
0.000524321
-7.68089e-05
1.66124e-06
-0.000161402
-0.000105865
4.113e-05
0.000582897
-0.000100656
-0.00060248
-6.98402e-05
-2.30225e-06
0.000487652
-7.12449e-05
5.05753e-07
-0.00016968
-9.94574e-05
4.01677e-05
0.000539278
-9.41279e-05
-0.000548131
-6.47283e-05
-1.12204e-06
0.000450304
-6.56286e-05
-7.10538e-07
-0.00017515
-9.29287e-05
3.89886e-05
0.000495744
-8.74826e-05
-0.000494686
-5.9583e-05
1.36541e-07
0.000412393
-5.99697e-05
-2.00979e-06
-0.000177634
-8.62611e-05
3.76593e-05
0.000452333
-8.07061e-05
-0.000442399
-5.44139e-05
1.44573e-06
0.000374107
-5.42926e-05
-3.40041e-06
-0.000176992
-7.94365e-05
3.61648e-05
0.000409087
-7.37848e-05
-0.000391575
-4.92454e-05
2.78313e-06
0.000335702
-4.86384e-05
-4.85829e-06
-0.000173136
-7.24539e-05
3.44683e-05
0.000366112
-6.67278e-05
-0.000342595
-4.4118e-05
4.11478e-06
0.000297493
-4.30661e-05
-6.31936e-06
-0.000166083
-6.53195e-05
3.25441e-05
0.000323608
-5.95835e-05
-0.000295889
-3.90861e-05
5.35277e-06
0.000259886
-3.7648e-05
-7.6638e-06
-0.000156066
-5.80566e-05
3.0398e-05
0.000281896
-5.24389e-05
-0.000251884
-3.4212e-05
6.38017e-06
0.000223371
-3.24595e-05
-8.74426e-06
-0.000143586
-5.07371e-05
2.80558e-05
0.000241437
-4.5416e-05
-0.000210956
-2.95573e-05
7.11028e-06
0.000188475
-2.75663e-05
-9.44559e-06
-0.000129335
-4.34861e-05
2.55712e-05
0.000202782
-3.86549e-05
-0.000173378
-2.51721e-05
7.5155e-06
0.000155678
-2.30133e-05
-9.72811e-06
-0.000114077
-3.64684e-05
2.30171e-05
0.000166483
-3.22829e-05
-0.000139284
-2.10892e-05
7.65228e-06
0.000125339
-1.88215e-05
-9.66052e-06
-9.84679e-05
-2.98568e-05
2.04611e-05
0.000132981
-2.63856e-05
-0.000108684
-1.73243e-05
7.65774e-06
9.76299e-05
-1.49909e-05
-9.40496e-06
-8.28616e-05
-2.37877e-05
1.79348e-05
0.000102521
-2.09978e-05
-8.15225e-05
-1.38822e-05
7.70933e-06
7.25447e-05
-1.15095e-05
-9.1562e-06
-6.71675e-05
-1.83387e-05
1.54111e-05
7.51561e-05
-1.61162e-05
-5.77735e-05
-1.07659e-05
7.99505e-06
4.9937e-05
-8.36096e-06
-9.09896e-06
-5.08128e-05
-1.35463e-05
1.27901e-05
5.08259e-05
-1.17193e-05
-3.75579e-05
-7.9869e-06
8.73767e-06
2.9558e-05
-5.52637e-06
-9.42743e-06
-3.26907e-05
-9.43978e-06
9.87426e-06
2.94416e-05
-7.77805e-06
-2.12964e-05
-5.57311e-06
9.33695e-06
1.12363e-05
-3.02267e-06
-9.55791e-06
-1.30447e-05
-5.86502e-06
7.31949e-06
1.09407e-05
-4.30023e-06
-8.17138e-06
-3.46946e-06
6.14382e-06
-8.86845e-07
-6.05854e-06
-2.24167e-06
4.10368e-06
-1.29807e-06
-1.33946e-06
-7.98192e-06
0.000204553
0.000282415
-1.82316e-06
-0.000477777
9.27125e-07
-5.96123e-05
-8.44349e-06
0.000210222
0.000296569
-1.4778e-06
-0.000477088
1.85912e-07
-5.60639e-05
-8.91364e-06
0.000215416
0.000309416
-1.12101e-06
-0.00047546
-6.09737e-07
-5.12643e-05
-9.38882e-06
0.000220055
0.000320885
-7.50279e-07
-0.000473038
-1.41707e-06
-4.51574e-05
-9.86187e-06
0.00022411
0.000330921
-3.6903e-07
-0.000469948
-2.06076e-06
-3.78646e-05
-1.03252e-05
0.000227732
0.0003395
3.21809e-08
-0.00046632
-2.64712e-06
-2.94256e-05
-1.07712e-05
0.000230967
0.000346624
4.64473e-07
-0.000462281
-3.10068e-06
-2.00005e-05
-1.11954e-05
0.00023394
0.000352306
9.39216e-07
-0.000457962
-3.59874e-06
-9.54614e-06
-1.15928e-05
0.000236572
0.000356577
1.34879e-06
-0.000453374
-4.07943e-06
1.87602e-06
-1.19737e-05
0.000238837
0.000359465
1.71263e-06
-0.000448538
-4.54174e-06
1.4247e-05
-1.23486e-05
0.000240762
0.000360995
2.04197e-06
-0.00044348
-4.97076e-06
2.75389e-05
-1.27006e-05
0.000242425
0.000361218
2.30856e-06
-0.000438188
-5.34737e-06
4.16622e-05
-1.30058e-05
0.000243889
0.000360209
2.61946e-06
-0.000432749
-5.66452e-06
5.65813e-05
-1.32526e-05
0.000245182
0.000358061
2.92927e-06
-0.000427197
-5.92581e-06
7.21514e-05
-1.34423e-05
0.000246303
0.000354868
3.22463e-06
-0.000421551
-6.1371e-06
8.81919e-05
-1.35807e-05
0.000247245
0.000350717
3.4976e-06
-0.000415813
-6.3039e-06
0.000104562
-1.36709e-05
0.000248007
0.000345696
3.74089e-06
-0.000409972
-6.43266e-06
0.00012119
-1.37126e-05
0.000248589
0.000339896
3.94913e-06
-0.000404021
-6.52794e-06
0.000138001
-1.37046e-05
0.000248986
0.00033341
4.11946e-06
-0.000397985
-6.58781e-06
0.000154848
-1.3647e-05
0.000249198
0.000326333
4.25081e-06
-0.000391822
-6.6109e-06
0.000171573
-1.35417e-05
0.000249226
0.000318756
4.343e-06
-0.000385312
-6.6004e-06
0.00018806
-1.33911e-05
0.000249069
0.000310761
4.39332e-06
-0.000378186
-6.55558e-06
0.000204176
-1.31973e-05
0.000248728
0.000302428
4.39628e-06
-0.000370399
-6.46894e-06
0.00021971
-1.29607e-05
0.000248212
0.00029384
4.35102e-06
-0.000362141
-6.34264e-06
0.000234482
-1.26804e-05
0.000247526
0.000285087
4.26203e-06
-0.000353565
-6.19896e-06
0.000248498
-1.23547e-05
0.000246651
0.000276263
4.13331e-06
-0.000344728
-6.06187e-06
0.000261908
-1.19835e-05
0.000245545
0.000267466
3.96668e-06
-0.000335647
-5.93044e-06
0.000274834
-1.15699e-05
0.000244165
0.000258795
3.75664e-06
-0.000326315
-5.77649e-06
0.000287187
-1.1121e-05
0.000242501
0.000250337
3.50492e-06
-0.000316729
-5.57892e-06
0.000298741
-1.06465e-05
0.000240564
0.000242163
3.22718e-06
-0.000306899
-5.34312e-06
0.000309339
-1.01559e-05
0.000238361
0.000234326
2.93296e-06
-0.000296845
-5.08183e-06
0.000318907
-9.65714e-06
0.000235895
0.000226856
2.62032e-06
-0.000286578
-4.79433e-06
0.000327343
-9.15486e-06
0.000233191
0.000219762
2.2901e-06
-0.000276108
-4.4823e-06
0.000334529
-8.65036e-06
0.000230295
0.000213034
1.949e-06
-0.000265446
-4.1675e-06
0.000340451
-8.14293e-06
0.000227227
0.000206656
1.60481e-06
-0.000254617
-3.88177e-06
0.000345251
-7.63134e-06
0.000223968
0.000200612
1.26337e-06
-0.00024365
-3.63725e-06
0.00034914
-7.11532e-06
0.000220475
0.000194893
9.22902e-07
-0.00023258
-3.41224e-06
0.000352244
-6.59661e-06
0.000216725
0.000189492
5.81267e-07
-0.000221437
-3.17156e-06
0.000354526
-6.07879e-06
0.000212729
0.000184407
2.34926e-07
-0.000210249
-2.9001e-06
0.000355861
-5.56623e-06
0.000208519
0.000179628
-1.10585e-07
-0.000199046
-2.60853e-06
0.000356167
-5.06309e-06
0.000204116
0.00017514
-4.53595e-07
-0.000187859
-2.31338e-06
0.000355425
-4.57283e-06
0.000199529
0.000170919
-7.55495e-07
-0.000176753
-2.02059e-06
0.000353667
-4.09824e-06
0.000194763
0.000166937
-1.04607e-06
-0.000165762
-1.73084e-06
0.000350892
-3.64222e-06
0.000189822
0.000163158
-1.32424e-06
-0.00015492
-1.44798e-06
0.00034711
-3.20998e-06
0.000184714
0.000159539
-1.58848e-06
-0.000144261
-1.17701e-06
0.000342352
-2.81412e-06
0.00017945
0.000156025
-1.83637e-06
-0.000133818
-9.24699e-07
0.000336675
-2.40137e-06
0.000173982
0.000152615
-2.06555e-06
-0.000123627
-6.93115e-07
0.000330141
-2.00747e-06
0.000168297
0.000149267
-2.25504e-06
-0.000113741
-4.78792e-07
0.000322822
-1.63338e-06
0.000162384
0.000145936
-2.4295e-06
-0.000104187
-2.76595e-07
0.000314746
-1.26024e-06
0.000156219
0.000142588
-2.58952e-06
-9.49914e-05
-8.31651e-08
0.000305928
-9.0693e-07
0.000149802
0.000139172
-2.73378e-06
-8.61758e-05
1.02028e-07
0.000296388
-5.85789e-07
0.000143155
0.000135627
-2.86164e-06
-7.77622e-05
2.77603e-07
0.000286151
-2.92699e-07
0.000136295
0.000131904
-2.9719e-06
-6.97731e-05
4.41806e-07
0.000275255
-2.62e-08
0.000129243
0.000127963
-3.0634e-06
-6.22333e-05
5.93304e-07
0.000263746
2.14159e-07
0.000122015
0.00012377
-3.13567e-06
-5.51672e-05
7.31228e-07
0.000251683
4.2707e-07
0.000114627
0.000119295
-3.18879e-06
-4.85946e-05
8.49627e-07
0.000239129
6.13431e-07
0.000107092
0.000114519
-3.22302e-06
-4.25302e-05
9.50004e-07
0.00022615
7.72941e-07
9.94283e-05
0.000109428
-3.23865e-06
-3.69835e-05
1.03774e-06
0.0002128
9.051e-07
9.16672e-05
0.000104019
-3.23594e-06
-3.19583e-05
1.11341e-06
0.000199136
1.00949e-06
8.38441e-05
9.82975e-05
-3.21562e-06
-2.74522e-05
1.17752e-06
0.000185215
1.08541e-06
7.60018e-05
9.22802e-05
-3.17928e-06
-2.34527e-05
1.23063e-06
0.000171094
1.13178e-06
6.81909e-05
8.59894e-05
-3.12721e-06
-1.99345e-05
1.27427e-06
0.000156836
1.14779e-06
6.0472e-05
7.94508e-05
-3.05821e-06
-1.68631e-05
1.31167e-06
0.000142505
1.13397e-06
5.29141e-05
7.2702e-05
-2.97149e-06
-1.42059e-05
1.34407e-06
0.000128177
1.09293e-06
4.55888e-05
6.58047e-05
-2.86502e-06
-1.19435e-05
1.36709e-06
0.000113938
1.02841e-06
3.85682e-05
5.88463e-05
-2.73696e-06
-1.00555e-05
1.3742e-06
9.98846e-05
9.44209e-07
3.19282e-05
5.19325e-05
-2.58725e-06
-8.50141e-06
1.36019e-06
8.61429e-05
8.44612e-07
2.57505e-05
4.51702e-05
-2.40712e-06
-7.23754e-06
1.32141e-06
7.29046e-05
7.34372e-07
2.01166e-05
3.86655e-05
-2.19684e-06
-6.21225e-06
1.25687e-06
6.04066e-05
6.16981e-07
1.51004e-05
3.2513e-05
-1.9744e-06
-5.35609e-06
1.16972e-06
4.88847e-05
4.96056e-07
1.07583e-05
2.67904e-05
-1.74754e-06
-4.60091e-06
1.06729e-06
3.85397e-05
3.74559e-07
7.12266e-06
2.15557e-05
-1.52344e-06
-3.88747e-06
9.59374e-07
2.94934e-05
2.53998e-07
4.20368e-06
1.68475e-05
-1.30756e-06
-3.1721e-06
8.55942e-07
2.1771e-05
1.35719e-07
1.99577e-06
1.26875e-05
-1.10343e-06
-2.43423e-06
7.66367e-07
1.53127e-05
2.12426e-08
4.81055e-07
9.08065e-06
-9.1317e-07
-1.68885e-06
7.00983e-07
9.98949e-06
-8.78035e-08
-3.73592e-07
6.01031e-06
-7.38065e-07
-1.009e-06
6.70736e-07
5.60265e-06
-1.89852e-07
-6.30562e-07
3.42536e-06
-5.84008e-07
-4.11793e-07
6.39545e-07
2.01416e-06
-2.79208e-07
-3.86963e-07
1.2616e-06
-3.22239e-07
3.9059e-07
-2.27083e-07
)
;

boundaryField
{
    leftWall
    {
        type            calculated;
        value           nonuniform 0();
    }
    rightWall
    {
        type            calculated;
        value           nonuniform List<scalar> 8(0 0 0 -4.33681e-19 0 -4.33681e-19 0 4.33681e-19);
    }
    leftSides_periodic0
    {
        type            cyclic;
        value           nonuniform 0();
    }
    leftSides_periodic1
    {
        type            cyclic;
        value           nonuniform 0();
    }
    rightSides_periodic0
    {
        type            cyclic;
        value           nonuniform 0();
    }
    rightSides_periodic1
    {
        type            cyclic;
        value           nonuniform 0();
    }
    leftInOut_periodic0
    {
        type            cyclic;
        value           nonuniform 0();
    }
    leftInOut_periodic1
    {
        type            cyclic;
        value           nonuniform 0();
    }
    rightInOut_periodic0
    {
        type            cyclic;
        value           nonuniform List<scalar> 
157
(
1.58656e-06
-4.19811e-07
-2.31553e-06
-4.1006e-06
-5.77624e-06
-7.33445e-06
-8.81128e-06
-1.0206e-05
-1.15192e-05
-1.27539e-05
-1.39428e-05
-1.5098e-05
-1.62207e-05
-1.73126e-05
-1.8375e-05
-1.94102e-05
-2.04217e-05
-2.14161e-05
-2.23486e-05
-2.31145e-05
-2.40312e-05
-2.51881e-05
-2.62661e-05
-2.69389e-05
-2.73521e-05
-2.77417e-05
-2.80468e-05
-2.82401e-05
-2.8392e-05
-2.85036e-05
-2.85767e-05
-2.86148e-05
-2.86214e-05
-2.8599e-05
-2.85487e-05
-2.84725e-05
-2.83721e-05
-2.82482e-05
-2.81036e-05
-2.79423e-05
-2.77675e-05
-2.75823e-05
-2.73901e-05
-2.71944e-05
-2.69985e-05
-2.68057e-05
-2.66195e-05
-2.64429e-05
-2.62791e-05
-2.61313e-05
-2.60025e-05
-2.58952e-05
-2.58111e-05
-2.57516e-05
-2.57165e-05
-2.57033e-05
-2.57086e-05
-2.57276e-05
-2.57527e-05
-2.57737e-05
-2.57724e-05
-2.5731e-05
-2.56312e-05
-2.54346e-05
-2.51007e-05
-2.45948e-05
-2.38822e-05
-2.29413e-05
-2.17733e-05
-2.04063e-05
-1.88917e-05
-1.72894e-05
-1.56481e-05
-1.39874e-05
-1.22853e-05
-1.04668e-05
-8.37971e-06
-6.64795e-06
-4.04969e-06
-1.38029e-05
-1.30545e-05
-1.22914e-05
-1.1522e-05
-1.07529e-05
-9.9901e-06
-9.2388e-06
-8.50356e-06
-7.78815e-06
-7.09563e-06
-6.42845e-06
-5.78829e-06
-5.17556e-06
-4.59016e-06
-4.03129e-06
-3.49838e-06
-2.9926e-06
-2.51531e-06
-2.06694e-06
-1.64788e-06
-1.25839e-06
-9.00127e-07
-5.7781e-07
-2.96198e-07
-5.01666e-08
1.59141e-07
3.33452e-07
4.73017e-07
5.77526e-07
6.47354e-07
6.85118e-07
6.95464e-07
6.83812e-07
6.55194e-07
6.13293e-07
5.60535e-07
4.98968e-07
4.30922e-07
3.59017e-07
2.85933e-07
2.14198e-07
1.45888e-07
8.26689e-08
2.59176e-08
-2.33176e-08
-6.43013e-08
-9.64779e-08
-1.19372e-07
-1.32584e-07
-1.35941e-07
-1.29109e-07
-1.1198e-07
-8.52806e-08
-4.95881e-08
-5.28329e-09
4.6854e-08
1.05835e-07
1.70485e-07
2.39446e-07
3.10663e-07
3.82948e-07
4.55777e-07
5.25855e-07
5.89219e-07
6.38338e-07
6.6818e-07
6.84518e-07
6.87606e-07
6.79104e-07
6.61494e-07
6.37111e-07
6.07138e-07
5.7086e-07
5.24938e-07
4.62141e-07
3.68953e-07
2.85411e-07
1.76947e-07
)
;
    }
    rightInOut_periodic1
    {
        type            cyclic;
        value           nonuniform List<scalar> 
157
(
-1.58656e-06
4.19811e-07
2.31553e-06
4.1006e-06
5.77624e-06
7.33445e-06
8.81128e-06
1.0206e-05
1.15192e-05
1.27539e-05
1.39428e-05
1.5098e-05
1.62207e-05
1.73126e-05
1.8375e-05
1.94102e-05
2.04217e-05
2.14161e-05
2.23486e-05
2.31145e-05
2.40312e-05
2.51881e-05
2.62661e-05
2.69389e-05
2.73521e-05
2.77417e-05
2.80468e-05
2.82401e-05
2.8392e-05
2.85036e-05
2.85767e-05
2.86148e-05
2.86214e-05
2.8599e-05
2.85487e-05
2.84725e-05
2.83721e-05
2.82482e-05
2.81036e-05
2.79423e-05
2.77675e-05
2.75823e-05
2.73901e-05
2.71944e-05
2.69985e-05
2.68057e-05
2.66195e-05
2.64429e-05
2.62791e-05
2.61313e-05
2.60025e-05
2.58952e-05
2.58111e-05
2.57516e-05
2.57165e-05
2.57033e-05
2.57086e-05
2.57276e-05
2.57527e-05
2.57737e-05
2.57724e-05
2.5731e-05
2.56312e-05
2.54346e-05
2.51007e-05
2.45948e-05
2.38822e-05
2.29413e-05
2.17733e-05
2.04063e-05
1.88917e-05
1.72894e-05
1.56481e-05
1.39874e-05
1.22853e-05
1.04668e-05
8.37971e-06
6.64795e-06
4.04969e-06
1.38029e-05
1.30545e-05
1.22914e-05
1.1522e-05
1.07529e-05
9.9901e-06
9.2388e-06
8.50356e-06
7.78815e-06
7.09563e-06
6.42845e-06
5.78829e-06
5.17556e-06
4.59016e-06
4.03129e-06
3.49838e-06
2.9926e-06
2.51531e-06
2.06694e-06
1.64788e-06
1.25839e-06
9.00127e-07
5.7781e-07
2.96198e-07
5.01666e-08
-1.59141e-07
-3.33452e-07
-4.73017e-07
-5.77526e-07
-6.47354e-07
-6.85118e-07
-6.95464e-07
-6.83812e-07
-6.55194e-07
-6.13293e-07
-5.60535e-07
-4.98968e-07
-4.30922e-07
-3.59017e-07
-2.85933e-07
-2.14198e-07
-1.45888e-07
-8.26689e-08
-2.59176e-08
2.33176e-08
6.43013e-08
9.64779e-08
1.19372e-07
1.32584e-07
1.35941e-07
1.29109e-07
1.1198e-07
8.52806e-08
4.95881e-08
5.28329e-09
-4.6854e-08
-1.05835e-07
-1.70485e-07
-2.39446e-07
-3.10663e-07
-3.82948e-07
-4.55777e-07
-5.25855e-07
-5.89219e-07
-6.38338e-07
-6.6818e-07
-6.84518e-07
-6.87606e-07
-6.79104e-07
-6.61494e-07
-6.37111e-07
-6.07138e-07
-5.7086e-07
-5.24938e-07
-4.62141e-07
-3.68953e-07
-2.85411e-07
-1.76947e-07
)
;
    }
    procBoundary3to1
    {
        type            processor;
        value           nonuniform List<scalar> 
316
(
0.00054297
0.000526755
0.0005835
0.000522183
0.000532982
0.000518864
0.000573142
0.000510807
0.000522932
0.000510956
0.00056285
0.000499624
0.000512812
0.000503057
0.000552632
0.000488647
0.000502628
0.00049517
0.00054249
0.000477871
0.000492406
0.000487297
0.000532425
0.000467292
0.000482185
0.000479439
0.000522436
0.000456902
0.000472006
0.000471599
0.000512525
0.000446697
0.000461903
0.000463782
0.000502692
0.00043667
0.000451903
0.000455994
0.000492939
0.000426818
0.000442025
0.00044824
0.000483266
0.000417135
0.000432278
0.000440526
0.000473676
0.000407618
0.00042267
0.00043286
0.000464171
0.000398263
0.000413203
0.000425246
0.000454753
0.000389067
0.000403876
0.000417688
0.000445426
0.000380028
0.000394688
0.000410187
0.00043619
0.000371143
0.000385635
0.000402745
0.000427046
0.000362411
0.000376717
0.000395361
0.000417997
0.000353829
0.000367943
0.000388037
0.000409042
0.000345396
0.000359337
0.000380772
0.000400185
0.000337109
0.000350826
0.000373565
0.000391425
0.000328967
0.000342235
0.000366415
0.000382766
0.000320969
0.000333519
0.00035932
0.000374208
0.000313111
0.000324926
0.000352277
0.000365753
0.000305393
0.000316697
0.000345286
0.000357403
0.000297812
0.000308799
0.000338346
0.000349159
0.000290365
0.000301113
0.000331458
0.000341023
0.000283052
0.000293582
0.000324623
0.000332995
0.000275871
0.000286185
0.000317843
0.000325076
0.000268819
0.000278921
0.000311117
0.000317268
0.000261896
0.000271786
0.000304445
0.00030957
0.0002551
0.000264777
0.000297824
0.000301981
0.000248426
0.000257891
0.000291253
0.000294497
0.000241874
0.000251125
0.000284731
0.00028711
0.000235438
0.000244475
0.000278257
0.000279818
0.000229116
0.000237939
0.00027183
0.000272618
0.000222903
0.000231514
0.000265451
0.00026551
0.000216794
0.000225194
0.000259123
0.000258492
0.000210786
0.000218978
0.000252845
0.000251562
0.000204874
0.000212859
0.000246618
0.00024472
0.000199053
0.000206835
0.00024044
0.000237961
0.00019332
0.000200901
0.000234309
0.000231283
0.00018767
0.000195051
0.000228223
0.000224681
0.000182097
0.000189281
0.000222178
0.000218152
0.000176598
0.000183586
0.000216172
0.000211691
0.000171166
0.00017796
0.000210198
0.000205292
0.000165796
0.000172398
0.000204245
0.000198949
0.000160483
0.000166892
0.000198301
0.000192658
0.000155219
0.000161435
0.000192357
0.00018641
0.000149999
0.000156021
0.000186411
0.000180201
0.000144814
0.000150642
0.000180462
0.000174022
0.000139658
0.000145288
0.000174502
0.00016786
0.00013452
0.000139945
0.000168521
0.000161703
0.000129385
0.000134599
0.000162508
0.000155539
0.000124238
0.000129236
0.00015645
0.000149358
0.00011907
0.000123845
0.000150334
0.000143149
0.000113876
0.000118415
0.000144152
0.000136902
0.000108647
0.000112939
0.000137894
0.000130607
0.000103377
0.000107406
0.000131551
0.000124254
9.80602e-05
0.000101809
0.000125113
0.000117832
9.26891e-05
9.61392e-05
0.000118569
0.000111332
8.72594e-05
9.03916e-05
0.000111909
0.000104744
8.17685e-05
8.45585e-05
0.00010512
9.80636e-05
7.62167e-05
7.86282e-05
9.81938e-05
9.12878e-05
7.06027e-05
7.25955e-05
9.11154e-05
8.44083e-05
6.49332e-05
6.64719e-05
8.38809e-05
7.74111e-05
5.92358e-05
6.02885e-05
7.65058e-05
7.03013e-05
5.35535e-05
5.40977e-05
6.90059e-05
6.3121e-05
4.79427e-05
4.79707e-05
6.14143e-05
5.59471e-05
4.24678e-05
4.19907e-05
5.38097e-05
4.88858e-05
3.71906e-05
3.62387e-05
4.63115e-05
4.20578e-05
3.21593e-05
3.07796e-05
3.90664e-05
3.55729e-05
2.7401e-05
2.5654e-05
3.22161e-05
2.95073e-05
2.29227e-05
2.08801e-05
2.58547e-05
2.38954e-05
1.87175e-05
1.64633e-05
2.00087e-05
1.8742e-05
1.47717e-05
1.24076e-05
1.46513e-05
1.40406e-05
1.10697e-05
8.72448e-06
9.72195e-06
9.7873e-06
7.59187e-06
5.3275e-06
5.24049e-06
5.88871e-06
4.32495e-06
1.9202e-06
1.43586e-06
2.06731e-06
1.32526e-06
)
;
    }
    procBoundary3to1throughrightSides_periodic1
    {
        type            processorCyclic;
        value           nonuniform List<scalar> 
314
(
-0.000548187
-0.000537433
-0.000526691
-0.00051598
-0.000505317
-0.000494719
-0.000484202
-0.000473779
-0.000463462
-0.000453261
-0.000443184
-0.000433238
-0.000423429
-0.000413762
-0.000404235
-0.00039485
-0.00038561
-0.000376516
-0.000367569
-0.000358766
-0.000350096
-0.000341546
-0.000333107
-0.000324778
-0.00031657
-0.000308494
-0.000300557
-0.000292757
-0.000285089
-0.000277547
-0.000270125
-0.000262817
-0.000255617
-0.000248521
-0.000241519
-0.000234603
-0.000227766
-0.000221002
-0.000214305
-0.000207672
-0.000201099
-0.000194583
-0.000188122
-0.000181711
-0.000175349
-0.000169033
-0.000162761
-0.00015653
-0.000150337
-0.000144178
-0.000138051
-0.000131946
-0.000125855
-0.000119771
-0.000113691
-0.000107614
-0.000101538
-9.54629e-05
-8.93888e-05
-8.33164e-05
-7.72478e-05
-7.11805e-05
-6.5116e-05
-5.90652e-05
-5.3049e-05
-4.7117e-05
-4.13428e-05
-3.5811e-05
-3.06036e-05
-2.57837e-05
-2.13841e-05
-1.74072e-05
-1.38324e-05
-1.06244e-05
-7.73645e-06
-5.10411e-06
-2.75411e-06
-8.00873e-07
-0.000550529
-0.000541643
-0.000532541
-0.000523269
-0.000513885
-0.000504452
-0.000494979
-0.000485432
-0.000475824
-0.000466225
-0.00045672
-0.000447395
-0.000438307
-0.000429456
-0.000420773
-0.000412188
-0.000403686
-0.000395313
-0.000387085
-0.000378972
-0.000370958
-0.000363033
-0.000355133
-0.000347146
-0.000338993
-0.000330743
-0.000322631
-0.00031483
-0.000307288
-0.000299917
-0.000292675
-0.000285501
-0.000278301
-0.000270974
-0.000263497
-0.000256015
-0.000248742
-0.000241774
-0.000235046
-0.000228468
-0.000221991
-0.000215584
-0.000209226
-0.000202892
-0.000196561
-0.000190222
-0.00018389
-0.000177586
-0.000171325
-0.000165108
-0.000158923
-0.000152755
-0.00014659
-0.000140414
-0.000134219
-0.000127999
-0.000121744
-0.000115447
-0.000109099
-0.000102689
-9.62103e-05
-8.96565e-05
-8.30236e-05
-7.62999e-05
-6.94787e-05
-6.25621e-05
-5.55765e-05
-4.85996e-05
-4.17466e-05
-3.51605e-05
-2.89851e-05
-2.33317e-05
-1.82576e-05
-1.37703e-05
-9.85034e-06
-6.46946e-06
-3.50368e-06
-9.41357e-07
-0.000585897
-0.000574666
-0.00056345
-0.000552273
-0.00054116
-0.000530133
-0.000519206
-0.000508399
-0.000497724
-0.000487148
-0.00047663
-0.000466184
-0.000455856
-0.000445696
-0.000435718
-0.000425913
-0.000416262
-0.00040675
-0.000397373
-0.00038813
-0.000379021
-0.000370045
-0.000361197
-0.000352476
-0.000343877
-0.000335399
-0.000327042
-0.000318807
-0.000310694
-0.000302698
-0.000294813
-0.000287046
-0.000279419
-0.00027195
-0.000264637
-0.000257469
-0.000250431
-0.000243512
-0.000236703
-0.000229996
-0.000223382
-0.000216854
-0.000210404
-0.000204025
-0.000197708
-0.000191447
-0.000185234
-0.000179062
-0.000172924
-0.000166812
-0.000160721
-0.000154644
-0.000148573