/*--------------------------------*- C++ -*----------------------------------*\
| =========                 |                                                 |
| \\      /  F ield         | OpenFOAM: The Open Source CFD Toolbox           |
|  \\    /   O peration     | Version:  v1906                                 |
|   \\  /    A nd           | Web:      www.OpenFOAM.com                      |
|    \\/     M anipulation  |                                                 |
\*---------------------------------------------------------------------------*/
FoamFile
{
    version     2.0;
    format      ascii;
    class       volScalarField;
    location    "98";
    object      alphat;
}
// * * * * * * * * * * * * * * * * * * * * * * * * * * * * * * * * * * * * * //

dimensions      [1 -1 -1 0 0 0 0];


internalField   nonuniform List<scalar> 
634
(
0.00783292
0.00363697
0.0134588
0.0112563
0.00785147
0.00560983
0.0133872
0.0117421
0.00785036
0.00954038
0.0132871
0.0118573
0.00783206
0.00949233
0.0131687
0.0119222
0.00779994
0.00942562
0.0130329
0.0119408
0.00775743
0.00933549
0.0128823
0.0119151
0.00770851
0.00921678
0.01272
0.0118477
0.00764426
0.00905682
0.01255
0.0117415
0.00756337
0.00885592
0.0123755
0.0116001
0.00746695
0.00862498
0.0122015
0.0114248
0.00735599
0.00837103
0.0120331
0.0112168
0.00723153
0.00810219
0.0118748
0.0109781
0.00709489
0.00782603
0.0106003
0.0107112
0.00694856
0.00754973
0.00585635
0.0104188
0.00679554
0.00728079
0.00416125
0.0101041
0.00663874
0.00702715
0.00548265
0.0097805
0.0064812
0.00680337
0.011724
0.00945388
0.00632649
0.00661433
0.0119007
0.00912445
0.00617908
0.00470644
0.0120047
0.00879298
0.00604454
0.00280107
0.0120531
0.00845858
0.00593037
0.00242218
0.0120422
0.00812457
0.00582804
0.00359152
0.0119759
0.00779442
0.00351287
0.00568866
0.011861
0.00747154
0.00263541
0.00560025
0.0117039
0.0071591
0.00356137
0.00550572
0.0115109
0.00685995
0.00544801
0.00539315
0.0112879
0.00657653
0.0053939
0.00526392
0.0110392
0.00630282
0.00532801
0.00512092
0.0107687
0.00603922
0.00524777
0.00496677
0.0104803
0.00578564
0.0051569
0.00480516
0.0101772
0.00554304
0.0050602
0.00463961
0.00986239
0.00531193
0.00496176
0.00447298
0.00953826
0.00509766
0.00486521
0.00430731
0.00920704
0.00491015
0.00477533
0.00414386
0.00887083
0.00475155
0.00469916
0.00398335
0.00853136
0.00461225
0.00330914
0.00382616
0.00819014
0.00449039
0.00265093
0.0036726
0.00784852
0.00403624
0.00305708
0.00352281
0.00750757
0.00289978
0.004421
0.0029841
0.00716783
0.0023803
0.00435923
0.00239264
0.00683031
0.00265381
0.00428236
0.00213897
0.00649619
0.00371292
0.00418939
0.00229598
0.00616048
0.00386684
0.00408282
0.00270375
0.00582646
0.00376301
0.00396535
0.00267294
0.00550306
0.00364683
0.00383932
0.0025484
0.00518513
0.00352031
0.00370613
0.00241918
0.00484479
0.00336476
0.00323948
0.00228694
0.00444056
0.00302897
0.00280969
0.00213995
0.0039599
0.00270195
0.00263324
0.00192555
0.00348894
0.00250401
0.00270872
0.00171708
0.00315505
0.00243149
0.00284322
0.0015491
0.00296859
0.00239379
0.00282798
0.00142109
0.00284141
0.00231921
0.00267205
0.00131149
0.00268819
0.00219261
0.00244134
0.00120619
0.00247983
0.00203532
0.00221003
0.00110141
0.00223626
0.00185986
0.00200332
0.000998182
0.00200051
0.00169702
0.00181378
0.000898024
0.00178741
0.00154805
0.00164891
0.00080163
0.00159407
0.00140741
0.00149855
0.000709179
0.00141384
0.00127122
0.00135337
0.00062077
0.00124293
0.00113801
0.00121034
0.00053649
0.00108051
0.00100767
0.00106998
0.000456331
0.000926898
0.000880717
0.000933548
0.000377244
0.000782517
0.000757867
0.00080196
0.000293567
0.000647224
0.000639934
0.000675929
0.000219556
0.000518109
0.000527396
0.000555649
0.000156918
0.000384985
0.000416681
0.00043545
0.000106567
0.000270467
0.000301627
0.000312929
6.83964e-05
0.00017762
0.000203645
0.000209273
4.12644e-05
0.000107789
0.000126432
0.000128396
2.32634e-05
5.97999e-05
7.11989e-05
7.13443e-05
1.21603e-05
3.0032e-05
3.59366e-05
3.55333e-05
5.82778e-06
1.35018e-05
1.60752e-05
1.57144e-05
2.51871e-06
5.34145e-06
6.2752e-06
6.08395e-06
9.58556e-07
1.80315e-06
2.07832e-06
2.00519e-06
3.10276e-07
4.91247e-07
5.53465e-07
5.32942e-07
8.09769e-08
9.74786e-08
1.07064e-07
1.03088e-07
1.55642e-08
1.16488e-08
1.24266e-08
1.19205e-08
1.88985e-09
8.12317e-10
8.19876e-10
7.01514e-10
1.93466e-10
3.75284e-10
3.60688e-10
2.41851e-10
1.50616e-10
0.00612222
0.00603668
0.0105195
0.00391827
0.00611195
0.00606173
0.0103993
0.00436418
0.00610495
0.00610523
0.0102689
0.00481361
0.00609985
0.00617877
0.0101273
0.00524651
0.00609535
0.006289
0.00997739
0.00565121
0.00609064
0.00643439
0.00983403
0.00602072
0.00608724
0.00661278
0.00971342
0.00635142
0.00608645
0.00682108
0.00961019
0.00664211
0.00608732
0.00705481
0.00952215
0.00689323
0.00609035
0.00730845
0.00944748
0.00710597
0.0060967
0.00757598
0.00938515
0.00728179
0.00610841
0.00785086
0.00933147
0.00742121
0.00612833
0.00812615
0.00929396
0.00752504
0.00615991
0.00839502
0.00929142
0.0075949
0.00620712
0.00865042
0.00933503
0.00763428
0.0062711
0.00887782
0.00941546
0.00764886
0.00634816
0.00906983
0.00950809
0.00764565
0.00643419
0.0092219
0.00959604
0.00763277
0.00652594
0.00933218
0.00966809
0.00761849
0.00661361
0.0093999
0.00971716
0.0076132
0.006687
0.00942513
0.0097422
0.00761678
0.00674104
0.00940878
0.00972719
0.00762043
0.00677249
0.00935268
0.00967889
0.00761485
0.00677958
0.00925962
0.00960297
0.0075858
0.00676168
0.0091335
0.009503
0.00753525
0.00671917
0.00895978
0.00938105
0.00746497
0.00665316
0.00832162
0.00923881
0.00737651
0.00656532
0.00741185
0.0090779
0.00727127
0.00645765
0.00664981
0.0089
0.00715054
0.00633234
0.00637136
0.00870683
0.00701558
0.00619159
0.00661488
0.0085002
0.00686763
0.00603758
0.00714238
0.00828191
0.00670777
0.0058713
0.00752402
0.00805377
0.00653622
0.00569341
0.00740631
0.00781758
0.00635371
0.00550579
0.00719867
0.00757513
0.00616206
0.00531077
0.00697467
0.00732798
0.00596295
0.00507217
0.00673774
0.00707711
0.0057579
0.00482317
0.00649168
0.00682344
0.00554833
0.00462763
0.00623988
0.00656772
0.00533552
0.00447085
0.00598522
0.00631037
0.00512061
0.00428734
0.00572972
0.00605176
0.0049045
0.00408382
0.00547442
0.00579234
0.00468777
0.00387922
0.00521986
0.00553264
0.00447076
0.00367339
0.00496642
0.00527324
0.00425375
0.00346677
0.00471448
0.00501479
0.00403704
0.0032601
0.00446388
0.004758
0.00382095
0.00305425
0.00419529
0.00450347
0.00360583
0.0028494
0.0039214
0.00424844
0.00339201
0.00264054
0.00364499
0.00399279
0.00317979
0.00243055
0.0033735
0.00373039
0.00296852
0.00221594
0.0031116
0.00343301
0.00275209
0.00200051
0.00286091
0.00312927
0.00251329
0.00179016
0.00262087
0.00283391
0.00228027
0.00159542
0.00238754
0.0025602
0.0020582
0.00142038
0.00216408
0.00231068
0.00184764
0.00126247
0.00195066
0.00208129
0.00164849
0.00111784
0.00174693
0.00186659
0.00146054
0.000983549
0.00155278
0.00166357
0.00128365
0.000857993
0.00136832
0.0014712
0.0011178
0.000740551
0.00119379
0.00128936
0.000963016
0.000631022
0.00102951
0.00111815
0.000819404
0.000529115
0.000875843
0.000957698
0.000686864
0.000432189
0.000733086
0.000808103
0.000563561
0.000334071
0.000600828
0.000669334
0.000439522
0.000247806
0.000471814
0.000540805
0.000329645
0.000175025
0.000349367
0.000408314
0.000235879
0.000116731
0.000244925
0.000291247
0.00015961
7.29054e-05
0.000160681
0.00019471
0.000101195
4.23054e-05
9.74157e-05
0.000120571
5.95864e-05
2.26372e-05
5.38944e-05
6.84264e-05
3.23113e-05
1.10759e-05
2.68689e-05
3.52935e-05
1.59944e-05
4.89647e-06
1.1903e-05
1.64204e-05
7.14321e-06
1.91819e-06
4.59721e-06
6.80799e-06
2.82428e-06
6.44432e-07
1.50204e-06
2.44851e-06
9.57136e-07
1.75544e-07
3.94628e-07
7.21019e-07
2.62942e-07
3.51956e-08
7.62457e-08
1.5513e-07
5.31475e-08
4.55334e-09
9.42159e-09
2.00979e-08
6.89983e-09
6.7149e-10
1.15542e-09
1.86136e-09
9.81593e-10
5.23738e-10
8.7792e-10
9.37714e-10
7.53109e-10
)
;

boundaryField
{
    leftWall
    {
        type            compressible::alphatWallFunction;
        Prt             0.85;
        value           nonuniform 0();
    }
    rightWall
    {
        type            compressible::alphatWallFunction;
        Prt             0.85;
        value           uniform 0;
    }
    leftSides_periodic0
    {
        type            cyclic;
    }
    leftSides_periodic1
    {
        type            cyclic;
    }
    rightSides_periodic0
    {
        type            cyclic;
    }
    rightSides_periodic1
    {
        type            cyclic;
    }
    leftInOut_periodic0
    {
        type            cyclic;
    }
    leftInOut_periodic1
    {
        type            cyclic;
    }
    rightInOut_periodic0
    {
        type            cyclic;
    }
    rightInOut_periodic1
    {
        type            cyclic;
    }
    procBoundary1to0
    {
        type            processor;
        value           nonuniform List<scalar> 
11
(
0.00779205
0.00439216
0.0134554
0.0113472
0.0113472
0.0106293
0.00351943
0.00613898
0.00602564
0.0106293
0.00351943
)
;
    }
    procBoundary1to0throughleftInOut_periodic0
    {
        type            processorCyclic;
        value           uniform 0.0134554;
    }
    procBoundary1to2throughleftSides_periodic0
    {
        type            processorCyclic;
        value           nonuniform List<scalar> 2(0.00724966 0.0050106);
    }
    procBoundary1to2throughrightSides_periodic0
    {
        type            processorCyclic;
        value           nonuniform List<scalar> 2(0.00221701 0.00334714);
    }
    procBoundary1to3
    {
        type            processor;
        value           nonuniform List<scalar> 
316
(
0.0117619
0.0106058
0.0071339
0.00388062
0.0117955
0.00664928
0.00703375
0.00574522
0.0117934
0.00372635
0.00692288
0.0114854
0.0117566
0.004175
0.00681078
0.0133601
0.0116875
0.00975097
0.00671039
0.0132626
0.0115899
0.00968274
0.00662141
0.0131051
0.0114684
0.00961972
0.0065403
0.0129019
0.0113276
0.00955511
0.00646834
0.0126624
0.0111723
0.00948245
0.00640807
0.0123976
0.0110081
0.00939295
0.00636206
0.0121147
0.0108405
0.00928638
0.00633283
0.0118196
0.0106749
0.00916174
0.00632463
0.0115176
0.0105164
0.00902066
0.00587163
0.0112113
0.0103698
0.00885959
0.00286876
0.0109012
0.0102418
0.00867921
0.00255309
0.0105848
0.0101331
0.00848147
0.00368025
0.0102609
0.00639432
0.00826648
0.00627119
0.00995208
0.00375196
0.00804175
0.00749809
0.00707101
0.00390612
0.00780617
0.00761317
0.0037142
0.00639641
0.00756531
0.00769903
0.00359671
0.0106398
0.00731956
0.00775168
0.00569014
0.010968
0.00706792
0.00778871
0.00886722
0.0110374
0.00680785
0.00781179
0.00872728
0.0110447
0.0065354
0.00782108
0.00856458
0.0109886
0.00626674
0.00781542
0.00838358
0.0108774
0.00603818
0.00773796
0.00818796
0.0107172
0.00585281
0.00774207
0.0079815
0.0105168
0.00570048
0.00770782
0.00776729
0.0102842
0.00511218
0.0076447
0.00754765
0.0100265
0.00250443
0.00756986
0.00732424
0.00974958
0.00220032
0.00748452
0.00709828
0.00945826
0.00312581
0.00738998
0.00687076
0.00915623
0.00481779
0.00728626
0.00664254
0.00884657
0.0054805
0.00717405
0.00641357
0.00853216
0.00543918
0.00705417
0.00618293
0.008217
0.00537746
0.00692726
0.00595109
0.00788771
0.00529707
0.00679339
0.00571963
0.00589856
0.00500079
0.00665206
0.00548989
0.00439429
0.00422088
0.0065025
0.00526185
0.00432972
0.00401984
0.00634402
0.00493409
0.00526699
0.00427151
0.00617541
0.004667
0.00622995
0.00451255
0.00599612
0.00451129
0.00617366
0.00452291
0.00580689
0.0043591
0.00591053
0.00440226
0.0056086
0.00413874
0.00563564
0.00424676
0.00540213
0.00392067
0.00535191
0.00408148
0.00518825
0.0037046
0.00506212
0.00388736
0.00496767
0.00348969
0.00476866
0.00366438
0.00474137
0.0032742
0.00447356
0.00343932
0.00451019
0.00305834
0.00417856
0.00323606
0.00427226
0.00284286
0.0038857
0.00305767
0.00402813
0.00262851
0.00359672
0.00289164
0.00377884
0.00241616
0.0033124
0.00272401
0.00352554
0.00220663
0.00303347
0.00254767
0.00326993
0.00200077
0.00276079
0.00236125
0.00301365
0.00179936
0.00249505
0.00217066
0.00275796
0.00160327
0.0022369
0.00198073
0.00250427
0.00141337
0.00198695
0.00179358
0.00225419
0.00123061
0.00174388
0.00161004
0.00200928
0.00105603
0.0015098
0.00143078
0.00177101
0.000890834
0.00129146
0.00125673
0.00154074
0.000736082
0.00108302
0.00108904
0.00131665
0.000593233
0.000886546
0.000928976
0.00110491
0.000464128
0.000705102
0.000777873
0.000911567
0.000350589
0.000540634
0.000636318
0.000727485
0.000254121
0.000396154
0.00049005
0.000559497
0.000175583
0.000274685
0.000356654
0.000409665
0.000114862
0.000178201
0.00024331
0.000281595
7.06691e-05
0.000106858
0.000153465
0.000178807
4.06254e-05
5.84994e-05
8.82902e-05
0.000102994
2.16733e-05
2.88682e-05
4.58042e-05
5.28198e-05
1.06382e-05
1.26559e-05
2.12362e-05
2.36883e-05
4.74291e-06
4.83319e-06
8.70025e-06
9.11489e-06
1.88126e-06
1.5597e-06
3.07404e-06
2.92837e-06
6.41581e-07
4.0459e-07
8.8613e-07
7.48167e-07
1.77655e-07
7.72989e-08
1.85933e-07
1.3855e-07
3.62351e-08
9.44537e-09
2.33065e-08
1.57878e-08
4.7857e-09
1.1051e-09
2.03576e-09
1.44533e-09
7.30002e-10
8.60381e-10
9.92316e-10
1.0038e-09
5.70885e-10
)
;
    }
    procBoundary1to3throughrightSides_periodic0
    {
        type            processorCyclic;
        value           nonuniform List<scalar> 
314
(
0.00214897
0.00209007
0.00203893
0.00199353
0.00195187
0.00191198
0.00187194
0.00183022
0.0017858
0.00173774
0.00168483
0.00162532
0.00155703
0.00147826
0.00139376
0.00132466
0.00130881
0.00137662
0.00151836
0.00170347
0.00190561
0.00210702
0.00229753
0.00247204
0.00262828
0.00276574
0.00288474
0.00298587
0.00306735
0.00313092
0.00318049
0.0032178
0.00324432
0.00325954
0.00325894
0.00324866
0.0032304
0.00320575
0.00317544
0.0031387
0.00307543
0.00287494
0.00263382
0.00247174
0.00242597
0.0024551
0.00248435
0.00245819
0.00236632
0.0022263
0.00206211
0.00190145
0.00175245
0.00161414
0.0014825
0.00135409
0.00122719
0.00110153
0.00097766
0.000856438
0.000738951
0.000626057
0.000510243
0.000392768
0.000287699
0.00019852
0.00012766
7.57119e-05
4.10311e-05
2.01483e-05
8.87348e-06
3.44539e-06
1.14327e-06
3.06414e-07
5.98132e-08
7.022e-09
4.7434e-10
2.12713e-10
0.00302262
0.00284355
0.00279744
0.00183286
0.0015257
0.00178052
0.00280073
0.00460718
0.00540827
0.00583758
0.00625222
0.00662856
0.00696754
0.00727181
0.0075424
0.00777981
0.00798321
0.00815198
0.00828547
0.0083838
0.00844763
0.00847799
0.00847632
0.00844454
0.00838497
0.00830021
0.0081933
0.00806824
0.00792865
0.00777748
0.00749915
0.0068483
0.00633746
0.00603076
0.00583542
0.0056537
0.00545347
0.00525951
0.00510341
0.00498489
0.00487944
0.00476336
0.00462517
0.00446463
0.00428702
0.00409854
0.00390465
0.00370949
0.00351468
0.00331957
0.00312286
0.00292385
0.00272258
0.00251881
0.00230856
0.00209947
0.00189448
0.00169414
0.00149894
0.00130979
0.00112781
0.000953616
0.000777882
0.000603354
0.000446476
0.000311873
0.000203228
0.000122088
6.69047e-05
3.31454e-05
1.47014e-05
5.74548e-06
1.91966e-06
5.18501e-07
1.02073e-07
1.20416e-08
7.46095e-10
2.77382e-10
0.00719428
0.00714327
0.00709195
0.00703981
0.00698535
0.00692749
0.00686584
0.00680107
0.00673968
0.00668956
0.0066546
0.00663963
0.00664282
0.00666292
0.00670102
0.00675104
0.00680588
0.00686833
0.0065633
0.00503212
0.00411954
0.00404294
0.00474505
0.00604569
0.00725327
0.00783458
0.00789113
0.00786947
0.00781919
0.00774323
0.00762535
0.00718081
0.0064045
0.00562463
0.00512345
0.00497882
0.00514959
0.00551237
0.00586672
0.00603872
0.00599669
0.00579939
0.00550256
0.00515922
0.00482164
0.00452273
0.004271
0.00405743
0.00386454
0.00367442
0.00347529
0.00326375
0.00304232
0.00281494
0.0025825
0.00235154
0.00212653
0.00190826
0.00169677
0.00149227
0.00129547
0.0011075
0.000920746
0.000732971
0.000561337
0.000409932
0.000282735
0.000182295
0.000108783
5.95425e-05
2.96413e-05
1.32786e-05
5.25834e-06
1.7826e-06
4.88539e-07
9.75515e-08
1.1708e-08
7.92718e-10
3.43994e-10
0.00510298
0.00523333
0.00538295
0.00553766
0.00568944
0.00583268
0.00596376
0.00608049
0.00618221
0.0062702
0.00634465
0.00640564
0.00645327
0.00648781
0.00651104
0.00652498
0.00653209
0.00617904
0.00551079
0.00498148
0.00483868
0.00508453
0.00556415
0.0060565
0.00637124
0.00645525
0.00637663
0.00622442
0.00605207
0.00587932
0.00571069
0.00554697
0.00538827
0.0052337
0.00508083
0.00492605
0.00476539
0.00459691
0.00442519
0.00426114
0.00411206
0.0039738
0.00383645
0.00369333
0.00354286
0.00338602
0.00322442
0.00305959
0.00289317
0.00272655
0.00256012
0.0023916
0.00221638
0.00204403
0.00187542
0.00171004
0.0015476
0.00138838
0.00123298
0.00108221
0.000936376
0.000790616
0.000635031
0.000491773
0.000364528
0.000256571
0.000170065
0.000105342
6.05706e-05
3.21362e-05
1.56233e-05
6.88316e-06
2.69516e-06
9.06648e-07
2.4708e-07
4.9077e-08
5.79984e-09
3.07455e-10
6.85668e-11
)
;
    }
}


// ************************************************************************* //
