/*--------------------------------*- C++ -*----------------------------------*\
| =========                 |                                                 |
| \\      /  F ield         | OpenFOAM: The Open Source CFD Toolbox           |
|  \\    /   O peration     | Version:  v1906                                 |
|   \\  /    A nd           | Web:      www.OpenFOAM.com                      |
|    \\/     M anipulation  |                                                 |
\*---------------------------------------------------------------------------*/
FoamFile
{
    version     2.0;
    format      ascii;
    class       volScalarField;
    location    "98";
    object      pPrime2Mean;
}
// * * * * * * * * * * * * * * * * * * * * * * * * * * * * * * * * * * * * * //

dimensions      [2 -2 -4 0 0 0 0];


internalField   nonuniform List<scalar> 
634
(
13743.1
10813.8
9853.26
12237.3
14004.3
10575.7
10133.4
12000.9
14282.4
10339.5
10434.1
11758
14584.1
10093.2
10754.7
11504.9
14908.5
9834.04
11092.3
11241.2
15252.3
9565.27
11445.3
10968.8
15612.6
9290.97
11813
10690.8
15988.8
9013.76
12194.6
10410.3
16382.6
8734.02
12589.5
10128.6
16794.8
8451.54
12998.1
9846.36
17224.6
8166.98
13422
9563.93
17671.3
7881.14
13862.6
9281.62
18134.9
7594.42
14319.7
8998.86
18615.4
7307.18
14792.6
8714.51
19113.6
7019.72
15281.6
8428.14
19630.3
6732.49
15787.5
8140.82
20165.7
6446.75
16309.2
7854.97
20718.1
6164.62
16843.7
7572.95
21285.1
5888.06
17388.1
7295.85
21864.4
5618.19
17941.2
7023.64
22455.3
5355.88
18501.9
6756.31
23058.1
5102.28
19069.8
6494.82
23672
4858.54
19645.5
6240.76
24295.9
4625.35
20230
5995.23
24928.9
4402.89
20823
5758.63
25570.4
4191.03
21421.4
5531.29
26219.1
3989.63
22020.9
5313.63
26872.9
3798.95
22618.2
5105.98
27528.1
3619.51
23212.2
4908.57
28181
3451.51
23801.8
4721.59
28827.8
3294.67
24385.3
4545.14
29466.2
3148.64
24961.5
4379.07
30095.7
3013.29
25529.8
4223.1
30715.5
2888.52
26090
4076.99
31322.9
2773.94
26640.2
3940.6
31915.6
2669
27177
3813.86
32492.9
2573.41
27697.2
3697.01
33055.7
2486.95
28200.1
3590.63
33603.9
2409.37
28687.1
3495.2
34135.7
2340.2
29158.3
3410.27
34649.7
2278.36
29612.1
3334.31
35145.6
2222.54
30045.8
3265.16
35623
2171.82
30457.9
3201.04
36080.3
2125.92
30849
3141.3
36515.4
2084.91
31221.4
3085.92
36928.1
2048.56
31577.6
3034.98
37320.2
2016.3
31918.7
2988.35
37694.6
1987.57
32244.2
2945.78
38052.8
1962.03
32552.7
2907.24
38394.3
1939.43
32842.9
2872.76
38717.4
1919.56
33114.7
2842.21
39020.1
1902.19
33368.2
2815.21
39301.7
1887.09
33603.4
2791.32
39562.7
1873.99
33820.7
2770.16
39803.8
1862.66
34020.6
2751.46
40025.7
1852.86
34204
2734.98
40229.1
1844.37
34371.7
2720.49
40414.9
1837.01
34524.6
2707.77
40584.2
1830.64
34663.5
2696.59
40737.8
1825.13
34789.2
2686.76
40876.9
1820.37
34902.7
2678.14
41002.3
1816.25
35004.6
2670.57
41114.9
1812.69
35095.8
2663.95
41215.4
1809.61
35176.8
2658.2
41304.6
1806.95
35248.2
2653.22
41383.2
1804.67
35310.9
2648.93
41451.9
1802.71
35365.9
2645.24
41511.8
1801.02
35414.2
2642.05
41564.2
1799.56
35456.9
2639.29
41610.3
1798.27
35495.1
2636.85
41651.2
1797.12
35529.4
2634.68
41687.9
1796.1
35560.3
2632.73
41721
1795.19
35588
2630.99
41750.5
1794.38
35612.3
2629.45
41776.6
1793.67
35633.2
2628.13
41799
1793.08
35650.4
2627.04
41817.5
1792.6
35662.8
2626.25
41830.8
1792.25
35671.9
2625.66
41840.5
1791.99
35678
2625.27
41847.1
1791.81
130347
135234
134041
134943
130509
135017
134180
134743
130666
134771
134311
134510
130826
134505
134445
134251
130996
134227
134592
133972
131178
133941
134754
133678
131375
133648
134931
133372
131585
133354
135123
133057
131808
133058
135330
132738
132046
132760
135553
132416
132303
132459
135792
132092
132581
132155
136048
131763
132876
131849
136320
131425
133189
131539
136604
131076
133515
131223
136900
130714
133852
130901
137210
130342
134195
130576
137537
129964
134548
130246
137882
129586
134913
129910
138244
129208
135297
129568
138622
128829
135702
129224
139016
128448
136125
128879
139424
128067
136564
128538
139844
127691
137014
128198
140273
127323
137470
127860
140710
126966
137933
127524
141156
126617
138405
127189
141612
126274
138886
126857
142078
125937
139376
126532
142553
125610
139872
126218
143035
125298
140371
125917
143522
125001
140871
125628
144013
124717
141371
125350
144506
124443
141871
125081
144999
124177
142370
124821
145490
123922
142866
124572
145978
123678
143356
124335
146461
123446
143840
124111
146938
123225
144314
123900
147407
123017
144778
123702
147865
122821
145230
123516
148312
122638
145669
123342
148747
122467
146094
123179
149169
122308
146506
123027
149577
122159
146901
122884
149969
122019
147280
122752
150345
121889
147642
122630
150704
121769
147985
122518
151046
121659
148309
122416
151369
121558
148615
122322
151673
121465
148901
122236
151958
121381
149168
122158
152224
121304
149416
122087
152471
121235
149643
122023
152698
121172
149852
121966
152906
121116
150042
121914
153096
121066
150214
121868
153268
121021
150369
121827
153423
120980
150509
121790
153563
120945
150634
121757
153688
120913
150747
121728
153801
120885
150847
121703
153901
120860
150936
121680
153990
120838
151015
121659
154069
120819
151084
121642
154138
120802
151144
121626
154198
120788
151196
121613
154251
120775
151242
121601
154296
120764
151282
121591
154336
120755
151318
121582
154371
120747
151350
121574
154403
120739
151378
121566
154431
120733
151404
121560
154456
120727
151426
121554
154478
120722
151446
121550
154497
120718
151461
121545
154513
120714
151473
121542
154524
120711
151481
121540
154532
120709
151487
121538
154538
120707
)
;

boundaryField
{
    leftWall
    {
        type            calculated;
        value           nonuniform 0();
    }
    rightWall
    {
        type            calculated;
        value           nonuniform List<scalar> 8(35678 151487 2625.27 121538 41847.1 154538 1791.81 120707);
    }
    leftSides_periodic0
    {
        type            cyclic;
    }
    leftSides_periodic1
    {
        type            cyclic;
    }
    rightSides_periodic0
    {
        type            cyclic;
    }
    rightSides_periodic1
    {
        type            cyclic;
    }
    leftInOut_periodic0
    {
        type            cyclic;
    }
    leftInOut_periodic1
    {
        type            cyclic;
    }
    rightInOut_periodic0
    {
        type            cyclic;
    }
    rightInOut_periodic1
    {
        type            cyclic;
    }
    procBoundary1to0
    {
        type            processor;
        value           nonuniform List<scalar> 
11
(
13486.4
11070.5
9587.02
12475.7
12475.7
133885
135114
130171
135419
133885
135114
)
;
    }
    procBoundary1to0throughleftInOut_periodic0
    {
        type            processorCyclic;
        value           uniform 9587.02;
    }
    procBoundary1to2throughleftSides_periodic0
    {
        type            processorCyclic;
        value           nonuniform List<scalar> 2(9969.79 10024.4);
    }
    procBoundary1to2throughrightSides_periodic0
    {
        type            processorCyclic;
        value           nonuniform List<scalar> 2(9880.34 10197.8);
    }
    procBoundary1to3
    {
        type            processor;
        value           nonuniform List<scalar> 
316
(
78900.1
80285.3
79667.4
81175.8
79162.6
80025.3
79899.1
80835.9
79435.8
79746.1
80141.7
80463.8
79725.5
79450.4
80408.8
80066.6
80031.9
79142.3
80703.3
79656.3
80353.2
78824.1
81021.9
79241.9
80688.8
78497.9
81362
78828.4
81040.5
78164.8
81722.8
78417.6
81411.2
77825.8
82103
78009.8
81803.3
77482.3
82501.4
77603.6
82216.6
77136.6
82916.9
77195.6
82649.9
76791.4
83348.4
76783.2
83102.8
76448.4
83794.6
76366.6
83575
76108
84255.4
75947.8
84064.9
75768.3
84734.7
75530.4
84571.9
75428.6
85241.2
75117
85097
75091.3
85783.6
74708.4
85641.4
74757.6
86364.3
74305
86203.9
74425.2
86976.7
73906.9
86782.4
74094.3
87608.8
73515.6
87374.7
73771.9
88247.2
73135.1
87979.9
73465
88882.6
72768.2
88595.9
73172.4
89513.1
72414.6
89221.1
72885.6
90142.2
72070.9
89855.9
72599.8
90775.9
71734.4
90500.9
72318
91418.1
71406.8
91154.7
72045.2
92073.9
71092.2
91813.1
71783.7
92750.7
70793.6
92471.7
71534
93454.2
70513.2
93130.1
71296.1
94184.1
70251
93794.4
71069.7
94931.8
70004.6
94472.7
70853.6
95685
69771.1
95167.3
70645.9
96436.8
69549.4
95871.9
70445.7
97186.9
69340.1
96576.9
70253.4
97937.5
69142.8
97279
70068.5
98688.9
68956.4
97978.5
69893.2
99437.3
68781.2
98675.5
69731.9
100179
68620.5
99370.6
69585
100914
68477.9
100062
69450.2
101645
68353.3
100748
69324.5
102371
68242.3
101425
69205.8
103089
68139.9
102087
69094.7
103793
68044
102733
68992.6
104480
67955.5
103361
68900.2
105147
67876.3
103969
68817.9
105793
67807.6
104555
68745.9
106415
67749.8
105115
68682.8
107011
67702
105647
68627.2
107578
67662.2
106150
68577.5
108115
67628
106626
68533.4
108622
67598
107073
68494.8
109100
67571.9
107492
68461.4
109547
67550
107881
68433
109964
67532
108240
68409
110348
67517.6
108569
68388.8
110700
67506.2
108869
68372.2
111020
67497.3
109140
68358.5
111311
67490.5
109385
68347.5
111573
67485.3
109605
68338.5
111808
67481.5
109802
68331.4
112017
67478.6
109976
68325.6
112204
67476.5
110130
68320.9
112368
67474.9
110266
68317.1
112512
67473.7
110385
68314
112639
67472.8
110488
68311.4
112748
67472.2
110578
68309.3
112843
67471.9
110655
68307.6
112925
67471.7
110723
68306.2
112997
67471.8
110783
68305.1
113059
67471.9
110837
68304.1
113115
67472.1
110884
68303.3
113164
67472.3
110926
68302.6
113209
67472.5
110964
68301.9
113248
67472.6
110996
68301.3
113281
67472.7
111023
68300.7
113310
67472.7
111040
68297.9
113328
67470.3
111048
68290.7
113336
67463.3
111052
68284.2
113340
67457.1
)
;
    }
    procBoundary1to3throughrightSides_periodic0
    {
        type            processorCyclic;
        value           nonuniform List<scalar> 
314
(
9887.14
9895.64
9905.79
9917.46
9930.77
9945.91
9962.87
9981.39
10001.2
10022.2
10044.3
10067.9
10093.9
10122.6
10154.3
10188.6
10225.4
10264.3
10305.6
10349.3
10395.5
10443.9
10494.2
10546
10599.1
10653
10707.8
10763.8
10821
10879.2
10937.5
10995.7
11054
11112.9
11172.6
11232.9
11293.6
11354.4
11415
11475.1
11534.2
11591.7
11647.3
11701.1
11753.5
11804.4
11853.7
11901.1
11946.5
11989.8
12030.8
12069.4
12105.7
12139.4
12170.7
12199.6
12226.1
12250.2
12272.2
12292
12309.7
12325.4
12339.2
12351.3
12361.7
12370.6
12378.2
12384.8
12390.6
12395.8
12400.4
12404.6
12408.3
12411.6
12414.3
12413
12405.1
12397.6
10200.9
10205.7
10212.3
10220.6
10230.4
10241.8
10254.9
10270.1
10287.5
10307.1
10329
10353.6
10381
10410.9
10443.1
10477
10512.4
10549.1
10587.9
10629.7
10675
10724.5
10778
10835.4
10895.9
10958.6
11023.1
11088.9
11155.8
11223.3
11290.7
11358
11425.4
11492.5
11558.5
11623
11686.9
11751.6
11817.6
11884.1
11950
12014.6
12077.7
12138.7
12197.7
12254.5
12309.4
12362.2
12413
12461.4
12507.3
12550.4
12590.8
12628.3
12663.2
12695.3
12724.9
12752
12776.6
12798.8
12818.8
12836.5
12852.2
12865.8
12877.6
12887.7
12896.4
12903.9
12910.5
12916.3
12921.6
12926.3
12930.6
12934.3
12937.4
12936.4
12928.7
12921.3
9976.9
9984.66
9993.42
10003.7
10015.8
10030
10045.9
10063.2
10081.5
10100.8
10121.5
10143.8
10167.8
10193.7
10221.7
10251.8
10284.2
10319
10356.2
10395.4
10436.3
10478.9
10523.1
10568.7
10615.4
10662.7
10710.4
10759.2
10809.9
10862.6
10916.6
10970.7
11024.6
11078.7
11133.3
11188.5
11244.1
11300.2
11356.8
11413.9
11470.5
11526
11579.3
11630.3
11679
11726.3
11772.4
11817.7
11861.8
11904.3
11944.9
11983.1
12019.1
12052.7
12084
12113
12139.8
12164.3
12186.7
12207.1
12225.4
12241.9
12256.5
12269.3
12280.5
12290.2
12298.5
12305.7
12311.9
12317.4
12322.3
12326.7
12330.7
12334.3
12337.4
12340
12338.6
12330.5
12322.9
10031.7
10040.3
10050.5
10062.6
10076.7
10092.8
10110.7
10130.4
10152.1
10176.1
10202.5
10231.6
10263.3
10297.6
10334.4
10373.9
10415.9
10460.3
10507
10556.2
10608
10662.3
10718.7
10776.8
10835.7
10895.3
10955.8
11017.9
11082
11147.7
11214.2
11281.1
11348.6
11416.7
11484.5
11551
11616.2
11681.1
11746.2
11811.3
11875.3
11937.5
11997.8
12056.4
12113.2
12168.2
12221.3
12272.4
12321.4
12368.1
12412.6
12454.6
12494.1
12531.1
12565.4
12597.1
12626.4
12653.4
12678.1
12700.5
12720.8
12738.9
12755.1
12769.4
12781.8
12792.7
12802.2
12810.6
12817.9
12824.5
12830.5
12835.9
12840.8
12845.1
12848.8
12851.9
12850.9
12843.1
12835.7
)
;
    }
}


// ************************************************************************* //
