/*--------------------------------*- C++ -*----------------------------------*\
| =========                 |                                                 |
| \\      /  F ield         | OpenFOAM: The Open Source CFD Toolbox           |
|  \\    /   O peration     | Version:  v1912                                 |
|   \\  /    A nd           | Website:  www.openfoam.com                      |
|    \\/     M anipulation  |                                                 |
\*---------------------------------------------------------------------------*/
FoamFile
{
    version     2.0;
    format      ascii;
    class       volScalarField;
    location    "197.2";
    object      nut;
}
// * * * * * * * * * * * * * * * * * * * * * * * * * * * * * * * * * * * * * //

dimensions      [0 2 -1 0 0 0 0];


internalField   nonuniform List<scalar> 
10077
(
1.59903e-05
1.45551e-05
1.28695e-05
1.25431e-05
1.25925e-05
1.25928e-05
1.25652e-05
1.25363e-05
1.25318e-05
1.25389e-05
1.25711e-05
1.26015e-05
1.2604e-05
1.25566e-05
1.28808e-05
1.45555e-05
1.56213e-05
1.43129e-05
1.28785e-05
1.26045e-05
1.26445e-05
1.26224e-05
1.25793e-05
1.25383e-05
1.25313e-05
1.25411e-05
1.25854e-05
1.26313e-05
1.26563e-05
1.26185e-05
1.28907e-05
1.43144e-05
1.52358e-05
1.40613e-05
1.28636e-05
1.2642e-05
1.26754e-05
1.26343e-05
1.2577e-05
1.25256e-05
1.25164e-05
1.25286e-05
1.25833e-05
1.26433e-05
1.26874e-05
1.26563e-05
1.28766e-05
1.40639e-05
1.48405e-05
1.38046e-05
1.28271e-05
1.26561e-05
1.26853e-05
1.26286e-05
1.25588e-05
1.24986e-05
1.24875e-05
1.25017e-05
1.25653e-05
1.26379e-05
1.26975e-05
1.26707e-05
1.28407e-05
1.38082e-05
1.44424e-05
1.35463e-05
1.27712e-05
1.2648e-05
1.26749e-05
1.26062e-05
1.25254e-05
1.24579e-05
1.24452e-05
1.24611e-05
1.2532e-05
1.26155e-05
1.26872e-05
1.26628e-05
1.27854e-05
1.3551e-05
1.40471e-05
1.32895e-05
1.26981e-05
1.26191e-05
1.26452e-05
1.25674e-05
1.24776e-05
1.2404e-05
1.23901e-05
1.24073e-05
1.24843e-05
1.25769e-05
1.26575e-05
1.2634e-05
1.27127e-05
1.32951e-05
1.36594e-05
1.30362e-05
1.26098e-05
1.25707e-05
1.25971e-05
1.25133e-05
1.24159e-05
1.23376e-05
1.23229e-05
1.2341e-05
1.24228e-05
1.25228e-05
1.26095e-05
1.25856e-05
1.26247e-05
1.30427e-05
1.32829e-05
1.2788e-05
1.2508e-05
1.25049e-05
1.25326e-05
1.24444e-05
1.23415e-05
1.22595e-05
1.22441e-05
1.22629e-05
1.23484e-05
1.2454e-05
1.2545e-05
1.25198e-05
1.25232e-05
1.27952e-05
1.29201e-05
1.25457e-05
1.23944e-05
1.24239e-05
1.24537e-05
1.23623e-05
1.22554e-05
1.21704e-05
1.21546e-05
1.21738e-05
1.22623e-05
1.2372e-05
1.24661e-05
1.24388e-05
1.24097e-05
1.25536e-05
1.25725e-05
1.23095e-05
1.22703e-05
1.23291e-05
1.23614e-05
1.22686e-05
1.21585e-05
1.20711e-05
1.20551e-05
1.20746e-05
1.21655e-05
1.22783e-05
1.23737e-05
1.23439e-05
1.22858e-05
1.2318e-05
1.22406e-05
1.20794e-05
1.21373e-05
1.22214e-05
1.22565e-05
1.21637e-05
1.20515e-05
1.19625e-05
1.19465e-05
1.19661e-05
1.20585e-05
1.21734e-05
1.22686e-05
1.2236e-05
1.21527e-05
1.20885e-05
1.19246e-05
1.18551e-05
1.19962e-05
1.21015e-05
1.21393e-05
1.20482e-05
1.19348e-05
1.18448e-05
1.1829e-05
1.18484e-05
1.19417e-05
1.20579e-05
1.21513e-05
1.21159e-05
1.20113e-05
1.18646e-05
1.16236e-05
1.1636e-05
1.18475e-05
1.19702e-05
1.20106e-05
1.19224e-05
1.18085e-05
1.17181e-05
1.17026e-05
1.17217e-05
1.18154e-05
1.19319e-05
1.20224e-05
1.19844e-05
1.18621e-05
1.16458e-05
1.13369e-05
1.14213e-05
1.16914e-05
1.18284e-05
1.18709e-05
1.17864e-05
1.1673e-05
1.15826e-05
1.15675e-05
1.15861e-05
1.16798e-05
1.17959e-05
1.18826e-05
1.18423e-05
1.17055e-05
1.14314e-05
1.1063e-05
1.12104e-05
1.15283e-05
1.16768e-05
1.17212e-05
1.16407e-05
1.15288e-05
1.14386e-05
1.14242e-05
1.14422e-05
1.15356e-05
1.165e-05
1.17326e-05
1.16904e-05
1.15421e-05
1.12207e-05
1.08007e-05
1.10025e-05
1.13588e-05
1.15165e-05
1.15624e-05
1.14857e-05
1.1377e-05
1.12871e-05
1.12733e-05
1.12906e-05
1.13837e-05
1.14948e-05
1.15736e-05
1.15298e-05
1.13723e-05
1.1013e-05
1.05485e-05
1.07972e-05
1.11833e-05
1.13484e-05
1.13956e-05
1.1322e-05
1.12179e-05
1.11289e-05
1.11158e-05
1.11324e-05
1.12246e-05
1.1331e-05
1.14066e-05
1.13614e-05
1.11966e-05
1.08078e-05
1.03052e-05
1.05938e-05
1.10019e-05
1.1173e-05
1.12214e-05
1.11504e-05
1.10521e-05
1.09648e-05
1.09525e-05
1.09683e-05
1.10586e-05
1.11592e-05
1.12322e-05
1.11857e-05
1.10152e-05
1.06045e-05
1.00694e-05
1.03919e-05
1.08149e-05
1.09907e-05
1.10403e-05
1.09717e-05
1.08797e-05
1.07949e-05
1.07835e-05
1.07984e-05
1.08862e-05
1.09803e-05
1.10509e-05
1.10032e-05
1.08281e-05
1.04026e-05
9.84005e-06
1.01911e-05
1.06228e-05
1.08017e-05
1.08524e-05
1.07863e-05
1.0701e-05
1.06192e-05
1.06087e-05
1.06226e-05
1.07073e-05
1.07948e-05
1.08628e-05
1.08139e-05
1.06357e-05
1.02019e-05
9.61606e-06
9.99119e-06
1.04265e-05
1.06061e-05
1.0658e-05
1.05948e-05
1.0516e-05
1.04379e-05
1.04283e-05
1.04412e-05
1.05222e-05
1.06031e-05
1.06682e-05
1.06181e-05
1.04388e-05
1.00019e-05
9.39656e-06
9.79191e-06
1.02263e-05
1.04042e-05
1.04571e-05
1.03976e-05
1.03246e-05
1.0251e-05
1.02425e-05
1.02543e-05
1.03307e-05
1.04057e-05
1.04671e-05
1.0416e-05
1.02381e-05
9.8026e-06
9.18081e-06
9.5932e-06
1.00224e-05
1.01974e-05
1.02506e-05
1.01952e-05
1.01271e-05
1.00588e-05
1.00511e-05
1.0062e-05
1.0133e-05
1.02032e-05
1.02604e-05
1.02087e-05
1.00337e-05
9.60385e-06
8.96821e-06
9.3951e-06
9.81513e-06
9.98679e-06
1.00394e-05
9.98816e-06
9.92405e-06
9.86126e-06
9.85446e-06
9.86446e-06
9.92983e-06
9.99592e-06
1.00489e-05
9.99767e-06
9.82608e-06
9.4057e-06
8.75838e-06
9.19731e-06
9.60483e-06
9.77294e-06
9.82453e-06
9.77696e-06
9.71627e-06
9.65853e-06
9.65234e-06
9.66166e-06
9.72192e-06
9.78454e-06
9.83375e-06
9.78339e-06
9.61546e-06
9.20775e-06
8.55104e-06
8.99875e-06
9.39194e-06
9.55616e-06
9.607e-06
9.56221e-06
9.50443e-06
9.45103e-06
9.44546e-06
9.45409e-06
9.50995e-06
9.5696e-06
9.6159e-06
9.56621e-06
9.40226e-06
9.00897e-06
8.3457e-06
8.79805e-06
9.17594e-06
9.33592e-06
9.38636e-06
9.34354e-06
9.28826e-06
9.23862e-06
9.23365e-06
9.24161e-06
9.29365e-06
9.35074e-06
9.39496e-06
9.34561e-06
9.18597e-06
8.808e-06
8.14183e-06
8.59411e-06
8.95597e-06
9.11138e-06
9.16135e-06
9.12021e-06
9.06709e-06
9.02071e-06
9.01635e-06
9.02363e-06
9.07235e-06
9.12723e-06
9.16917e-06
9.12073e-06
8.96571e-06
8.60374e-06
7.93913e-06
8.38643e-06
8.73033e-06
8.84722e-06
8.87976e-06
8.86248e-06
8.83102e-06
8.7968e-06
8.79304e-06
8.79965e-06
8.83569e-06
8.86877e-06
8.88699e-06
8.85535e-06
8.73881e-06
8.39572e-06
7.7366e-06
8.17471e-06
8.43658e-06
8.54971e-06
8.58147e-06
8.56428e-06
8.53389e-06
8.50803e-06
8.50243e-06
8.51054e-06
8.53833e-06
8.57022e-06
8.58832e-06
8.55741e-06
8.44473e-06
8.1836e-06
7.53335e-06
7.93419e-06
8.12484e-06
8.2433e-06
8.27928e-06
8.25533e-06
8.2201e-06
8.19283e-06
8.18732e-06
8.19522e-06
8.22442e-06
8.26105e-06
8.28592e-06
8.25081e-06
8.13291e-06
7.94017e-06
7.32922e-06
7.6097e-06
7.81278e-06
7.93533e-06
7.97551e-06
7.94515e-06
7.90535e-06
7.87476e-06
7.8701e-06
7.87708e-06
7.90955e-06
7.95067e-06
7.98192e-06
7.94267e-06
7.82076e-06
7.61515e-06
7.07498e-06
7.2765e-06
7.50491e-06
7.62743e-06
7.67017e-06
7.63594e-06
7.59372e-06
7.56114e-06
7.55747e-06
7.56338e-06
7.59779e-06
7.64124e-06
7.67631e-06
7.63453e-06
7.51269e-06
7.28208e-06
6.75561e-06
6.95905e-06
7.20204e-06
7.3207e-06
7.36423e-06
7.32865e-06
7.28623e-06
7.25352e-06
7.25075e-06
7.25568e-06
7.29013e-06
7.33372e-06
7.37007e-06
7.32751e-06
7.20953e-06
6.96477e-06
6.44008e-06
6.66053e-06
6.90432e-06
7.01661e-06
7.05954e-06
7.02443e-06
6.98339e-06
6.95199e-06
6.94996e-06
6.95406e-06
6.98711e-06
7.02926e-06
7.06508e-06
7.02309e-06
6.91145e-06
6.66622e-06
6.14642e-06
6.37741e-06
6.61187e-06
6.71658e-06
6.75798e-06
6.72442e-06
6.68572e-06
6.65643e-06
6.65499e-06
6.65839e-06
6.68925e-06
6.72902e-06
6.76323e-06
6.72271e-06
6.61861e-06
6.38291e-06
5.87428e-06
6.10552e-06
6.32493e-06
6.42182e-06
6.4611e-06
6.42966e-06
6.39377e-06
6.3669e-06
6.36594e-06
6.36876e-06
6.39711e-06
6.43402e-06
6.46607e-06
6.4276e-06
6.33126e-06
6.11074e-06
5.61895e-06
5.84218e-06
6.04397e-06
6.1334e-06
6.1702e-06
6.14115e-06
6.10825e-06
6.0838e-06
6.08322e-06
6.08555e-06
6.1114e-06
6.14526e-06
6.17489e-06
6.13884e-06
6.04989e-06
5.84707e-06
5.37608e-06
5.58626e-06
5.76987e-06
5.85246e-06
5.88654e-06
5.86001e-06
5.83016e-06
5.80798e-06
5.80769e-06
5.80962e-06
5.8331e-06
5.86387e-06
5.89097e-06
5.85757e-06
5.7754e-06
5.59078e-06
5.14291e-06
5.33759e-06
5.50368e-06
5.5802e-06
5.61143e-06
5.58745e-06
5.56057e-06
5.54046e-06
5.54039e-06
5.54198e-06
5.56331e-06
5.59107e-06
5.61559e-06
5.58498e-06
5.50882e-06
5.34177e-06
4.91809e-06
5.09658e-06
5.24638e-06
5.31757e-06
5.34599e-06
5.32449e-06
5.3004e-06
5.28214e-06
5.28223e-06
5.28355e-06
5.30295e-06
5.32787e-06
5.3499e-06
5.32205e-06
5.25115e-06
5.10042e-06
4.70108e-06
4.86378e-06
4.99873e-06
5.06525e-06
5.09098e-06
5.07181e-06
5.0503e-06
5.03369e-06
5.03388e-06
5.035e-06
5.05266e-06
5.07496e-06
5.09464e-06
5.06943e-06
5.00316e-06
4.8673e-06
4.49156e-06
4.63948e-06
4.76106e-06
4.82334e-06
4.84662e-06
4.82957e-06
4.81036e-06
4.79526e-06
4.79554e-06
4.79648e-06
4.81254e-06
4.83249e-06
4.85005e-06
4.82725e-06
4.76517e-06
4.6427e-06
4.28897e-06
4.42339e-06
4.53295e-06
4.59124e-06
4.61238e-06
4.59719e-06
4.58001e-06
4.56634e-06
4.56668e-06
4.56746e-06
4.58203e-06
4.59991e-06
4.61559e-06
4.5949e-06
4.53677e-06
4.42635e-06
4.09242e-06
4.2146e-06
4.31331e-06
4.36773e-06
4.38701e-06
4.37343e-06
4.35804e-06
4.34573e-06
4.34613e-06
4.34677e-06
4.35992e-06
4.37596e-06
4.39002e-06
4.37115e-06
4.31685e-06
4.21733e-06
3.90075e-06
4.0118e-06
4.10061e-06
4.15124e-06
4.16891e-06
4.15673e-06
4.14293e-06
4.13193e-06
4.13239e-06
4.1329e-06
4.14467e-06
4.15909e-06
4.17174e-06
4.15445e-06
4.1039e-06
4.01431e-06
3.71278e-06
3.8136e-06
3.89332e-06
3.94025e-06
3.95649e-06
3.94554e-06
3.93319e-06
3.92345e-06
3.92396e-06
3.92434e-06
3.93481e-06
3.94776e-06
3.95915e-06
3.94326e-06
3.89638e-06
3.81591e-06
3.52749e-06
3.6188e-06
3.69011e-06
3.73345e-06
3.74841e-06
3.73857e-06
3.72754e-06
3.719e-06
3.71956e-06
3.71983e-06
3.72905e-06
3.74065e-06
3.75091e-06
3.73628e-06
3.69295e-06
3.62093e-06
3.34404e-06
3.42643e-06
3.48994e-06
3.52984e-06
3.5436e-06
3.53479e-06
3.52499e-06
3.51758e-06
3.51818e-06
3.51835e-06
3.5264e-06
3.53674e-06
3.54596e-06
3.5325e-06
3.49259e-06
3.42839e-06
3.16178e-06
3.23579e-06
3.29205e-06
3.32863e-06
3.34126e-06
3.33341e-06
3.32476e-06
3.3184e-06
3.31904e-06
3.31912e-06
3.32608e-06
3.33525e-06
3.34349e-06
3.33112e-06
3.2945e-06
3.23759e-06
2.98028e-06
3.04635e-06
3.09586e-06
3.12925e-06
3.14081e-06
3.13386e-06
3.1263e-06
3.1209e-06
3.12157e-06
3.12158e-06
3.12753e-06
3.13559e-06
3.14291e-06
3.1316e-06
3.09813e-06
3.048e-06
2.79918e-06
2.85777e-06
2.90098e-06
2.93132e-06
2.94183e-06
2.93574e-06
2.9292e-06
2.92469e-06
2.92537e-06
2.92531e-06
2.93035e-06
2.93736e-06
2.94381e-06
2.93352e-06
2.90308e-06
2.85928e-06
2.61819e-06
2.66974e-06
2.70707e-06
2.73451e-06
2.74399e-06
2.73871e-06
2.73313e-06
2.72942e-06
2.73013e-06
2.73001e-06
2.73422e-06
2.74024e-06
2.74586e-06
2.73657e-06
2.70902e-06
2.67111e-06
2.43648e-06
2.48153e-06
2.51346e-06
2.53819e-06
2.54668e-06
2.54215e-06
2.53747e-06
2.53447e-06
2.53519e-06
2.53501e-06
2.53849e-06
2.5436e-06
2.54845e-06
2.54013e-06
2.51525e-06
2.48278e-06
2.2507e-06
2.29026e-06
2.31742e-06
2.33991e-06
2.34749e-06
2.34359e-06
2.33971e-06
2.33732e-06
2.33808e-06
2.33785e-06
2.34069e-06
2.345e-06
2.34921e-06
2.34177e-06
2.31911e-06
2.29141e-06
2.06202e-06
2.09617e-06
2.11896e-06
2.1392e-06
2.14587e-06
2.14263e-06
2.13949e-06
2.13763e-06
2.13838e-06
2.13812e-06
2.1404e-06
2.14395e-06
2.14748e-06
2.14092e-06
2.1205e-06
2.0972e-06
1.8763e-06
1.90533e-06
1.9241e-06
1.94213e-06
1.94792e-06
1.94529e-06
1.94283e-06
1.94144e-06
1.94217e-06
1.94189e-06
1.94367e-06
1.94651e-06
1.94941e-06
1.94371e-06
1.9255e-06
1.90625e-06
1.69436e-06
1.71861e-06
1.73371e-06
1.7496e-06
1.75454e-06
1.75248e-06
1.75063e-06
1.74965e-06
1.75035e-06
1.75006e-06
1.75141e-06
1.75361e-06
1.75591e-06
1.75105e-06
1.73497e-06
1.71942e-06
1.51639e-06
1.53622e-06
1.54801e-06
1.56187e-06
1.566e-06
1.56446e-06
1.56317e-06
1.56254e-06
1.56321e-06
1.56291e-06
1.56388e-06
1.56549e-06
1.56726e-06
1.56319e-06
1.54913e-06
1.53693e-06
1.34288e-06
1.35868e-06
1.36752e-06
1.3795e-06
1.38286e-06
1.38179e-06
1.38098e-06
1.38064e-06
1.38127e-06
1.38098e-06
1.38163e-06
1.38273e-06
1.38402e-06
1.38068e-06
1.36852e-06
1.35929e-06
1.17467e-06
1.18685e-06
1.19314e-06
1.20336e-06
1.20603e-06
1.20536e-06
1.20497e-06
1.20487e-06
1.20546e-06
1.20518e-06
1.20556e-06
1.20621e-06
1.20707e-06
1.20442e-06
1.19401e-06
1.18738e-06
1.01288e-06
1.02182e-06
1.02589e-06
1.03451e-06
1.03653e-06
1.03621e-06
1.03618e-06
1.03626e-06
1.03681e-06
1.03654e-06
1.03671e-06
1.03697e-06
1.03746e-06
1.03544e-06
1.02665e-06
1.02226e-06
8.58563e-07
8.64258e-07
8.6615e-07
8.73245e-07
8.74589e-07
8.74645e-07
8.74992e-07
8.75248e-07
8.75739e-07
8.75493e-07
8.7546e-07
8.75324e-07
8.75414e-07
8.74061e-07
8.66786e-07
8.64614e-07
7.11146e-07
7.10377e-07
7.07534e-07
7.12859e-07
7.12747e-07
7.13752e-07
7.1511e-07
7.15809e-07
7.16276e-07
7.16037e-07
7.15545e-07
7.14389e-07
7.13519e-07
7.13586e-07
7.0805e-07
7.10616e-07
5.53882e-07
5.51572e-07
5.47977e-07
5.52104e-07
5.51658e-07
5.52751e-07
5.5416e-07
5.54864e-07
5.55257e-07
5.55054e-07
5.54523e-07
5.53284e-07
5.52303e-07
5.52703e-07
5.4839e-07
5.51746e-07
4.11835e-07
4.08753e-07
4.04999e-07
4.08084e-07
4.07499e-07
4.08544e-07
4.09865e-07
4.10515e-07
4.10831e-07
4.10668e-07
4.10154e-07
4.0897e-07
4.08017e-07
4.08559e-07
4.05316e-07
4.08874e-07
2.89233e-07
2.86062e-07
2.82643e-07
2.84858e-07
2.84282e-07
2.85183e-07
2.86305e-07
2.86843e-07
2.87082e-07
2.86958e-07
2.86523e-07
2.85505e-07
2.84676e-07
2.85214e-07
2.82874e-07
2.86142e-07
1.89554e-07
1.86815e-07
1.84069e-07
1.85578e-07
1.85098e-07
1.85802e-07
1.86666e-07
1.87068e-07
1.87237e-07
1.87148e-07
1.86819e-07
1.86029e-07
1.85376e-07
1.85829e-07
1.84228e-07
1.86864e-07
1.14473e-07
1.12452e-07
1.10521e-07
1.11475e-07
1.11129e-07
1.11621e-07
1.12216e-07
1.12487e-07
1.12596e-07
1.12539e-07
1.12315e-07
1.11767e-07
1.11308e-07
1.11636e-07
1.10622e-07
1.1248e-07
6.29561e-08
6.1682e-08
6.05034e-08
6.10513e-08
6.08385e-08
6.11401e-08
6.15016e-08
6.16638e-08
6.1727e-08
6.16939e-08
6.15586e-08
6.12246e-08
6.09423e-08
6.11446e-08
6.05612e-08
6.16969e-08
3.12052e-08
3.05223e-08
2.9902e-08
3.01831e-08
3.00721e-08
3.02326e-08
3.04235e-08
3.05087e-08
3.05412e-08
3.05242e-08
3.04528e-08
3.02761e-08
3.01256e-08
3.02311e-08
2.99315e-08
3.05296e-08
1.37918e-08
1.34821e-08
1.32029e-08
1.33303e-08
1.32816e-08
1.33549e-08
1.34417e-08
1.34805e-08
1.34952e-08
1.34875e-08
1.3455e-08
1.33746e-08
1.33057e-08
1.3352e-08
1.32163e-08
1.34853e-08
5.34921e-09
5.23116e-09
5.12476e-09
5.17497e-09
5.15713e-09
5.1857e-09
5.2193e-09
5.23441e-09
5.2402e-09
5.23716e-09
5.22451e-09
5.1934e-09
5.16657e-09
5.18345e-09
5.13e-09
5.23248e-09
1.76785e-09
1.73078e-09
1.69714e-09
1.7139e-09
1.70858e-09
1.71785e-09
1.72871e-09
1.73364e-09
1.73557e-09
1.73456e-09
1.73045e-09
1.72041e-09
1.7117e-09
1.71671e-09
1.69889e-09
1.73124e-09
4.71171e-10
4.62012e-10
4.53602e-10
4.581e-10
4.56871e-10
4.59261e-10
4.62053e-10
4.63335e-10
4.63853e-10
4.6358e-10
4.62517e-10
4.59943e-10
4.57701e-10
4.58848e-10
4.54073e-10
4.62145e-10
9.13763e-11
8.97606e-11
8.82527e-11
8.91289e-11
8.89309e-11
8.93754e-11
8.98932e-11
9.01343e-11
9.02353e-11
9.01818e-11
8.99834e-11
8.95076e-11
8.9091e-11
8.92736e-11
8.83447e-11
8.97882e-11
1.06179e-11
1.04474e-11
1.02857e-11
1.03873e-11
1.03687e-11
1.04184e-11
1.0476e-11
1.05033e-11
1.0515e-11
1.05087e-11
1.04865e-11
1.04337e-11
1.03872e-11
1.0404e-11
1.02965e-11
1.04508e-11
6.6406e-13
6.50915e-13
6.39249e-13
6.44768e-13
6.43177e-13
6.46822e-13
6.50837e-13
6.52699e-13
6.53347e-13
6.53015e-13
6.5144e-13
6.4771e-13
6.44258e-13
6.45735e-13
6.39851e-13
6.51065e-13
2.60839e-13
2.527e-13
2.46118e-13
2.47596e-13
2.46386e-13
2.4837e-13
2.50427e-13
2.51334e-13
2.51517e-13
2.51436e-13
2.5062e-13
2.48664e-13
2.46756e-13
2.47917e-13
2.46296e-13
2.52699e-13
1.21184e-05
1.28172e-05
1.34078e-05
1.31881e-05
1.29077e-05
1.27547e-05
1.27115e-05
1.27031e-05
1.27025e-05
1.27068e-05
1.27182e-05
1.27624e-05
1.29143e-05
1.31921e-05
1.34085e-05
1.28173e-05
1.24686e-05
1.29881e-05
1.33701e-05
1.31452e-05
1.28926e-05
1.27808e-05
1.27601e-05
1.27664e-05
1.27685e-05
1.277e-05
1.27664e-05
1.27883e-05
1.28989e-05
1.31487e-05
1.337e-05
1.29871e-05
1.27727e-05
1.31253e-05
1.33204e-05
1.30892e-05
1.28618e-05
1.27864e-05
1.27855e-05
1.28047e-05
1.2809e-05
1.28081e-05
1.27915e-05
1.27936e-05
1.28679e-05
1.30923e-05
1.33196e-05
1.31235e-05
1.30277e-05
1.32284e-05
1.32591e-05
1.30219e-05
1.28171e-05
1.27733e-05
1.27896e-05
1.28198e-05
1.28261e-05
1.2823e-05
1.27953e-05
1.27802e-05
1.28231e-05
1.30248e-05
1.32579e-05
1.32257e-05
1.32329e-05
1.32975e-05
1.31869e-05
1.29449e-05
1.27603e-05
1.27432e-05
1.27741e-05
1.28135e-05
1.28215e-05
1.28166e-05
1.27797e-05
1.275e-05
1.27662e-05
1.29475e-05
1.31852e-05
1.32941e-05
1.33891e-05
1.33338e-05
1.31041e-05
1.28592e-05
1.26925e-05
1.26979e-05
1.27409e-05
1.27877e-05
1.27969e-05
1.27907e-05
1.27463e-05
1.27045e-05
1.26984e-05
1.28617e-05
1.3102e-05
1.33298e-05
1.34981e-05
1.33388e-05
1.30113e-05
1.27657e-05
1.26149e-05
1.26387e-05
1.26914e-05
1.27438e-05
1.27541e-05
1.27468e-05
1.26967e-05
1.26453e-05
1.26208e-05
1.27681e-05
1.3009e-05
1.33342e-05
1.35624e-05
1.33144e-05
1.29089e-05
1.2665e-05
1.25284e-05
1.25675e-05
1.26274e-05
1.26842e-05
1.26952e-05
1.26871e-05
1.26327e-05
1.2574e-05
1.25342e-05
1.26674e-05
1.29064e-05
1.33094e-05
1.35851e-05
1.32633e-05
1.27976e-05
1.2558e-05
1.24344e-05
1.24857e-05
1.25516e-05
1.26114e-05
1.26229e-05
1.26143e-05
1.25568e-05
1.24922e-05
1.24403e-05
1.25603e-05
1.2795e-05
1.32579e-05
1.35698e-05
1.31882e-05
1.26777e-05
1.24457e-05
1.23344e-05
1.2395e-05
1.24653e-05
1.25272e-05
1.25388e-05
1.25301e-05
1.24705e-05
1.24015e-05
1.23403e-05
1.24481e-05
1.26753e-05
1.31826e-05
1.35202e-05
1.30917e-05
1.255e-05
1.23286e-05
1.22286e-05
1.22957e-05
1.23692e-05
1.24323e-05
1.24439e-05
1.24352e-05
1.23743e-05
1.23022e-05
1.22345e-05
1.2331e-05
1.25479e-05
1.3086e-05
1.34401e-05
1.29761e-05
1.24148e-05
1.22065e-05
1.21167e-05
1.21876e-05
1.22634e-05
1.23271e-05
1.23384e-05
1.23299e-05
1.22685e-05
1.21942e-05
1.21226e-05
1.22089e-05
1.24132e-05
1.29703e-05
1.3333e-05
1.28432e-05
1.22723e-05
1.2079e-05
1.19984e-05
1.20706e-05
1.21478e-05
1.22116e-05
1.22226e-05
1.22144e-05
1.21529e-05
1.20772e-05
1.20043e-05
1.20815e-05
1.22714e-05
1.28374e-05
1.3202e-05
1.26947e-05
1.21228e-05
1.19459e-05
1.18735e-05
1.19446e-05
1.20224e-05
1.20859e-05
1.20966e-05
1.20887e-05
1.20275e-05
1.19512e-05
1.18794e-05
1.19484e-05
1.21224e-05
1.26889e-05
1.30499e-05
1.25323e-05
1.19661e-05
1.18061e-05
1.17416e-05
1.18097e-05
1.18873e-05
1.19502e-05
1.19604e-05
1.1953e-05
1.18923e-05
1.18163e-05
1.17476e-05
1.18088e-05
1.19661e-05
1.25266e-05
1.28793e-05
1.23573e-05
1.18023e-05
1.16585e-05
1.16023e-05
1.16664e-05
1.17423e-05
1.18047e-05
1.18143e-05
1.18074e-05
1.17473e-05
1.1673e-05
1.16083e-05
1.16616e-05
1.18026e-05
1.23517e-05
1.26928e-05
1.21712e-05
1.16315e-05
1.15029e-05
1.1455e-05
1.15149e-05
1.15881e-05
1.16496e-05
1.16586e-05
1.16523e-05
1.15931e-05
1.15215e-05
1.14612e-05
1.15064e-05
1.16321e-05
1.21657e-05
1.24925e-05
1.19753e-05
1.1454e-05
1.13397e-05
1.12992e-05
1.13555e-05
1.14253e-05
1.14851e-05
1.14935e-05
1.14877e-05
1.14302e-05
1.1362e-05
1.13054e-05
1.13434e-05
1.14548e-05
1.197e-05
1.22804e-05
1.17708e-05
1.12701e-05
1.11692e-05
1.11352e-05
1.11886e-05
1.12544e-05
1.13122e-05
1.13199e-05
1.13148e-05
1.12593e-05
1.11952e-05
1.11416e-05
1.11732e-05
1.12711e-05
1.17657e-05
1.20584e-05
1.15587e-05
1.10804e-05
1.0992e-05
1.09639e-05
1.1015e-05
1.10763e-05
1.11316e-05
1.11386e-05
1.11342e-05
1.10811e-05
1.10214e-05
1.09703e-05
1.09962e-05
1.10815e-05
1.15538e-05
1.18281e-05
1.134e-05
1.08856e-05
1.08087e-05
1.07859e-05
1.08351e-05
1.08918e-05
1.09444e-05
1.09506e-05
1.0947e-05
1.08966e-05
1.08416e-05
1.07923e-05
1.08131e-05
1.08868e-05
1.13353e-05
1.15821e-05
1.11154e-05
1.06861e-05
1.062e-05
1.06018e-05
1.06497e-05
1.07021e-05
1.07513e-05
1.07567e-05
1.07539e-05
1.07069e-05
1.06561e-05
1.06082e-05
1.06244e-05
1.06873e-05
1.11108e-05
1.11774e-05
1.08852e-05
1.04822e-05
1.04262e-05
1.0412e-05
1.04591e-05
1.05078e-05
1.0553e-05
1.05577e-05
1.05555e-05
1.05125e-05
1.04653e-05
1.04184e-05
1.04307e-05
1.04835e-05
1.08807e-05
1.07598e-05
1.06495e-05
1.02744e-05
1.02278e-05
1.02173e-05
1.02636e-05
1.03091e-05
1.03502e-05
1.03542e-05
1.03527e-05
1.03138e-05
1.02697e-05
1.02236e-05
1.02323e-05
1.02757e-05
1.06451e-05
1.03834e-05
1.0329e-05
1.0063e-05
1.00254e-05
1.0018e-05
1.00637e-05
1.01064e-05
1.01438e-05
1.01472e-05
1.01462e-05
1.0111e-05
1.00698e-05
1.00242e-05
1.00299e-05
1.00644e-05
1.03295e-05
1.00571e-05
9.98882e-06
9.84865e-06
9.81944e-06
9.81473e-06
9.85997e-06
9.90008e-06
9.93438e-06
9.9373e-06
9.93676e-06
9.9046e-06
9.86588e-06
9.82086e-06
9.82388e-06
9.85002e-06
9.9906e-06
9.77128e-06
9.67196e-06
9.62664e-06
9.60938e-06
9.60706e-06
9.64306e-06
9.66342e-06
9.6718e-06
9.67769e-06
9.67428e-06
9.66792e-06
9.64889e-06
9.61307e-06
9.61376e-06
9.62981e-06
9.67356e-06
9.5107e-06
9.38427e-06
9.34691e-06
9.34901e-06
9.34903e-06
9.37377e-06
9.39173e-06
9.39642e-06
9.4022e-06
9.39882e-06
9.39603e-06
9.3793e-06
9.35498e-06
9.35407e-06
9.35024e-06
9.38526e-06
9.261e-06
9.11601e-06
9.05357e-06
9.06027e-06
9.06255e-06
9.09064e-06
9.11226e-06
9.1216e-06
9.12613e-06
9.12388e-06
9.11632e-06
9.09584e-06
9.06814e-06
9.06508e-06
9.05643e-06
9.11635e-06
9.01065e-06
8.85305e-06
8.75925e-06
8.76587e-06
8.7704e-06
8.80549e-06
8.83112e-06
8.84652e-06
8.84954e-06
8.84867e-06
8.83496e-06
8.81038e-06
8.7756e-06
8.77019e-06
8.76147e-06
8.85281e-06
8.75118e-06
8.58267e-06
8.46471e-06
8.47183e-06
8.47866e-06
8.5192e-06
8.547e-06
8.56704e-06
8.56866e-06
8.56909e-06
8.55067e-06
8.52384e-06
8.48352e-06
8.47569e-06
8.46643e-06
8.58196e-06
8.47671e-06
8.2985e-06
8.16944e-06
8.17857e-06
8.18743e-06
8.23066e-06
8.25862e-06
8.28114e-06
8.2816e-06
8.28309e-06
8.26214e-06
8.23509e-06
8.19202e-06
8.18209e-06
8.17081e-06
8.29751e-06
8.18542e-06
8.0012e-06
7.87304e-06
7.88523e-06
7.89566e-06
7.93929e-06
7.96601e-06
7.98925e-06
7.98882e-06
7.99112e-06
7.96939e-06
7.94354e-06
7.90003e-06
7.8885e-06
7.8742e-06
8.0001e-06
7.87916e-06
7.69498e-06
7.5755e-06
7.59104e-06
7.60251e-06
7.64509e-06
7.66988e-06
7.69276e-06
7.69166e-06
7.69454e-06
7.67313e-06
7.64916e-06
7.60669e-06
7.59414e-06
7.57656e-06
7.69392e-06
7.56272e-06
7.38459e-06
7.27732e-06
7.29589e-06
7.30787e-06
7.34866e-06
7.37136e-06
7.39332e-06
7.39171e-06
7.39502e-06
7.37447e-06
7.35256e-06
7.31189e-06
7.29888e-06
7.27835e-06
7.38363e-06
7.24185e-06
7.07395e-06
6.97945e-06
7.00043e-06
7.01249e-06
7.05116e-06
7.0719e-06
7.09269e-06
7.09072e-06
7.0943e-06
7.07485e-06
7.05489e-06
7.01634e-06
7.00333e-06
6.98047e-06
7.07312e-06
6.92155e-06
6.76606e-06
6.68328e-06
6.70596e-06
6.71774e-06
6.75422e-06
6.77324e-06
6.79277e-06
6.79056e-06
6.79429e-06
6.77604e-06
6.75778e-06
6.72145e-06
6.70876e-06
6.68432e-06
6.76537e-06
6.60566e-06
6.46331e-06
6.39059e-06
6.41427e-06
6.42555e-06
6.45986e-06
6.47743e-06
6.49565e-06
6.49333e-06
6.49708e-06
6.48007e-06
6.46324e-06
6.4291e-06
6.41699e-06
6.39164e-06
6.46273e-06
6.29714e-06
6.16777e-06
6.1034e-06
6.12752e-06
6.13814e-06
6.17035e-06
6.18672e-06
6.20363e-06
6.20128e-06
6.20496e-06
6.1892e-06
6.17356e-06
6.14153e-06
6.13016e-06
6.10448e-06
6.16731e-06
5.9983e-06
5.88139e-06
5.82392e-06
5.84802e-06
5.85788e-06
5.88809e-06
5.90344e-06
5.91903e-06
5.91674e-06
5.92026e-06
5.90576e-06
5.89111e-06
5.86111e-06
5.85056e-06
5.82501e-06
5.88102e-06
5.71085e-06
5.60562e-06
5.55397e-06
5.57774e-06
5.58682e-06
5.61512e-06
5.62959e-06
5.64389e-06
5.64171e-06
5.64503e-06
5.63174e-06
5.61795e-06
5.58987e-06
5.58017e-06
5.55506e-06
5.60533e-06
5.43558e-06
5.34109e-06
5.29455e-06
5.31781e-06
5.32616e-06
5.35264e-06
5.3663e-06
5.37941e-06
5.37734e-06
5.38045e-06
5.3683e-06
5.35529e-06
5.32904e-06
5.32013e-06
5.29564e-06
5.34087e-06
5.17221e-06
5.08739e-06
5.04564e-06
5.06829e-06
5.07602e-06
5.10078e-06
5.11364e-06
5.12566e-06
5.12369e-06
5.12661e-06
5.11549e-06
5.10324e-06
5.07874e-06
5.07052e-06
5.04673e-06
5.08724e-06
4.91944e-06
4.84325e-06
4.80619e-06
4.82822e-06
4.83545e-06
4.85854e-06
4.87059e-06
4.88164e-06
4.87976e-06
4.88252e-06
4.87231e-06
4.86085e-06
4.83803e-06
4.83035e-06
4.8073e-06
4.84317e-06
4.67539e-06
4.6069e-06
4.57452e-06
4.5959e-06
4.60277e-06
4.62422e-06
4.63544e-06
4.64564e-06
4.64381e-06
4.64645e-06
4.63704e-06
4.62639e-06
4.60521e-06
4.59795e-06
4.57563e-06
4.60688e-06
4.43815e-06
4.37655e-06
4.34879e-06
4.3695e-06
4.37612e-06
4.39597e-06
4.40635e-06
4.41578e-06
4.41398e-06
4.41653e-06
4.40784e-06
4.39802e-06
4.37844e-06
4.37148e-06
4.3499e-06
4.37658e-06
4.20608e-06
4.15073e-06
4.12742e-06
4.14743e-06
4.15386e-06
4.17217e-06
4.1817e-06
4.19042e-06
4.18865e-06
4.19112e-06
4.1831e-06
4.17411e-06
4.15607e-06
4.14934e-06
4.12854e-06
4.15082e-06
3.97797e-06
3.92833e-06
3.90922e-06
3.92848e-06
3.93476e-06
3.95158e-06
3.96029e-06
3.96833e-06
3.96661e-06
3.96898e-06
3.96161e-06
3.95342e-06
3.93688e-06
3.93033e-06
3.91034e-06
3.92847e-06
3.75296e-06
3.70857e-06
3.69334e-06
3.71182e-06
3.71798e-06
3.73335e-06
3.74127e-06
3.74867e-06
3.747e-06
3.74928e-06
3.74253e-06
3.7351e-06
3.72001e-06
3.71362e-06
3.69447e-06
3.70876e-06
3.53046e-06
3.49094e-06
3.47925e-06
3.49691e-06
3.50296e-06
3.51694e-06
3.52413e-06
3.53088e-06
3.52928e-06
3.53146e-06
3.52532e-06
3.51861e-06
3.50491e-06
3.49866e-06
3.48038e-06
3.49118e-06
3.31013e-06
3.27515e-06
3.26665e-06
3.28348e-06
3.28942e-06
3.30208e-06
3.30857e-06
3.31469e-06
3.31318e-06
3.31523e-06
3.3097e-06
3.30367e-06
3.29129e-06
3.28518e-06
3.26778e-06
3.27542e-06
3.09184e-06
3.06108e-06
3.05544e-06
3.07145e-06
3.07728e-06
3.08868e-06
3.09453e-06
3.10003e-06
3.09861e-06
3.10054e-06
3.0956e-06
3.0902e-06
3.07907e-06
3.07309e-06
3.05658e-06
3.06139e-06
2.87557e-06
2.84876e-06
2.84567e-06
2.86088e-06
2.86659e-06
2.8768e-06
2.88205e-06
2.88694e-06
2.88563e-06
2.88742e-06
2.88307e-06
2.87825e-06
2.86831e-06
2.86246e-06
2.8468e-06
2.8491e-06
2.6612e-06
2.63805e-06
2.63726e-06
2.65173e-06
2.65736e-06
2.66646e-06
2.67116e-06
2.67546e-06
2.67426e-06
2.67591e-06
2.67213e-06
2.66784e-06
2.65901e-06
2.65328e-06
2.63838e-06
2.63841e-06
2.44762e-06
2.42772e-06
2.42914e-06
2.4432e-06
2.44886e-06
2.45697e-06
2.46118e-06
2.4649e-06
2.46383e-06
2.46533e-06
2.46209e-06
2.45829e-06
2.45047e-06
2.44473e-06
2.43027e-06
2.42811e-06
2.23219e-06
2.21538e-06
2.21835e-06
2.23162e-06
2.23711e-06
2.24431e-06
2.24811e-06
2.25132e-06
2.25036e-06
2.25173e-06
2.24899e-06
2.24557e-06
2.23864e-06
2.23308e-06
2.21945e-06
2.21578e-06
2.02142e-06
2.0075e-06
2.01171e-06
2.02414e-06
2.02943e-06
2.03572e-06
2.0391e-06
2.0418e-06
2.04096e-06
2.04219e-06
2.03993e-06
2.03691e-06
2.03087e-06
2.02552e-06
2.01278e-06
2.0079e-06
1.81643e-06
1.80518e-06
1.81041e-06
1.82199e-06
1.82707e-06
1.83251e-06
1.83549e-06
1.83772e-06
1.837e-06
1.83808e-06
1.83626e-06
1.83362e-06
1.82841e-06
1.8233e-06
1.81144e-06
1.80558e-06
1.61756e-06
1.60876e-06
1.61478e-06
1.62551e-06
1.63034e-06
1.63501e-06
1.63763e-06
1.63942e-06
1.63882e-06
1.63975e-06
1.63834e-06
1.63604e-06
1.63159e-06
1.62673e-06
1.61576e-06
1.60915e-06
1.42536e-06
1.41878e-06
1.42533e-06
1.4352e-06
1.43974e-06
1.44371e-06
1.44601e-06
1.44741e-06
1.44693e-06
1.44771e-06
1.44666e-06
1.44466e-06
1.4409e-06
1.43633e-06
1.42626e-06
1.41916e-06
1.24066e-06
1.23607e-06
1.24291e-06
1.25188e-06
1.2561e-06
1.25944e-06
1.26144e-06
1.2625e-06
1.26213e-06
1.26277e-06
1.26203e-06
1.26031e-06
1.25715e-06
1.25292e-06
1.24378e-06
1.23644e-06
1.06437e-06
1.06155e-06
1.06848e-06
1.07653e-06
1.0804e-06
1.08317e-06
1.0849e-06
1.08567e-06
1.0854e-06
1.08591e-06
1.08544e-06
1.08396e-06
1.08136e-06
1.07748e-06
1.06928e-06
1.0619e-06
8.96406e-07
8.9547e-07
9.02492e-07
9.097e-07
9.13278e-07
9.15507e-07
9.16977e-07
9.1744e-07
9.17279e-07
9.17662e-07
9.17456e-07
9.16211e-07
9.14138e-07
9.10562e-07
9.03227e-07
8.95805e-07
7.27672e-07
7.31284e-07
7.4011e-07
7.47265e-07
7.51086e-07
7.52569e-07
7.53739e-07
7.53559e-07
7.53602e-07
7.53768e-07
7.54195e-07
7.5325e-07
7.51929e-07
7.48132e-07
7.40883e-07
7.31666e-07
5.62463e-07
5.66657e-07
5.74381e-07
5.80357e-07
5.83594e-07
5.84729e-07
5.85687e-07
5.85423e-07
5.85501e-07
5.85599e-07
5.8607e-07
5.85305e-07
5.8431e-07
5.81095e-07
5.75043e-07
5.66996e-07
4.14955e-07
4.19187e-07
4.25566e-07
4.30362e-07
4.3299e-07
4.33829e-07
4.34584e-07
4.34292e-07
4.34384e-07
4.34433e-07
4.34893e-07
4.34297e-07
4.33572e-07
4.30964e-07
4.26109e-07
4.19474e-07
2.89116e-07
2.9289e-07
2.97846e-07
3.01495e-07
3.03513e-07
3.04106e-07
3.04671e-07
3.04396e-07
3.04485e-07
3.04503e-07
3.04907e-07
3.04465e-07
3.03961e-07
3.0196e-07
2.98267e-07
2.93118e-07
1.88014e-07
1.91004e-07
1.94568e-07
1.97156e-07
1.98598e-07
1.98994e-07
1.99388e-07
1.99163e-07
1.99238e-07
1.99239e-07
1.99556e-07
1.9925e-07
1.98918e-07
1.97489e-07
1.94871e-07
1.9117e-07
1.12753e-07
1.14845e-07
1.17177e-07
1.18856e-07
1.19798e-07
1.20044e-07
1.20296e-07
1.20136e-07
1.2019e-07
1.20186e-07
1.20405e-07
1.2021e-07
1.20006e-07
1.19074e-07
1.17376e-07
1.14955e-07
6.16744e-08
6.29535e-08
6.43176e-08
6.52954e-08
6.58467e-08
6.59869e-08
6.61335e-08
6.60354e-08
6.60691e-08
6.60642e-08
6.61971e-08
6.60843e-08
6.5969e-08
6.5423e-08
6.44343e-08
6.30185e-08
3.04737e-08
3.11491e-08
3.18526e-08
3.23566e-08
3.26421e-08
3.27145e-08
3.27903e-08
3.2739e-08
3.27571e-08
3.27539e-08
3.28232e-08
3.27649e-08
3.27054e-08
3.24227e-08
3.19131e-08
3.11829e-08
1.34619e-08
1.37674e-08
1.4084e-08
1.43114e-08
1.44406e-08
1.4474e-08
1.45087e-08
1.44859e-08
1.44942e-08
1.44927e-08
1.45236e-08
1.44968e-08
1.44693e-08
1.43413e-08
1.41113e-08
1.37827e-08
5.23152e-09
5.34881e-09
5.47163e-09
5.56027e-09
5.61079e-09
5.62429e-09
5.63817e-09
5.62964e-09
5.6329e-09
5.63231e-09
5.64403e-09
5.63324e-09
5.622e-09
5.57196e-09
5.48228e-09
5.35477e-09
1.73556e-09
1.77296e-09
1.81308e-09
1.84222e-09
1.85886e-09
1.86351e-09
1.86823e-09
1.8656e-09
1.86667e-09
1.86649e-09
1.87018e-09
1.86647e-09
1.86256e-09
1.84607e-09
1.81657e-09
1.77491e-09
4.6488e-10
4.74322e-10
4.84809e-10