/*--------------------------------*- C++ -*----------------------------------*\
| =========                 |                                                 |
| \\      /  F ield         | OpenFOAM: The Open Source CFD Toolbox           |
|  \\    /   O peration     | Version:  v1912                                 |
|   \\  /    A nd           | Website:  www.openfoam.com                      |
|    \\/     M anipulation  |                                                 |
\*---------------------------------------------------------------------------*/
FoamFile
{
    version     2.0;
    format      ascii;
    class       volScalarField;
    location    "8.8";
    object      k;
}
// * * * * * * * * * * * * * * * * * * * * * * * * * * * * * * * * * * * * * //

dimensions      [0 2 -2 0 0 0 0];


internalField   nonuniform List<scalar> 
34128
(
6.86772e-07
6.59791e-07
6.41893e-07
6.64984e-07
6.89251e-07
7.06514e-07
7.23252e-07
7.23078e-07
7.00116e-07
6.60624e-07
6.43292e-07
6.6377e-07
1.11644e-07
1.07088e-07
1.04206e-07
1.07948e-07
1.11907e-07
1.147e-07
1.17448e-07
1.17598e-07
1.1393e-07
1.07309e-07
1.04219e-07
1.07603e-07
6.91937e-08
6.53931e-08
6.38265e-08
6.60357e-08
6.84976e-08
7.01047e-08
7.1951e-08
7.31285e-08
7.13404e-08
6.60732e-08
6.24203e-08
6.47587e-08
1.39967e-07
1.30809e-07
1.28009e-07
1.32181e-07
1.37109e-07
1.40176e-07
1.44126e-07
1.48198e-07
1.45384e-07
1.32993e-07
1.2282e-07
1.27793e-07
3.18044e-07
2.96793e-07
2.90637e-07
2.99563e-07
3.10572e-07
3.17528e-07
3.26588e-07
3.36544e-07
3.30561e-07
3.01913e-07
2.77495e-07
2.88524e-07
6.30774e-07
5.89154e-07
5.77124e-07
5.9353e-07
6.14869e-07
6.28823e-07
6.46734e-07
6.66537e-07
6.54897e-07
5.98771e-07
5.50038e-07
5.709e-07
1.10282e-06
1.03184e-06
1.01113e-06
1.03697e-06
1.07319e-06
1.09793e-06
1.12892e-06
1.1631e-06
1.14298e-06
1.04715e-06
9.62574e-07
9.96854e-07
1.74489e-06
1.63626e-06
1.60407e-06
1.63951e-06
1.6948e-06
1.73461e-06
1.78283e-06
1.83573e-06
1.80415e-06
1.65744e-06
1.5258e-06
1.57608e-06
2.54832e-06
2.39595e-06
2.3496e-06
2.39224e-06
2.46997e-06
2.52947e-06
2.59833e-06
2.67304e-06
2.62695e-06
2.42146e-06
2.23406e-06
2.30121e-06
3.48507e-06
3.28598e-06
3.22284e-06
3.2676e-06
3.37007e-06
3.45421e-06
3.54595e-06
3.64322e-06
3.57931e-06
3.3121e-06
3.06477e-06
3.1476e-06
4.51219e-06
4.26684e-06
4.1839e-06
4.22365e-06
4.35232e-06
4.46634e-06
4.582e-06
4.69932e-06
4.61379e-06
4.28747e-06
3.98172e-06
4.07704e-06
5.57846e-06
5.29028e-06
5.18386e-06
5.2107e-06
5.3664e-06
5.5157e-06
5.6552e-06
5.78662e-06
5.67508e-06
5.2974e-06
4.94045e-06
5.04338e-06
6.63163e-06
6.30579e-06
6.17235e-06
6.17847e-06
6.3618e-06
6.55206e-06
6.7156e-06
6.85367e-06
6.71059e-06
6.29019e-06
5.89355e-06
5.99816e-06
7.65054e-06
7.29294e-06
7.12869e-06
7.10706e-06
7.31858e-06
7.55534e-06
7.74281e-06
7.87881e-06
7.6984e-06
7.24511e-06
6.8191e-06
6.91938e-06
8.61686e-06
8.23398e-06
8.03541e-06
7.98022e-06
8.22023e-06
8.50824e-06
8.71909e-06
8.84369e-06
8.62069e-06
8.14493e-06
7.7007e-06
7.79084e-06
9.51502e-06
9.11376e-06
8.87828e-06
8.78523e-06
9.05349e-06
9.39609e-06
9.62909e-06
9.73315e-06
9.46341e-06
8.97581e-06
8.52473e-06
8.59952e-06
1.03318e-05
9.91943e-06
9.64589e-06
9.51232e-06
9.80774e-06
1.02064e-05
1.04595e-05
1.05347e-05
1.02157e-05
9.72692e-06
9.27997e-06
9.33515e-06
1.10564e-05
1.06403e-05
1.03293e-05
1.01542e-05
1.04747e-05
1.09287e-05
1.11991e-05
1.12384e-05
1.08695e-05
1.039e-05
9.95739e-06
9.98985e-06
1.16803e-05
1.12678e-05
1.09217e-05
1.07059e-05
1.10482e-05
1.15544e-05
1.18384e-05
1.18367e-05
1.14192e-05
1.09592e-05
1.055e-05
1.05578e-05
1.21973e-05
1.17954e-05
1.14182e-05
1.11644e-05
1.15244e-05
1.20773e-05
1.23707e-05
1.23246e-05
1.18617e-05
1.14308e-05
1.10528e-05
1.10353e-05
1.26038e-05
1.22188e-05
1.18161e-05
1.15288e-05
1.19014e-05
1.24933e-05
1.27915e-05
1.26997e-05
1.21964e-05
1.18034e-05
1.14629e-05
1.14205e-05
1.28984e-05
1.2536e-05
1.21145e-05
1.17997e-05
1.21793e-05
1.28006e-05
1.30988e-05
1.2962e-05
1.24254e-05
1.20773e-05
1.1779e-05
1.17134e-05
1.30822e-05
1.27471e-05
1.23145e-05
1.19793e-05
1.23598e-05
1.29992e-05
1.32926e-05
1.31139e-05
1.25528e-05
1.22544e-05
1.2001e-05
1.19155e-05
1.31583e-05
1.28544e-05
1.24187e-05
1.20711e-05
1.24459e-05
1.30912e-05
1.33756e-05
1.31601e-05
1.25846e-05
1.2338e-05
1.21303e-05
1.20293e-05
1.31322e-05
1.28619e-05
1.24317e-05
1.20797e-05
1.2442e-05
1.30809e-05
1.33526e-05
1.31076e-05
1.25283e-05
1.23326e-05
1.21694e-05
1.20584e-05
1.30113e-05
1.2776e-05
1.23594e-05
1.20113e-05
1.23539e-05
1.29746e-05
1.32308e-05
1.29646e-05
1.23925e-05
1.22443e-05
1.21222e-05
1.20067e-05
1.28048e-05
1.2605e-05
1.22095e-05
1.18727e-05
1.2189e-05
1.27807e-05
1.30193e-05
1.27412e-05
1.21864e-05
1.20806e-05
1.19947e-05
1.188e-05
1.25232e-05
1.23586e-05
1.1991e-05
1.16717e-05
1.19557e-05
1.25091e-05
1.27289e-05
1.2448e-05
1.19197e-05
1.18501e-05
1.17944e-05
1.16852e-05
1.21777e-05
1.20473e-05
1.17134e-05
1.14167e-05
1.16633e-05
1.21707e-05
1.2371e-05
1.20957e-05
1.16018e-05
1.15623e-05
1.15306e-05
1.14303e-05
1.17791e-05
1.16817e-05
1.13859e-05
1.11155e-05
1.13209e-05
1.17764e-05
1.19567e-05
1.16945e-05
1.12419e-05
1.12262e-05
1.1213e-05
1.11239e-05
1.13364e-05
1.12709e-05
1.10169e-05
1.07753e-05
1.09366e-05
1.13354e-05
1.14956e-05
1.12533e-05
1.08479e-05
1.08503e-05
1.08508e-05
1.0774e-05
1.08583e-05
1.08229e-05
1.06131e-05
1.04017e-05
1.05173e-05
1.08567e-05
1.0997e-05
1.07801e-05
1.04263e-05
1.04416e-05
1.04516e-05
1.03874e-05
1.0356e-05
1.03463e-05
1.0179e-05
9.99718e-06
1.00701e-05
1.03535e-05
1.04763e-05
1.02857e-05
9.98078e-06
1.00047e-05
1.00208e-05
9.96865e-06
9.84857e-06
9.85903e-06
9.73032e-06
9.57648e-06
9.6124e-06
9.84616e-06
9.95524e-06
9.78826e-06
9.52509e-06
9.55456e-06
9.57545e-06
9.53428e-06
9.35733e-06
9.38144e-06
9.2861e-06
9.15881e-06
9.16496e-06
9.3575e-06
9.45731e-06
9.30844e-06
9.07669e-06
9.11031e-06
9.13636e-06
9.10498e-06
8.90337e-06
8.93401e-06
8.86601e-06
8.76468e-06
8.74918e-06
8.9098e-06
9.00509e-06
8.86665e-06
8.65416e-06
8.692e-06
8.72513e-06
8.70223e-06
8.5063e-06
8.53622e-06
8.4894e-06
8.41439e-06
8.38557e-06
8.52369e-06
8.61904e-06
8.48195e-06
8.27585e-06
8.31939e-06
8.36246e-06
8.34668e-06
8.1838e-06
8.20622e-06
8.17477e-06
8.1274e-06
8.09314e-06
8.21766e-06
8.31722e-06
8.17159e-06
7.95921e-06
8.01136e-06
8.06751e-06
8.05734e-06
7.95154e-06
7.96062e-06
7.93939e-06
7.92137e-06
7.88832e-06
8.00686e-06
8.11379e-06
7.95025e-06
7.72022e-06
7.7853e-06
7.85762e-06
7.8512e-06
7.81902e-06
7.81069e-06
7.79514e-06
7.806e-06
7.78007e-06
7.90039e-06
8.01643e-06
7.82628e-06
7.56906e-06
7.65156e-06
7.74361e-06
7.73929e-06
7.77663e-06
7.74908e-06
7.73358e-06
7.77558e-06
7.76464e-06
7.87026e-06
7.97466e-06
7.79334e-06
7.50234e-06
7.60386e-06
7.71561e-06
7.71066e-06
7.77381e-06
7.75399e-06
7.75076e-06
7.81194e-06
7.78957e-06
7.86021e-06
7.94954e-06
7.7946e-06
7.52158e-06
7.63367e-06
7.73797e-06
7.72848e-06
7.77894e-06
7.7725e-06
7.78793e-06
7.85872e-06
7.82312e-06
7.86459e-06
7.94121e-06
7.80613e-06
7.56987e-06
7.68205e-06
7.76562e-06
7.74975e-06
7.79316e-06
7.79696e-06
7.8298e-06
7.91106e-06
7.86574e-06
7.8829e-06
7.94838e-06
7.82933e-06
7.62333e-06
7.73746e-06
7.798e-06
7.77484e-06
7.81646e-06
7.8293e-06
7.87896e-06
7.96898e-06
7.91535e-06
7.91208e-06
7.96778e-06
7.86351e-06
7.68383e-06
7.79959e-06
7.83433e-06
7.80378e-06
7.84715e-06
7.86889e-06
7.93514e-06
8.03026e-06
7.96836e-06
7.94803e-06
7.99544e-06
7.90638e-06
7.75122e-06
7.86596e-06
7.87213e-06
7.83472e-06
7.88298e-06
7.91385e-06
7.9964e-06
8.09173e-06
8.0209e-06
7.98671e-06
8.02763e-06
7.95504e-06
7.82367e-06
7.93323e-06
7.90866e-06
7.86529e-06
7.92175e-06
7.96195e-06
8.06015e-06
8.15027e-06
8.06973e-06
8.02478e-06
8.06133e-06
8.00663e-06
7.89861e-06
7.99807e-06
7.94169e-06
7.8935e-06
7.96173e-06
8.01119e-06
8.12388e-06
8.20335e-06
8.11252e-06
8.05979e-06
8.09432e-06
8.05874e-06
7.97337e-06
8.05794e-06
7.96983e-06
7.91802e-06
8.00165e-06
8.06004e-06
8.18548e-06
8.24916e-06
8.14792e-06
8.09026e-06
8.12519e-06
8.10963e-06
8.04577e-06
8.11143e-06
7.99251e-06
7.93826e-06
8.04072e-06
8.10745e-06
8.24328e-06
8.28656e-06
8.17536e-06
8.11547e-06
8.15318e-06
8.15834e-06
8.11453e-06
8.15782e-06
8.00981e-06
7.95419e-06
8.07849e-06
8.15279e-06
8.29603e-06
8.31446e-06
8.19439e-06
8.13489e-06
8.17754e-06
8.20417e-06
8.17885e-06
8.19627e-06
8.02209e-06
7.96605e-06
8.11479e-06
8.19569e-06
8.3425e-06
8.3316e-06
8.20434e-06
8.14776e-06
8.19711e-06
8.24605e-06
8.23746e-06
8.22588e-06
8.02972e-06
7.97402e-06
8.14941e-06
8.23596e-06
8.3815e-06
8.33675e-06
8.2046e-06
8.15335e-06
8.21083e-06
8.28273e-06
8.28901e-06
8.2464e-06
8.03289e-06
7.97813e-06
8.18182e-06
8.27309e-06
8.41209e-06
8.32933e-06
8.19492e-06
8.15137e-06
8.21816e-06
8.31378e-06
8.33328e-06
8.25839e-06
8.03187e-06
7.97848e-06
8.21122e-06
8.30642e-06
8.43295e-06
8.30954e-06
8.17595e-06
8.14222e-06
8.21911e-06
8.33911e-06
8.37026e-06
8.26205e-06
8.02704e-06
7.97522e-06
8.23738e-06
8.3358e-06
8.44218e-06
8.27905e-06
8.14924e-06
8.12684e-06
8.21392e-06
8.35781e-06
8.39862e-06
8.25821e-06
8.01897e-06
7.96868e-06
8.26051e-06
8.36093e-06
8.43902e-06
8.24037e-06
8.11708e-06
8.10667e-06
8.20339e-06
8.36957e-06
8.41773e-06
8.24827e-06
8.00834e-06
7.95926e-06
8.28001e-06
8.38046e-06
8.42373e-06
8.19638e-06
8.08193e-06
8.08334e-06
8.18854e-06
8.37462e-06
8.42776e-06
8.23382e-06
7.99598e-06
7.94749e-06
8.2954e-06
8.39323e-06
8.39728e-06
8.14994e-06
8.04603e-06
8.05839e-06
8.17042e-06
8.37343e-06
8.42935e-06
8.21637e-06
7.98268e-06
7.93394e-06
8.3063e-06
8.3983e-06
8.36125e-06
8.10369e-06
8.01066e-06
8.03304e-06
8.14995e-06
8.36653e-06
8.42338e-06
8.1972e-06
7.96908e-06
7.91922e-06
8.31237e-06
8.39493e-06
8.31771e-06
8.05957e-06
7.97624e-06
8.00812e-06
8.1279e-06
8.35443e-06
8.4108e-06
8.17726e-06
7.95571e-06
7.90388e-06
8.31334e-06
8.38264e-06
8.26908e-06
8.01783e-06
7.94319e-06
7.98409e-06
8.10492e-06
8.33757e-06
8.39251e-06
8.15719e-06
7.94292e-06
7.88839e-06
8.30903e-06
8.36136e-06
8.21794e-06
7.97832e-06
7.91209e-06
7.961e-06
8.08155e-06
8.31638e-06
8.36936e-06
8.13736e-06
7.93091e-06
7.87314e-06
8.29935e-06
8.33164e-06
8.16682e-06
7.94152e-06
7.88333e-06
7.93914e-06
8.05828e-06
8.29131e-06
8.34215e-06
8.11791e-06
7.91981e-06
7.85846e-06
8.2844e-06
8.29469e-06
8.11806e-06
7.90805e-06
7.85723e-06
7.91888e-06
8.03553e-06
8.26286e-06
8.31161e-06
8.09881e-06
7.90962e-06
7.84466e-06
8.26445e-06
8.25238e-06
8.07337e-06
7.87828e-06
7.83408e-06
7.9005e-06
8.01361e-06
8.23173e-06
8.27847e-06
8.07992e-06
7.90031e-06
7.83204e-06
8.2401e-06
8.20702e-06
8.03257e-06
7.85243e-06
7.81411e-06
7.88421e-06
7.99248e-06
8.1988e-06
8.24348e-06
8.06106e-06
7.89176e-06
7.82088e-06
8.21228e-06
8.16097e-06
7.9952e-06
7.83059e-06
7.79751e-06
7.87025e-06
7.9724e-06
8.16512e-06
8.20752e-06
8.04209e-06
7.88384e-06
7.8114e-06
8.18233e-06
8.11647e-06
7.96154e-06
7.81277e-06
7.78446e-06
7.85892e-06
7.95382e-06
8.13189e-06
8.17159e-06
8.02288e-06
7.87635e-06
7.80373e-06
8.15181e-06
8.07495e-06
7.93198e-06
7.79888e-06
7.77508e-06
7.85052e-06
7.93719e-06
8.10036e-06
8.1369e-06
8.00335e-06
7.86909e-06
7.79788e-06
8.12232e-06
8.03609e-06
7.90668e-06
7.78877e-06
7.76951e-06
7.84533e-06
7.92294e-06
8.07107e-06
8.10431e-06
7.9837e-06
7.86188e-06
7.79375e-06
8.09536e-06
8.00025e-06
7.88568e-06
7.78227e-06
7.76786e-06
7.84363e-06
7.91158e-06
8.04435e-06
8.07404e-06
7.96434e-06
7.85458e-06
7.79108e-06
8.07187e-06
7.96853e-06
7.86887e-06
7.77922e-06
7.77027e-06
7.84566e-06
7.90353e-06
8.02112e-06
8.04691e-06
7.94588e-06
7.84715e-06
7.78953e-06
8.05296e-06
7.94196e-06
7.85611e-06
7.77949e-06
7.77682e-06
7.85153e-06
7.89913e-06
8.00244e-06
8.02414e-06
7.92893e-06
7.83961e-06
7.78866e-06
8.03988e-06
7.92139e-06
7.84726e-06
7.78306e-06
7.78762e-06
7.86123e-06
7.89855e-06
7.98922e-06
8.0067e-06
7.91409e-06
7.83204e-06
7.78807e-06
8.0336e-06
7.90755e-06
7.8422e-06
7.78995e-06
7.80269e-06
7.87456e-06
7.90173e-06
7.98209e-06
7.99531e-06
7.90187e-06
7.82463e-06
7.78745e-06
8.03463e-06
7.9009e-06
7.84094e-06
7.80027e-06
7.82194e-06
7.89112e-06
7.90844e-06
7.98136e-06
7.99038e-06
7.89271e-06
7.81764e-06
7.78671e-06
8.04291e-06
7.90169e-06
7.84357e-06
7.81417e-06
7.84517e-06
7.91026e-06
7.91829e-06
7.98697e-06
7.99192e-06
7.88695e-06
7.81142e-06
7.78603e-06
7.32124e-07
7.05818e-07
6.89676e-07
7.11e-07
7.32548e-07
7.49213e-07
7.68746e-07
7.72607e-07
7.49783e-07
7.05099e-07
6.82293e-07
7.03411e-07
1.15828e-07
1.11758e-07
1.09262e-07
1.12536e-07
1.15854e-07
1.18423e-07
1.21562e-07
1.2233e-07
1.18726e-07
1.11609e-07
1.07913e-07
1.11211e-07
5.17098e-08
5.05759e-08
4.99143e-08
5.06449e-08
5.1447e-08
5.21192e-08
5.37891e-08
5.51137e-08
5.3633e-08
5.02658e-08
4.80143e-08
4.90882e-08
7.00804e-08
7.02432e-08
7.04725e-08
6.96138e-08
6.90611e-08
6.8874e-08
7.17149e-08
7.57343e-08
7.40501e-08
6.91821e-08
6.47713e-08
6.51966e-08
1.41031e-07
1.42869e-07
1.44229e-07
1.40837e-07
1.38414e-07
1.37256e-07
1.43291e-07
1.52805e-07
1.49635e-07
1.40031e-07
1.30368e-07
1.30189e-07
2.70284e-07
2.75109e-07
2.78265e-07
2.70309e-07
2.64834e-07
2.6231e-07
2.73757e-07
2.9214e-07
2.86104e-07
2.68807e-07
2.50507e-07
2.49058e-07
4.65895e-07
4.75922e-07
4.81815e-07
4.6619e-07
4.56031e-07
4.5168e-07
4.70768e-07
5.01408e-07
4.90884e-07
4.63663e-07
4.33555e-07
4.29424e-07
7.30785e-07
7.49137e-07
7.58838e-07
7.31448e-07
7.14722e-07
7.08174e-07
7.36729e-07
7.82215e-07
7.65375e-07
7.27599e-07
6.83628e-07
6.74583e-07
1.06004e-06
1.09056e-06
1.10501e-06
1.06113e-06
1.03602e-06
1.02719e-06
1.06622e-06
1.12749e-06
1.10235e-06
1.05571e-06
9.9787e-07
9.80973e-07
1.44102e-06
1.48781e-06
1.50746e-06
1.44242e-06
1.40757e-06
1.39682e-06
1.4463e-06
1.52195e-06
1.48641e-06
1.43522e-06
1.36613e-06
1.33805e-06
1.85532e-06
1.92217e-06
1.94666e-06
1.85671e-06
1.81157e-06
1.79977e-06
1.85863e-06
1.9447e-06
1.89659e-06
1.84741e-06
1.77239e-06
1.72989e-06
2.28157e-06
2.37137e-06
2.39942e-06
2.28254e-06
2.22751e-06
2.21592e-06
2.28215e-06
2.37242e-06
2.30975e-06
2.27063e-06
2.19712e-06
2.13757e-06
2.69945e-06
2.81378e-06
2.84379e-06
2.69953e-06
2.636e-06
2.62644e-06
2.69771e-06
2.78452e-06
2.70503e-06
2.68416e-06
2.62016e-06
2.54177e-06
3.10045e-06
3.24003e-06
3.2704e-06
3.09981e-06
3.02949e-06
3.02352e-06
3.09716e-06
3.17243e-06
3.07436e-06
3.07979e-06
3.03358e-06
2.93551e-06
3.47737e-06
3.64204e-06
3.67153e-06
3.47716e-06
3.40182e-06
3.40044e-06
3.4735e-06
3.5294e-06
3.41182e-06
3.45101e-06
3.43059e-06
3.31314e-06
3.82427e-06
4.01298e-06
4.04097e-06
3.8268e-06
3.74804e-06
3.75146e-06
3.82076e-06
3.85027e-06
3.71333e-06
3.79284e-06
3.80547e-06
3.67017e-06
4.13629e-06
4.34712e-06
4.37377e-06
4.14507e-06
4.06419e-06
4.07171e-06
4.13395e-06
4.13132e-06
3.97641e-06
4.10153e-06
4.15334e-06
4.003e-06
4.40972e-06
4.63985e-06
4.66611e-06
4.42922e-06
4.34712e-06
4.35713e-06
4.40907e-06
4.37016e-06
4.19996e-06
4.37438e-06
4.47013e-06
4.3087e-06
4.64199e-06
4.88783e-06
4.91527e-06
4.67739e-06
4.59455e-06
4.60459e-06
4.64326e-06
4.56584e-06
4.38421e-06
4.60969e-06
4.7525e-06
4.58494e-06
4.8319e-06
5.08916e-06
5.11977e-06
4.88857e-06
4.80503e-06
4.81208e-06
4.83493e-06
4.71887e-06
4.53065e-06
4.80673e-06
4.99787e-06
4.82996e-06
4.97977e-06
5.24363e-06
5.27948e-06
5.06272e-06
4.9781e-06
4.97879e-06
4.98398e-06
4.83133e-06
4.64204e-06
4.96587e-06
5.20445e-06
5.04262e-06
5.0874e-06
5.35261e-06
5.39572e-06
5.20081e-06
5.11442e-06
5.10543e-06
5.09194e-06
4.90673e-06
4.7222e-06
5.08859e-06
5.37162e-06
5.22236e-06
5.15804e-06
5.41915e-06
5.47131e-06
5.30485e-06
5.21582e-06
5.19425e-06
5.16197e-06
4.94993e-06
4.77579e-06
5.17753e-06
5.49993e-06
5.36926e-06
5.19631e-06
5.44786e-06
5.51038e-06
5.37775e-06
5.28527e-06
5.24893e-06
5.19871e-06
4.9668e-06
4.80807e-06
5.23632e-06
5.59121e-06
5.48436e-06
5.20805e-06
5.44483e-06
5.51829e-06
5.42331e-06
5.3268e-06
5.27461e-06
5.20823e-06
4.964e-06
4.82476e-06
5.2695e-06
5.64856e-06
5.56967e-06
5.20016e-06
5.41746e-06
5.50154e-06
5.44619e-06
5.34557e-06
5.27771e-06
5.19784e-06
4.94879e-06
4.83176e-06
5.28243e-06
5.67657e-06
5.62839e-06
5.18032e-06
5.37412e-06
5.46761e-06
5.4519e-06
5.34769e-06
5.26572e-06
5.1757e-06
4.92876e-06
4.83497e-06
5.28121e-06
5.6812e-06
5.66489e-06
5.15667e-06
5.32383e-06
5.42462e-06
5.44677e-06
5.34009e-06
5.24682e-06
5.15044e-06
4.91148e-06
4.84024e-06
5.27259e-06
5.66972e-06
5.68475e-06
5.13732e-06
5.27574e-06
5.38107e-06
5.43769e-06
5.33018e-06
5.22935e-06
5.1306e-06
4.90414e-06
4.85317e-06
5.26366e-06
5.6503e-06
5.69452e-06
5.12992e-06
5.23865e-06
5.34534e-06
5.43187e-06
5.32546e-06
5.22131e-06
5.12408e-06
4.91315e-06
4.87895e-06
5.26158e-06
5.63152e-06
5.70136e-06
5.1412e-06
5.2205e-06
5.32532e-06
5.43644e-06
5.33312e-06
5.22988e-06
5.13769e-06
4.94384e-06
4.92223e-06
5.2732e-06
5.62183e-06
5.71261e-06
5.17664e-06
5.22796e-06
5.32804e-06
5.4582e-06
5.35973e-06
5.26104e-06
5.17674e-06
5.00025e-06
4.98704e-06
5.30482e-06
5.62917e-06
5.73548e-06
5.22411e-06
5.24783e-06
5.3397e-06
5.48416e-06
5.39338e-06
5.3039e-06
5.23108e-06
5.06982e-06
5.05771e-06
5.34222e-06
5.64197e-06
5.75856e-06
5.28148e-06
5.27719e-06
5.35748e-06
5.5128e-06
5.43293e-06
5.35725e-06
5.29946e-06
5.14967e-06
5.12986e-06
5.38286e-06
5.66013e-06
5.78232e-06
5.35138e-06
5.31815e-06
5.38406e-06
5.54835e-06
5.48244e-06
5.42427e-06
5.3845e-06
5.24168e-06
5.20511e-06
5.43013e-06
5.68891e-06
5.81289e-06
5.4382e-06
5.37484e-06
5.42447e-06
5.59736e-06
5.54785e-06
5.50953e-06
5.48988e-06
5.34967e-06
5.28802e-06
5.48996e-06
5.73539e-06
5.85835e-06
5.54617e-06
5.45163e-06
5.48412e-06
5.66667e-06
5.63487e-06
5.61716e-06
5.61866e-06
5.47757e-06
5.38427e-06
5.56878e-06
5.80618e-06
5.92634e-06
5.6782e-06
5.55204e-06
5.56762e-06
5.76193e-06
5.74842e-06
5.75136e-06
5.77425e-06
5.62884e-06
5.49947e-06
5.67295e-06
5.90582e-06
6.02226e-06
5.8396e-06
5.68264e-06
5.68155e-06
5.89064e-06
5.89713e-06
5.919e-06
5.96181e-06
5.81062e-06
5.64319e-06
5.81309e-06
6.04037e-06
6.14981e-06
6.03456e-06
5.84976e-06
5.83367e-06
6.06163e-06
6.08733e-06
6.12444e-06
6.18596e-06
6.02759e-06
5.82472e-06
5.9981e-06
6.21563e-06
6.31507e-06
6.26345e-06
6.06e-06
6.03193e-06
6.28245e-06
6.31944e-06
6.35218e-06
6.41428e-06
6.2743e-06
6.05281e-06
6.23577e-06
6.42991e-06
6.51184e-06
6.4833e-06
6.29443e-06
6.26729e-06
6.51277e-06
6.54681e-06
6.57295e-06
6.63548e-06
6.51288e-06
6.30695e-06
6.48496e-06
6.6351e-06
6.69777e-06
6.69284e-06
6.51965e-06
6.49778e-06
6.7358e-06
6.76755e-06
6.78755e-06
6.84969e-06
6.74415e-06
6.55497e-06
6.72915e-06
6.83119e-06
6.87502e-06
6.89247e-06
6.73579e-06
6.72179e-06
6.95205e-06
6.98049e-06
6.99435e-06
7.0549e-06
6.96766e-06
6.79894e-06
6.96853e-06
7.01838e-06
7.04432e-06
7.08076e-06
6.94217e-06
6.93874e-06
7.15928e-06
7.18235e-06
7.19015e-06
7.24818e-06
7.1811e-06
7.03777e-06
7.20009e-06
7.1947e-06
7.20426e-06
7.25568e-06
7.13692e-06
7.14636e-06
7.35386e-06
7.36916e-06
7.37141e-06
7.42666e-06
7.38154e-06
7.26822e-06
7.41919e-06
7.35741e-06
7.35256e-06
7.41549e-06
7.31798e-06
7.34173e-06
7.53195e-06
7.53737e-06
7.53512e-06
7.58809e-06
7.56633e-06
7.48623e-06
7.62087e-06
7.50419e-06
7.48711e-06
7.55918e-06
7.48364e-06
7.52204e-06
7.69042e-06
7.68444e-06
7.67919e-06
7.73106e-06
7.73343e-06
7.68793e-06
7.8007e-06
7.63369e-06
7.6065e-06
7.68653e-06
7.63286e-06
7.6851e-06
7.82718e-06
7.8091e-06
7.80252e-06
7.85482e-06
7.88138e-06
7.86992e-06
7.95522e-06
7.7453e-06
7.71018e-06
7.79791e-06
7.76533e-06
7.82952e-06
7.94126e-06
7.91107e-06
7.9048e-06
7.95971e-06
8.00914e-06
8.02941e-06
8.08646e-06
7.8388e-06
7.79831e-06
7.89401e-06
7.88128e-06
7.95467e-06
8.03492e-06
7.99304e-06
7.98915e-06
8.04921e-06
8.11978e-06
8.16902e-06
8.19785e-06
7.9152e-06
7.87229e-06
7.97563e-06
7.98128e-06
8.06149e-06
8.11093e-06
8.05783e-06
8.05844e-06
8.12588e-06
8.21723e-06
8.29324e-06
8.28808e-06
7.97682e-06
7.93418e-06
8.04499e-06
8.06629e-06
8.15344e-06
8.16876e-06
8.10534e-06
8.11187e-06
8.18836e-06
8.30124e-06
8.40151e-06
8.35603e-06
8.02518e-06
7.9847e-06
8.10467e-06
8.13944e-06
8.23225e-06
8.20729e-06
8.13545e-06
8.14914e-06
8.23581e-06
8.37094e-06
8.49196e-06
8.40187e-06
8.06053e-06
8.02368e-06
8.15548e-06
8.20354e-06
8.29561e-06
8.2272e-06
8.14945e-06
8.17112e-06
8.26845e-06
8.42571e-06
8.56313e-06
8.42713e-06
8.08382e-06
8.0516e-06
8.19746e-06
8.25825e-06
8.34206e-06
8.23069e-06
8.14987e-06
8.17973e-06
8.28753e-06
8.46564e-06
8.61439e-06
8.43437e-06
8.09658e-06
8.06936e-06
8.23052e-06
8.30284e-06
8.37149e-06
8.22078e-06
8.13982e-06
8.17761e-06
8.29493e-06
8.49161e-06
8.6462e-06
8.42674e-06
8.10059e-06
8.07817e-06
8.25472e-06
8.33683e-06
8.38469e-06
8.20074e-06
8.1224e-06
8.1675e-06
8.29279e-06
8.50493e-06
8.65978e-06
8.4075e-06
8.09771e-06
8.07931e-06
8.27042e-06
8.36016e-06
8.38307e-06
8.1737e-06
8.10032e-06
8.15192e-06
8.28313e-06
8.50706e-06
8.65689e-06
8.37974e-06
8.08963e-06
8.0741e-06
8.27824e-06
8.37296e-06
8.36839e-06
8.14243e-06
8.07577e-06
8.13295e-06
8.26771e-06
8.49942e-06
8.63953e-06
8.34628e-06
8.07787e-06
8.06382e-06
8.27889e-06
8.37541e-06
8.34269e-06
8.1093e-06
8.05046e-06
8.11221e-06
8.24806e-06
8.48333e-06
8.60995e-06
8.30954e-06
8.06364e-06
8.04959e-06
8.27302e-06
8.36767e-06
8.30831e-06
8.07622e-06
8.02565e-06
8.09097e-06
8.22543e-06
8.46001e-06
8.57047e-06
8.27147e-06
8.04794e-06
8.03245e-06
8.26122e-06
8.35003e-06
8.26778e-06
8.04458e-06
8.00213e-06
8.07016e-06
8.20088e-06
8.43056e-06
8.52351e-06
8.2336e-06
8.03151e-06
8.01323e-06
8.24398e-06
8.32314e-06
8.22379e-06
8.01459e-06
7.98013e-06
8.05045e-06
8.17531e-06
8.39609e-06
8.47148e-06
8.19702e-06
8.01492e-06
7.99267e-06
8.22176e-06
8.28817e-06
8.1789e-06
7.98612e-06
7.95952e-06
8.03218e-06
8.14946e-06
8.35773e-06
8.41669e-06
8.16242e-06
7.99858e-06
7.97129e-06
8.19511e-06
8.24687e-06
8.1354e-06
7.95953e-06
7.94058e-06
8.0155e-06
8.12397e-06
8.31668e-06
8.36133e-06
8.13024e-06
7.98279e-06
7.9496e-06
8.1648e-06
8.20158e-06
8.09502e-06
7.93532e-06
7.92373e-06
8.00045e-06
8.09939e-06
8.27428e-06
8.30737e-06
8.10069e-06
7.96772e-06
7.92831e-06
8.13182e-06
8.15488e-06
8.05791e-06
7.91383e-06
7.90931e-06
7.98704e-06
8.07615e-06
8.23193e-06
8.25645e-06
8.0737e-06
7.95357e-06
7.90815e-06
8.0974e-06
8.10923e-06
8.02372e-06
7.89532e-06
7.89754e-06
7.97543e-06
8.05453e-06
8.19103e-06
8.20981e-06
8.04902e-06
7.94058e-06
7.88973e-06
8.06308e-06
8.06659e-06
7.99273e-06
7.87993e-06
7.88859e-06
7.96594e-06
8.03473e-06
8.15282e-06
8.16831e-06
8.02669e-06
7.92895e-06
7.87353e-06
8.03015e-06
8.0271e-06
7.96539e-06
7.86773e-06
7.88258e-06
7.95885e-06
8.01681e-06
8.11836e-06
8.13216e-06
8.00689e-06
7.91875e-06
7.8599e-06
7.99949e-06
7.99096e-06
7.94203e-06
7.85873e-06
7.8796e-06
7.95439e-06
8.00118e-06
8.08804e-06
8.1012e-06
7.98974e-06
7.90994e-06
7.84904e-06
7.97218e-06
7.9591e-06
7.92281e-06
7.85288e-06
7.87975e-06
7.95274e-06
7.98841e-06
8.06228e-06
8.07597e-06
7.97532e-06
7.90241e-06
7.84103e-06
7.94953e-06
7.93243e-06
7.90776e-06
7.85015e-06
7.8831e-06
7.95397e-06
7.97895e-06
8.04192e-06
8.05716e-06
7.96361e-06
7.89598e-06
7.8358e-06
7.93274e-06
7.91174e-06
7.89681e-06
7.85045e-06
7.8897e-06
7.95805e-06
7.97309e-06
8.02778e-06
8.04519e-06
7.95459e-06
7.89047e-06
7.8332e-06
7.9228e-06
7.89764e-06
7.88982e-06
7.85371e-06
7.89954e-06
7.96486e-06
7.97094e-06
8.02038e-06
8.04007e-06
7.94818e-06
7.88569e-06
7.83299e-06
7.92036e-06
7.89047e-06
7.88666e-06
7.85982e-06
7.91251e-06
7.9741e-06
7.97249e-06
8.01988e-06
8.0415e-06
7.94427e-06
7.88153e-06
7.83494e-06
7.92559e-06
7.89031e-06
7.88717e-06
7.86862e-06
7.92843e-06
7.98529e-06
7.97754e-06
8.02613e-06
8.04864e-06
7.94272e-06
7.87798e-06
7.83888e-06
7.93819e-06
7.89699e-06
7.89125e-06
7.87994e-06
7.9469e-06
7.99789e-06
7.98584e-06
8.03851e-06
8.06067e-06
7.94342e-06
7.87514e-06
7.84479e-06
7.88719e-07
7.63217e-07
7.48552e-07
7.66861e-07
7.87536e-07
8.05962e-07
8.26671e-07
8.29792e-07
8.05253e-07
7.60136e-07
7.35742e-07
7.56273e-07
1.27376e-07
1.23163e-07
1.20727e-07
1.23541e-07
1.26952e-07
1.30046e-07
1.33387e-07
1.33834e-07
1.29787e-07
1.22528e-07
1.18556e-07
1.21795e-07
7.32837e-08
7.03944e-08
6.86582e-08
6.92998e-08
7.16178e-08
7.40927e-08
7.59406e-08
7.57776e-08
7.2992e-08
6.91772e-08
6.66984e-08
6.7936e-08
1.38756e-07
1.32576e-07
1.28762e-07
1.28208e-07
1.33172e-07
1.3906e-07
1.4239e-07
1.41256e-07
1.35206e-07
1.28805e-07
1.23853e-07
1.24994e-07
3.09705e-07
2.95747e-07
2.87047e-07
2.84661e-07
2.95998e-07
3.09826e-07
3.17064e-07
3.13821e-07
2.99896e-07
2.86555e-07
2.75642e-07
2.77283e-07
6.09805e-07
5.82726e-07
5.65711e-07
5.5997e-07
5.82321e-07
6.09976e-07
6.2385e-07
6.16535e-07
5.88894e-07
5.64263e-07
5.43591e-07
5.45866e-07
1.06036e-06
1.01439e-06
9.85205e-07
9.73699e-07
1.01243e-06
1.06093e-06
1.08423e-06
1.06989e-06
1.02169e-06
9.8207e-07
9.48204e-07
9.50755e-07
1.66901e-06
1.59873e-06
1.5534e-06
1.53294e-06
1.59365e-06
1.67054e-06
1.70567e-06
1.68023e-06
1.60425e-06
1.54766e-06
1.4986e-06
1.50055e-06
2.4253e-06
2.32628e-06
2.26092e-06
2.22801e-06
2.31605e-06
2.42872e-06
2.47735e-06
2.43562e-06
2.32491e-06
2.25179e-06
2.18793e-06
2.18807e-06
3.30149e-06
3.17059e-06
3.08143e-06
3.03307e-06
3.15308e-06
3.30812e-06
3.37115e-06
3.30706e-06
3.15561e-06
3.06874e-06
2.9932e-06
2.99038e-06
4.25713e-06
4.09252e-06
3.9759e-06
3.91056e-06
4.06612e-06
4.26869e-06
4.34641e-06
4.25369e-06
4.05698e-06
3.96059e-06
3.87871e-06
3.87234e-06
5.24497e-06
5.04598e-06
4.89876e-06
4.81699e-06
5.0102e-06
5.26339e-06
5.35561e-06
5.22878e-06
4.98448e-06
4.88303e-06
4.80116e-06
4.79175e-06
6.21859e-06
5.98525e-06
5.80577e-06
5.70911e-06
5.94125e-06
6.24744e-06
6.35453e-06
6.1883e-06
5.89402e-06
5.79193e-06
5.71653e-06
5.7053e-06
7.15871e-06
6.89134e-06
6.67894e-06
6.57013e-06
6.84138e-06
7.20153e-06
7.32378e-06
7.11421e-06
6.76898e-06
6.66976e-06
6.60653e-06
6.59573e-06
8.04847e-06
7.74786e-06
7.50324e-06
7.38592e-06
7.69508e-06
8.1084e-06
8.24589e-06
7.99087e-06
7.59553e-06
7.50172e-06
7.45507e-06
7.44793e-06
8.87343e-06
8.54098e-06
8.26639e-06
8.1447e-06
8.48908e-06
8.95283e-06
9.1053e-06
8.8049e-06
8.36224e-06
8.27547e-06
8.24837e-06
8.24878e-06
9.62138e-06
9.25926e-06
8.95836e-06
8.83662e-06
9.212e-06
9.72154e-06
9.88833e-06
9.54485e-06
9.05966e-06
8.98074e-06
8.9747e-06
8.9868e-06
1.02823e-05
9.89351e-06
9.57115e-06
9.45355e-06
9.85435e-06
1.04033e-05
1.05834e-05
1.02012e-05
9.68014e-06
9.60913e-06
9.62433e-06
9.65201e-06
1.08486e-05
1.04369e-05
1.00988e-05
9.98913e-06
1.04087e-05
1.0989e-05
1.11809e-05
1.07667e-05
1.02179e-05
1.01542e-05
1.01896e-05
1.02361e-05
1.13151e-05
1.08851e-05
1.05373e-05
1.0439e-05
1.08696e-05
1.1472e-05
1.16741e-05
1.12364e-05
1.0669e-05
1.06115e-05
1.06646e-05
1.07327e-05
1.16789e-05
1.1236e-05
1.08851e-05
1.08007e-05
1.12339e-05
1.18485e-05
1.20589e-05
1.16077e-05
1.10318e-05
1.09786e-05
1.10457e-05
1.11372e-05
1.19398e-05
1.14899e-05
1.11423e-05
1.10738e-05
1.15006e-05
1.21175e-05
1.23342e-05
1.18802e-05
1.13066e-05
1.12549e-05
1.13311e-05
1.14465e-05
1.21002e-05
1.16496e-05
1.13109e-05
1.12592e-05
1.16713e-05
1.22808e-05
1.25017e-05
1.20554e-05
1.1495e-05
1.14415e-05
1.15212e-05
1.16599e-05
1.21646e-05
1.17197e-05
1.13948e-05
1.13598e-05
1.17494e-05
1.23427e-05
1.25659e-05
1.21374e-05
1.16e-05
1.1541e-05
1.16188e-05
1.17785e-05
1.21396e-05
1.17067e-05
1.13997e-05
1.138e-05
1.17404e-05
1.23101e-05
1.25338e-05
1.21317e-05
1.16255e-05
1.15581e-05
1.16284e-05
1.18059e-05
1.20338e-05
1.16186e-05
1.13323e-05
1.13258e-05
1.1652e-05
1.2192e-05
1.24146e-05
1.20459e-05
1.15768e-05
1.14988e-05
1.15572e-05
1.17478e-05
1.18569e-05
1.14643e-05
1.12007e-05
1.12044e-05
1.1493e-05
1.1999e-05
1.22191e-05
1.18886e-05
1.14605e-05
1.13708e-05
1.1414e-05
1.16124e-05
1.16191e-05
1.12533e-05
1.10133e-05
1.10242e-05
1.12735e-05
1.17424e-05
1.19586e-05
1.16692e-05
1.12839e-05
1.11826e-05
1.12088e-05
1.14094e-05
1.13305e-05
1.09947e-05
1.07788e-05
1.07941e-05
1.10036e-05
1.14334e-05
1.16443e-05
1.13972e-05
1.1055e-05
1.09435e-05
1.09521e-05
1.11494e-05
1.10002e-05
1.06967e-05
1.05049e-05
1.05224e-05
1.06928e-05
1.10818e-05
1.1286e-05
1.10813e-05
1.07816e-05
1.0662e-05
1.06536e-05
1.08427e-05
1.06356e-05
1.03661e-05
1.01982e-05
1.02163e-05
1.03487e-05
1.06958e-05
1.08921e-05
1.07287e-05
1.04708e-05
1.03457e-05
1.03213e-05
1.04981e-05
1.02434e-05
1.00081e-05
9.86376e-06
9.88165e-06
9.9783e-06
1.02833e-05
1.04707e-05
1.03463e-05
1.01285e-05
1.00009e-05
9.96194e-06
1.01235e-05
9.83699e-06
9.63138e-06
9.50749e-06
9.52612e-06
9.59272e-06
9.85912e-06
1.00389e-05
9.94698e-06
9.76161e-06
9.63545e-06
9.58667e-06
9.73256e-06
9.43589e-06
9.25259e-06
9.14499e-06
9.16665e-06
9.21047e-06
9.44367e-06
9.61823e-06
9.55073e-06
9.38723e-06
9.26675e-06
9.21412e-06
9.34611e-06
9.06118e-06
8.89109e-06
8.79517e-06
8.82322e-06
8.85212e-06
9.0584e-06
9.23079e-06
9.17908e-06
9.02561e-06
8.91508e-06
8.86509e-06
8.98626e-06
8.73335e-06
8.56639e-06
8.47761e-06
8.51616e-06
8.53805e-06
8.72392e-06
8.8976e-06
8.85317e-06
8.69762e-06
8.60119e-06
8.56011e-06
8.67425e-06
8.47125e-06
8.29709e-06
8.21135e-06
8.26477e-06
8.28697e-06
8.4587e-06
8.63725e-06
8.59269e-06
8.42341e-06
8.34494e-06
8.31826e-06
8.42928e-06
8.28985e-06
8.09895e-06
8.01291e-06
8.08438e-06
8.11289e-06
8.27661e-06
8.46313e-06
8.41236e-06
8.22029e-06
8.1622e-06
8.15441e-06
8.26651e-06
8.19679e-06
7.98215e-06
7.89342e-06
7.98477e-06
8.02605e-06
8.18868e-06
8.37301e-06
8.3236e-06
8.10225e-06
8.06376e-06
8.07279e-06
8.19017e-06
8.15649e-06
7.94865e-06
7.85555e-06
7.97095e-06
8.00938e-06
8.1434e-06
8.30859e-06
8.2842e-06
8.07183e-06
8.05545e-06
8.04936e-06
8.14934e-06
8.13008e-06
7.95118e-06
7.8696e-06
7.98384e-06
8.01085e-06
8.11758e-06
8.26642e-06
8.26248e-06
8.08735e-06
8.08106e-06
8.03962e-06
8.12202e-06
8.11713e-06
7.96259e-06
7.89445e-06
8.00808e-06
8.02714e-06
8.11092e-06
8.24534e-06
8.25883e-06
8.11676e-06
8.12107e-06
8.04302e-06
8.10882e-06
8.11627e-06
7.98337e-06
7.92955e-06
8.04316e-06
8.05574e-06
8.12026e-06
8.24167e-06
8.27114e-06
8.16018e-06
8.17443e-06
8.05776e-06
8.10728e-06
8.12447e-06
8.01213e-06
7.97349e-06
8.08586e-06
8.09218e-06
8.14087e-06
8.25073e-06
8.29558e-06
8.21532e-06
8.23732e-06
8.07998e-06
8.11348e-06
8.13832e-06
8.04615e-06
8.02315e-06
8.13188e-06
8.13167e-06
8.16788e-06
8.26795e-06
8.32797e-06
8.27853e-06
8.30482e-06
8.10538e-06
8.12353e-06
8.15487e-06
8.08243e-06
8.07492e-06
8.17716e-06
8.17006e-06
8.19714e-06
8.28963e-06
8.36475e-06
8.34606e-06
8.37243e-06
8.13037e-06
8.13447e-06
8.17197e-06