/*--------------------------------*- C++ -*----------------------------------*\
| =========                 |                                                 |
| \\      /  F ield         | OpenFOAM: The Open Source CFD Toolbox           |
|  \\    /   O peration     | Version:  v1912                                 |
|   \\  /    A nd           | Website:  www.openfoam.com                      |
|    \\/     M anipulation  |                                                 |
\*---------------------------------------------------------------------------*/
FoamFile
{
    version     2.0;
    format      ascii;
    class       volScalarField;
    location    "8.8";
    object      nut;
}
// * * * * * * * * * * * * * * * * * * * * * * * * * * * * * * * * * * * * * //

dimensions      [0 2 -1 0 0 0 0];


internalField   nonuniform List<scalar> 
34128
(
4.38808e-12
4.21569e-12
4.10133e-12
4.24887e-12
4.40392e-12
4.51422e-12
4.62117e-12
4.62006e-12
4.47334e-12
4.22101e-12
4.11027e-12
4.24111e-12
4.31569e-12
4.13981e-12
4.02856e-12
4.17324e-12
4.32603e-12
4.43378e-12
4.53978e-12
4.5453e-12
4.40393e-12
4.14859e-12
4.02907e-12
4.15939e-12
7.76236e-12
7.33722e-12
7.1624e-12
7.41002e-12
7.68491e-12
7.86405e-12
8.06989e-12
8.20083e-12
8.00216e-12
7.41446e-12
7.00466e-12
7.26479e-12
3.26555e-11
3.05319e-11
2.98876e-11
3.08554e-11
3.19925e-11
3.26975e-11
3.36072e-11
3.45478e-11
3.39079e-11
3.1047e-11
2.86779e-11
2.98209e-11
1.27194e-10
1.18804e-10
1.16407e-10
1.19915e-10
1.24221e-10
1.26926e-10
1.30457e-10
1.34376e-10
1.321e-10
1.20873e-10
1.11173e-10
1.15471e-10
3.80367e-10
3.55845e-10
3.48904e-10
3.58437e-10
3.7082e-10
3.78858e-10
3.89181e-10
4.00814e-10
3.94347e-10
3.61694e-10
3.3277e-10
3.44842e-10
9.1332e-10
8.56618e-10
8.4049e-10
8.60565e-10
8.88893e-10
9.08077e-10
9.32004e-10
9.59157e-10
9.44349e-10
8.69351e-10
8.01369e-10
8.2813e-10
1.84825e-09
1.73872e-09
1.70705e-09
1.74123e-09
1.7956e-09
1.83431e-09
1.88058e-09
1.93329e-09
1.90459e-09
1.76118e-09
1.62826e-09
1.6776e-09
3.26927e-09
3.08522e-09
3.03009e-09
3.07863e-09
3.16998e-09
3.23899e-09
3.31684e-09
3.40488e-09
3.35558e-09
3.11803e-09
2.89357e-09
2.97224e-09
5.19615e-09
4.91851e-09
4.83035e-09
4.88899e-09
5.02805e-09
5.14022e-09
5.25787e-09
5.38771e-09
5.30984e-09
4.95831e-09
4.62127e-09
4.73328e-09
7.58244e-09
7.19712e-09
7.06432e-09
7.1249e-09
7.32167e-09
7.49162e-09
7.65558e-09
7.82797e-09
7.712e-09
7.23559e-09
6.77504e-09
6.92103e-09
1.03104e-08
9.81994e-09
9.61553e-09
9.6772e-09
9.93586e-09
1.01666e-08
1.03618e-08
1.05502e-08
1.04038e-08
9.84752e-09
9.27093e-09
9.44838e-09
1.27538e-08
1.21611e-08
1.18905e-08
1.19457e-08
1.22682e-08
1.25715e-08
1.28132e-08
1.30248e-08
1.28305e-08
1.21668e-08
1.15458e-08
1.17452e-08
1.53132e-08
1.46182e-08
1.42737e-08
1.4314e-08
1.4704e-08
1.50901e-08
1.53819e-08
1.56133e-08
1.53638e-08
1.45907e-08
1.38811e-08
1.41008e-08
1.79568e-08
1.71615e-08
1.67363e-08
1.67518e-08
1.7212e-08
1.76913e-08
1.80369e-08
1.82838e-08
1.79716e-08
1.70885e-08
1.6293e-08
1.65288e-08
2.06573e-08
1.97657e-08
1.92529e-08
1.9233e-08
1.97651e-08
2.03486e-08
2.07523e-08
2.10095e-08
2.06259e-08
1.96326e-08
1.87551e-08
1.90019e-08
2.33949e-08
2.2412e-08
2.18042e-08
2.17378e-08
2.23435e-08
2.30432e-08
2.35103e-08
2.37715e-08
2.33063e-08
2.22023e-08
2.1247e-08
2.14989e-08
2.6158e-08
2.509e-08
2.4379e-08
2.42551e-08
2.49361e-08
2.5765e-08
2.63016e-08
2.65602e-08
2.6001e-08
2.47849e-08
2.37555e-08
2.40062e-08
2.89445e-08
2.7798e-08
2.69754e-08
2.67832e-08
2.75411e-08
2.85131e-08
2.91266e-08
2.93755e-08
2.87076e-08
2.73771e-08
2.62762e-08
2.65193e-08
3.17622e-08
3.05447e-08
2.96027e-08
2.9331e-08
3.01676e-08
3.12978e-08
3.19962e-08
3.22277e-08
3.14336e-08
2.99868e-08
2.88155e-08
2.90442e-08
3.46298e-08
3.33498e-08
3.22818e-08
3.19189e-08
3.28357e-08
3.41402e-08
3.49323e-08
3.51365e-08
3.41961e-08
3.26327e-08
3.13919e-08
3.15989e-08
3.75744e-08
3.62427e-08
3.50438e-08
3.45758e-08
3.55748e-08
3.70707e-08
3.79656e-08
3.8129e-08
3.70199e-08
3.53431e-08
3.40341e-08
3.42118e-08
4.06277e-08
3.92574e-08
3.79243e-08
3.73355e-08
3.84191e-08
4.0124e-08
4.11314e-08
4.1237e-08
3.99341e-08
3.81508e-08
3.67766e-08
3.69178e-08
4.38225e-08
4.24274e-08
4.09582e-08
4.02329e-08
4.14035e-08
4.33353e-08
4.44658e-08
4.44935e-08
4.29687e-08
4.10876e-08
3.96535e-08
3.9752e-08
4.719e-08
4.57827e-08
4.41762e-08
4.33011e-08
4.45611e-08
4.67387e-08
4.80059e-08
4.79329e-08
4.61531e-08
4.41837e-08
4.26953e-08
4.27451e-08
5.07639e-08
4.93531e-08
4.76076e-08
4.65733e-08
4.79265e-08
5.0372e-08
5.1795e-08
5.1594e-08
4.95176e-08
4.74685e-08
4.59301e-08
4.59278e-08
5.45882e-08
5.31752e-08
5.1287e-08
5.00888e-08
5.15429e-08
5.42855e-08
5.58931e-08
5.55283e-08
5.30994e-08
5.09768e-08
4.93904e-08
4.9336e-08
5.8729e-08
5.73046e-08
5.52648e-08
5.39022e-08
5.54737e-08
5.85562e-08
6.03908e-08
5.981e-08
5.69507e-08
5.47593e-08
5.31262e-08
5.30224e-08
6.32868e-08
6.18267e-08
5.96188e-08
5.80962e-08
5.9815e-08
6.33014e-08
6.54231e-08
6.45465e-08
6.11468e-08
5.88939e-08
5.72202e-08
5.70714e-08
6.84137e-08
6.68712e-08
6.44656e-08
6.27938e-08
6.47122e-08
6.86975e-08
7.11866e-08
6.98934e-08
6.57957e-08
6.34995e-08
6.18058e-08
6.16149e-08
7.43162e-08
7.26276e-08
6.9978e-08
6.81756e-08
7.0378e-08
7.49813e-08
7.79268e-08
7.60536e-08
7.10543e-08
6.87576e-08
6.70925e-08
6.68535e-08
8.12171e-08
7.93055e-08
7.63696e-08
7.44792e-08
7.70654e-08
8.24158e-08
8.59214e-08
8.32544e-08
7.71135e-08
7.48952e-08
7.33486e-08
7.30473e-08
8.94102e-08
8.71415e-08
8.38508e-08
8.1949e-08
8.50731e-08
9.13601e-08
9.55744e-08
9.18074e-08
8.4184e-08
8.21514e-08
8.08525e-08
8.04692e-08
9.93591e-08
9.65315e-08
9.27871e-08
9.09946e-08
9.48871e-08
1.02386e-07
1.07521e-07
1.02203e-07
9.26194e-08
9.0928e-08
9.00498e-08
8.95592e-08
1.11756e-07
1.0806e-07
1.03724e-07
1.02237e-07
1.0725e-07
1.16369e-07
1.22737e-07
1.15181e-07
1.0295e-07
1.01822e-07
1.01608e-07
1.00977e-07
1.27639e-07
1.22588e-07
1.17466e-07
1.16621e-07
1.23306e-07
1.34661e-07
1.42725e-07
1.31866e-07
1.1597e-07
1.15737e-07
1.16536e-07
1.1572e-07
1.48585e-07
1.41418e-07
1.35237e-07
1.35609e-07
1.44855e-07
1.5941e-07
1.69865e-07
1.53991e-07
1.32894e-07
1.34065e-07
1.3639e-07
1.35315e-07
1.77067e-07
1.66577e-07
1.5896e-07
1.61545e-07
1.74788e-07
1.94029e-07
2.07905e-07
1.8428e-07
1.55651e-07
1.59063e-07
1.63642e-07
1.62151e-07
2.16877e-07
2.01167e-07
1.91647e-07
1.98088e-07
2.14317e-07
2.37504e-07
2.55129e-07
2.24403e-07
1.87093e-07
1.94133e-07
2.02277e-07
2.00112e-07
2.6302e-07
2.4109e-07
2.31424e-07
2.40146e-07
2.54598e-07
2.83419e-07
3.05611e-07
2.64794e-07
2.18107e-07
2.27577e-07
2.52548e-07
2.55079e-07
3.16403e-07
2.87317e-07
2.75789e-07
2.8951e-07
3.0856e-07
3.43785e-07
3.70791e-07
3.18412e-07
2.58496e-07
2.71837e-07
3.07378e-07
3.14491e-07
3.83534e-07
3.46682e-07
3.33384e-07
3.53429e-07
3.77025e-07
4.18417e-07
4.50722e-07
3.8542e-07
3.11689e-07
3.29293e-07
3.77779e-07
3.88043e-07
4.65542e-07
4.19625e-07
4.04724e-07
4.32735e-07
4.61443e-07
5.09277e-07
5.47484e-07
4.67209e-07
3.78365e-07
4.00519e-07
4.64937e-07
4.7965e-07
5.64709e-07
5.08191e-07
4.91518e-07
5.29624e-07
5.6419e-07
6.18149e-07
6.62601e-07
5.65951e-07
4.59891e-07
4.87322e-07
5.71341e-07
5.9216e-07
6.82898e-07
6.14678e-07
5.96073e-07
6.45976e-07
6.86909e-07
7.45877e-07
7.96542e-07
6.83212e-07
5.58361e-07
5.91681e-07
6.98952e-07
7.27711e-07
8.20949e-07
7.40328e-07
7.1978e-07
7.82472e-07
8.29982e-07
8.92052e-07
9.48408e-07
8.19425e-07
6.75164e-07
7.14793e-07
8.48861e-07
8.86899e-07
9.78105e-07
8.84874e-07
8.62465e-07
9.38097e-07
9.92152e-07
1.05491e-06
1.11585e-06
9.73436e-07
8.10448e-07
8.56603e-07
1.02163e-06
1.06825e-06
1.15162e-06
1.04631e-06
1.0221e-06
1.10992e-06
1.17043e-06
1.2314e-06
1.29535e-06
1.14226e-06
9.62678e-07
1.01542e-06
1.21363e-06
1.26811e-06
1.33674e-06
1.22084e-06
1.19481e-06
1.2933e-06
1.36019e-06
1.41712e-06
1.48314e-06
1.32122e-06
1.12846e-06
1.18782e-06
1.41484e-06
1.48102e-06
1.52723e-06
1.40323e-06
1.37521e-06
1.48257e-06
1.55471e-06
1.60639e-06
1.67276e-06
1.50446e-06
1.3028e-06
1.36906e-06
1.6169e-06
1.69881e-06
1.71625e-06
1.58735e-06
1.55715e-06
1.67201e-06
1.74863e-06
1.79374e-06
1.85682e-06
1.68609e-06
1.48005e-06
1.55371e-06
1.81332e-06
1.90934e-06
1.89735e-06
1.76699e-06
1.73463e-06
1.85609e-06
1.93727e-06
1.9744e-06
2.03058e-06
1.86071e-06
1.65457e-06
1.73588e-06
2.00024e-06
2.10595e-06
2.06546e-06
1.93661e-06
1.9023e-06
1.97584e-06
2.1156e-06
2.14391e-06
2.18966e-06
2.02332e-06
1.82052e-06
1.85801e-06
2.17446e-06
2.28396e-06
2.21709e-06
2.09205e-06
1.94922e-06
1.86906e-06
2.25998e-06
2.29808e-06
2.20538e-06
2.05991e-06
1.81647e-06
1.77096e-06
2.33218e-06
2.43955e-06
2.34984e-06
2.2301e-06
1.76605e-06
1.8121e-06
2.20935e-06
2.28438e-06
2.08469e-06
1.90322e-06
1.65689e-06
1.70939e-06
2.47051e-06
2.57074e-06
2.39394e-06
2.22108e-06
1.63307e-06
1.81535e-06
2.20742e-06
2.24846e-06
2.00769e-06
1.78016e-06
1.53335e-06
1.68819e-06
2.58848e-06
2.67729e-06
2.22755e-06
2.01059e-06
1.55462e-06
1.86546e-06
2.27227e-06
2.2595e-06
1.98116e-06
1.70347e-06
1.45689e-06
1.7007e-06
2.68659e-06
2.76031e-06
2.08532e-06
1.83534e-06
1.51502e-06
1.95852e-06
2.39306e-06
2.31766e-06
1.99175e-06
1.66021e-06
1.41523e-06
1.7391e-06
2.76628e-06
2.82175e-06
1.98058e-06
1.70976e-06
1.50709e-06
2.09614e-06
2.56406e-06
2.41209e-06
2.02854e-06
1.63981e-06
1.39877e-06
1.79671e-06
2.82942e-06
2.86746e-06
1.90498e-06
1.62201e-06
1.52867e-06
2.28331e-06
2.76915e-06
2.53299e-06
2.08494e-06
1.63604e-06
1.40109e-06
1.86881e-06
2.87784e-06
2.9042e-06
1.8531e-06
1.56459e-06
1.58074e-06
2.52576e-06
2.92042e-06
2.67076e-06
2.1578e-06
1.6458e-06
1.41889e-06
1.95275e-06
2.91555e-06
2.93361e-06
1.82207e-06
1.53481e-06
1.66682e-06
2.80083e-06
2.95461e-06
2.81315e-06
2.24637e-06
1.66808e-06
1.45145e-06
2.04771e-06
2.94561e-06
2.95718e-06
1.81019e-06
1.53305e-06
1.79214e-06
2.92164e-06
2.98141e-06
2.94372e-06
2.35161e-06
1.70342e-06
1.49968e-06
2.15368e-06
2.97e-06
2.97619e-06
1.81671e-06
1.56185e-06
1.96403e-06
2.94685e-06
3.00201e-06
2.99109e-06
2.47564e-06
1.75364e-06
1.56527e-06
2.27035e-06
2.99003e-06
2.9917e-06
1.84218e-06
1.62545e-06
2.19232e-06
2.96736e-06
3.01694e-06
3.00687e-06
2.61943e-06
1.8218e-06
1.65061e-06
2.39701e-06
3.00671e-06
3.00458e-06
1.88877e-06
1.72963e-06
2.48507e-06
2.98367e-06
3.02589e-06
3.01849e-06
2.78013e-06
1.91214e-06
1.759e-06
2.53281e-06
3.02078e-06
3.01542e-06
1.96021e-06
1.88085e-06
2.81297e-06
2.99621e-06
3.03162e-06
3.02651e-06
2.93993e-06
2.02968e-06
1.89493e-06
2.67656e-06
3.0328e-06
3.02464e-06
2.06128e-06
2.08519e-06
2.93399e-06
3.00543e-06
3.03609e-06
3.03159e-06
2.98018e-06
2.17945e-06
2.0634e-06
2.82826e-06
3.04311e-06
3.03244e-06
2.19666e-06
2.3488e-06
2.94833e-06
3.01193e-06
3.03925e-06
3.0341e-06
2.98512e-06
2.36556e-06
2.268e-06
2.97593e-06
3.05188e-06
3.0389e-06
2.36789e-06
2.67117e-06
2.95916e-06
3.01627e-06
3.04103e-06
3.03425e-06
2.98762e-06
2.59249e-06
2.51143e-06
2.99109e-06
3.05919e-06
3.04396e-06
2.56787e-06
2.91286e-06
2.96662e-06
3.01871e-06
3.04139e-06
3.03221e-06
2.98787e-06
2.84851e-06
2.79113e-06
3.00501e-06
3.06499e-06
3.04748e-06
2.78555e-06
2.92104e-06
2.97098e-06
3.0192e-06
3.04032e-06
3.02818e-06
2.98608e-06
2.92766e-06
2.932e-06
3.01774e-06
3.06925e-06
3.04932e-06
2.92295e-06
2.92612e-06
2.97253e-06
3.01857e-06
3.03786e-06
3.02229e-06
2.98254e-06
2.93332e-06
2.94605e-06
3.02929e-06
3.07193e-06
3.04932e-06
2.92514e-06
2.9283e-06
2.97162e-06
3.01649e-06
3.03406e-06
3.01482e-06
2.9776e-06
2.93713e-06
2.95747e-06
3.04e-06
3.07304e-06
3.04733e-06
2.92515e-06
2.92785e-06
2.96849e-06
3.01325e-06
3.02904e-06
3.00613e-06
2.9716e-06
2.93926e-06
2.96641e-06
3.04941e-06
3.07266e-06
3.04319e-06
2.92286e-06
2.92506e-06
2.96554e-06
3.00918e-06
3.02292e-06
2.99714e-06
2.96502e-06
2.93989e-06
2.97289e-06
3.05593e-06
3.07085e-06
3.03698e-06
2.91826e-06
2.92011e-06
2.962e-06
3.00452e-06
3.01572e-06
2.98815e-06
2.95829e-06
2.93895e-06
2.97639e-06
3.05865e-06
3.06768e-06
3.02887e-06
2.9114e-06
2.91328e-06
2.95801e-06
2.99953e-06
3.00747e-06
2.97927e-06
2.95182e-06
2.93619e-06
2.97924e-06
3.0583e-06
3.06326e-06
3.01904e-06
2.90243e-06
2.90551e-06
2.95387e-06
2.99435e-06
2.9987e-06
2.9705e-06
2.94593e-06
2.93346e-06
2.98169e-06
3.05749e-06
3.05768e-06
3.00772e-06
4.67785e-12
4.50977e-12
4.40664e-12
4.54289e-12
4.68056e-12
4.78704e-12
4.91185e-12
4.93652e-12
4.79069e-12
4.50518e-12
4.35946e-12
4.49439e-12
4.48051e-12
4.32319e-12
4.22677e-12
4.3536e-12
4.48175e-12
4.5809e-12
4.70198e-12
4.73127e-12
4.59233e-12
4.31771e-12
4.17478e-12
4.30188e-12
5.96327e-12
5.8264e-12
5.74398e-12
5.83792e-12
5.93571e-12
6.01557e-12
6.20526e-12
6.34789e-12
6.17687e-12
5.79384e-12
5.54045e-12
5.66524e-12
1.66565e-11
1.66886e-11
1.67342e-11
1.65467e-11
1.64207e-11
1.63764e-11
1.70413e-11
1.79731e-11
1.75783e-11
1.6444e-11
1.54113e-11
1.55077e-11
5.70894e-11
5.78508e-11
5.83994e-11
5.70469e-11
5.60507e-11
5.55586e-11
5.79469e-11
6.17201e-11
6.04852e-11
5.67253e-11
5.28814e-11
5.27658e-11
1.64116e-10
1.67223e-10
1.69214e-10
1.6434e-10
1.60869e-10
1.59187e-10
1.65895e-10
1.76813e-10
1.73395e-10
1.63461e-10
1.52644e-10
1.5156e-10
3.8683e-10
3.95864e-10
4.01083e-10
3.87828e-10
3.78813e-10
3.74629e-10
3.89666e-10
4.14446e-10
4.06576e-10
3.85855e-10
3.61893e-10
3.57824e-10
7.73414e-10
7.94697e-10
8.05794e-10
7.76116e-10
7.56869e-10
7.48358e-10
7.7647e-10
8.23088e-10
8.07562e-10
7.72348e-10
7.28665e-10
7.17657e-10
1.35503e-09
1.39771e-09
1.41769e-09
1.36074e-09
1.32539e-09
1.31054e-09
1.35603e-09
1.43162e-09
1.4046e-09
1.35426e-09
1.2865e-09
1.2625e-09
2.13627e-09
2.21139e-09
2.2427e-09
2.14633e-09
2.08892e-09
2.06613e-09
2.13173e-09
2.23999e-09
2.19702e-09
2.13592e-09
2.04443e-09
1.99984e-09
3.0954e-09
3.21439e-09
3.25796e-09
3.11097e-09
3.02662e-09
2.99516e-09
3.08146e-09
3.22093e-09
3.15713e-09
3.0948e-09
2.98575e-09
2.91262e-09
4.16479e-09
4.33846e-09
4.38742e-09
4.19255e-09
4.0756e-09
4.02775e-09
4.12542e-09
4.28908e-09
4.2134e-09
4.16823e-09
4.06302e-09
3.95915e-09
5.13216e-09
5.35634e-09
5.41177e-09
5.16839e-09
5.02578e-09
4.97061e-09
5.07945e-09
5.25342e-09
5.15493e-09
5.13183e-09
5.03293e-09
4.89717e-09
6.14065e-09
6.42075e-09
6.4825e-09
6.18846e-09
6.0197e-09
5.95798e-09
6.07377e-09
6.24734e-09
6.12298e-09
6.13552e-09
6.05457e-09
5.88406e-09
7.17725e-09
7.51792e-09
7.58595e-09
7.24071e-09
7.04582e-09
6.97828e-09
7.09605e-09
7.25676e-09
7.10364e-09
7.16672e-09
7.11683e-09
6.9097e-09
8.23142e-09
8.63615e-09
8.71039e-09
8.31547e-09
8.09511e-09
8.02238e-09
8.13671e-09
8.27087e-09
8.08624e-09
8.21524e-09
8.21054e-09
7.96614e-09
9.29598e-09
9.76679e-09
9.84719e-09
9.40658e-09
9.16202e-09
9.08447e-09
9.18973e-09
9.28305e-09
9.06453e-09
9.27438e-09
9.32942e-09
9.04871e-09
1.03676e-08
1.09048e-08
1.09917e-08
1.0512e-08
1.0245e-08
1.01625e-08
1.02531e-08
1.02914e-08
1.00372e-08
1.03416e-08
1.04707e-08
1.01567e-08
1.14474e-08
1.20494e-08
1.21441e-08
1.16345e-08
1.13469e-08
1.1259e-08
1.13294e-08
1.1299e-08
1.10082e-08
1.1419e-08
1.16358e-08
1.12938e-08
1.2542e-08
1.32054e-08
1.33101e-08
1.2782e-08
1.24758e-08
1.23811e-08
1.24263e-08
1.23149e-08
1.19872e-08
1.25141e-08
1.28311e-08
1.2469e-08
1.36642e-08
1.4384e-08
1.45015e-08
1.3968e-08
1.36449e-08
1.3542e-08
1.35579e-08
1.33539e-08
1.29897e-08
1.36402e-08
1.40687e-08
1.36968e-08
1.4833e-08
1.56018e-08
1.57359e-08
1.52117e-08
1.48734e-08
1.47608e-08
1.47442e-08
1.44374e-08
1.40366e-08
1.48169e-08
1.53669e-08
1.49972e-08
1.60733e-08
1.6881e-08
1.70354e-08
1.6537e-08
1.61858e-08
1.60622e-08
1.60112e-08
1.55927e-08
1.51545e-08
1.60685e-08
1.67491e-08
1.63949e-08
1.74156e-08
1.82481e-08
1.8426e-08
1.79721e-08
1.76111e-08
1.74764e-08
1.73916e-08
1.68532e-08
1.6375e-08
1.74241e-08
1.82429e-08
1.79189e-08
1.88977e-08
1.97361e-08
1.99384e-08
1.95497e-08
1.91845e-08
1.90416e-08
1.89272e-08
1.82607e-08
1.7736e-08
1.89177e-08
1.98806e-08
1.96031e-08
2.05694e-08
2.13879e-08
2.16121e-08
2.1311e-08
2.09513e-08
2.08086e-08
2.06747e-08
1.98695e-08
1.92839e-08
2.05917e-08
2.17036e-08
2.149e-08
2.24993e-08
2.32632e-08
2.3501e-08
2.33115e-08
2.29736e-08
2.28488e-08
2.27138e-08
2.17537e-08
2.10792e-08
2.25032e-08
2.37696e-08
2.36382e-08
2.47846e-08
2.54467e-08
2.56818e-08
2.56303e-08
2.53407e-08
2.52646e-08
2.51585e-08
2.40156e-08
2.32035e-08
2.47324e-08
2.61638e-08
2.61331e-08
2.75629e-08
2.80588e-08
2.82643e-08
2.83815e-08
2.81813e-08
2.82023e-08
2.817e-08
2.67979e-08
2.57694e-08
2.73952e-08
2.90128e-08
2.91014e-08
3.10274e-08
3.1269e-08
3.14045e-08
3.17301e-08
3.168e-08
3.18681e-08
3.19743e-08
3.02987e-08
2.89339e-08
3.06578e-08
3.25013e-08
3.27293e-08
3.54475e-08
3.53126e-08
3.53209e-08
3.59112e-08
3.60984e-08
3.65504e-08
3.68866e-08
3.47929e-08
3.29167e-08
3.47571e-08
3.68944e-08
3.72847e-08
4.11968e-08
4.05138e-08
4.03171e-08
4.12571e-08
4.18056e-08
4.26517e-08
4.33476e-08
4.06625e-08
3.80252e-08
4.00284e-08
4.25661e-08
4.31468e-08
4.86472e-08
4.71541e-08
4.66422e-08
4.80692e-08
4.91649e-08
5.05942e-08
5.18473e-08
4.82984e-08
4.45237e-08
4.67752e-08
4.98825e-08
5.06943e-08
5.84107e-08
5.57049e-08
5.47246e-08
5.6863e-08
5.87857e-08
6.10719e-08
6.31848e-08
5.83454e-08
5.28715e-08
5.55202e-08
5.94565e-08
6.05593e-08
7.14488e-08
6.68969e-08
6.52338e-08
6.84541e-08
7.1639e-08
7.51905e-08
7.86356e-08
7.18262e-08
6.3798e-08
6.70989e-08
7.22619e-08
7.37436e-08
8.92803e-08
8.18578e-08
7.92054e-08
8.41329e-08
8.9275e-08
9.47057e-08
1.00228e-07
9.03693e-08
7.8456e-08
8.28424e-08
8.98606e-08
9.18535e-08
1.14242e-07
1.02276e-07
9.82168e-08
1.05925e-07
1.13277e-07
1.20498e-07
1.28537e-07
1.15886e-07
9.86297e-08
1.04215e-07
1.14729e-07
1.175e-07
1.43051e-07
1.25507e-07
1.21048e-07
1.32583e-07
1.39882e-07
1.49842e-07
1.61414e-07
1.44201e-07
1.21626e-07
1.27553e-07
1.44559e-07
1.52334e-07
1.79856e-07
1.54536e-07
1.48329e-07
1.6491e-07
1.75246e-07
1.88822e-07
2.05266e-07
1.81761e-07
1.50285e-07
1.58458e-07
1.81945e-07
1.92525e-07
2.28884e-07
1.92699e-07
1.84221e-07
2.08064e-07
2.22493e-07
2.40722e-07
2.63811e-07
2.31731e-07
1.88148e-07
1.9975e-07
2.3232e-07
2.46752e-07
2.93895e-07
2.43025e-07
2.31667e-07
2.65777e-07
2.8533e-07
3.08644e-07
3.39637e-07
2.97526e-07
2.38322e-07
2.55033e-07
2.99861e-07
3.1929e-07
3.76962e-07
3.08206e-07
2.93755e-07
3.40417e-07
3.65728e-07
3.94956e-07
4.35839e-07
3.81154e-07
3.03431e-07
3.26549e-07
3.86992e-07
4.12934e-07
4.81306e-07
3.89929e-07
3.72017e-07
4.34648e-07
4.6692e-07
5.0284e-07
5.5547e-07
4.85648e-07
3.85202e-07
4.16886e-07
4.97513e-07
5.31788e-07
6.09421e-07
4.9075e-07
4.6908e-07
5.51292e-07
5.91521e-07
6.3446e-07
7.00137e-07
6.13102e-07
4.86308e-07
5.28743e-07
6.34207e-07
6.78818e-07
7.6198e-07
6.12391e-07
5.86927e-07
6.91757e-07
7.40499e-07
7.90073e-07
8.69074e-07
7.63756e-07
6.08495e-07
6.63319e-07
7.97147e-07
8.54414e-07
9.37081e-07
7.55127e-07
7.26115e-07
8.55221e-07
9.12385e-07
9.67309e-07
1.05851e-06
9.3537e-07
7.51828e-07
8.19427e-07
9.81871e-07
1.05517e-06
1.13007e-06
9.1734e-07
8.85234e-07
1.03816e-06
1.10286e-06
1.16101e-06
1.26159e-06
1.12311e-06
9.14086e-07
9.92977e-07
1.17817e-06
1.27337e-06
1.33413e-06
1.09539e-06
1.06068e-06
1.23448e-06
1.30501e-06
1.36383e-06
1.46883e-06
1.31996e-06
1.09049e-06
1.17715e-06
1.37764e-06
1.49764e-06
1.54126e-06
1.28388e-06
1.24689e-06
1.43634e-06
1.5107e-06
1.56743e-06
1.66848e-06
1.51745e-06
1.2738e-06
1.36324e-06
1.57897e-06
1.71501e-06
1.74317e-06
1.47623e-06
1.43694e-06
1.63529e-06
1.71326e-06
1.76362e-06
1.78771e-06
1.69374e-06
1.45481e-06
1.29405e-06
1.77739e-06
1.91627e-06
1.93242e-06
1.66551e-06
1.6235e-06
1.6536e-06
1.70853e-06
1.67488e-06
1.6675e-06
1.58667e-06
1.35012e-06
1.22043e-06
1.89628e-06
2.01092e-06
2.10294e-06
1.84502e-06
1.74951e-06
1.55785e-06
1.62946e-06
1.58662e-06
1.55873e-06
1.47663e-06
1.23705e-06
1.17265e-06
1.85989e-06
1.9714e-06
2.07059e-06
1.9811e-06
1.62763e-06
1.49937e-06
1.58382e-06
1.53243e-06
1.48872e-06
1.38971e-06
1.14657e-06
1.15089e-06
1.84464e-06
1.95446e-06
1.97137e-06
1.88236e-06
1.52315e-06
1.48638e-06
1.58086e-06
1.51556e-06
1.45672e-06
1.33076e-06
1.08238e-06
1.15369e-06
1.8616e-06
1.96672e-06
1.87733e-06
1.77028e-06
1.45965e-06
1.51177e-06
1.6203e-06
1.53558e-06
1.45885e-06
1.29918e-06
1.04269e-06
1.17884e-06
1.90261e-06
1.99986e-06
1.80146e-06
1.67798e-06
1.42853e-06
1.56927e-06
1.69736e-06
1.58965e-06
1.48833e-06
1.29017e-06
1.02357e-06
1.2238e-06
1.96341e-06
2.04857e-06
1.75025e-06
1.61153e-06
1.4217e-06
1.65586e-06
1.8049e-06
1.67186e-06
1.53769e-06
1.29767e-06
1.021e-06
1.2871e-06
2.04168e-06
2.11211e-06
1.72388e-06
1.56768e-06
1.43475e-06
1.77109e-06
1.93686e-06
1.77538e-06
1.60178e-06
1.31746e-06
1.03269e-06
1.36885e-06
2.13487e-06
2.19138e-06
1.71827e-06
1.54025e-06
1.46632e-06
1.91646e-06
2.08862e-06
1.8946e-06
1.67777e-06
1.34729e-06
1.05807e-06
1.47025e-06
2.23983e-06
2.28594e-06
1.7295e-06
1.52616e-06
1.51765e-06
2.09484e-06
2.25793e-06
2.02549e-06
1.76444e-06
1.38645e-06
1.09789e-06
1.59281e-06
2.35261e-06
2.39433e-06
1.75478e-06
1.52598e-06
1.59218e-06
2.31036e-06
2.44469e-06
2.16563e-06
1.86141e-06
1.43535e-06
1.15387e-06
1.7375e-06
2.46874e-06
2.51433e-06
1.79299e-06
1.54293e-06
1.6952e-06
2.56721e-06
2.64545e-06
2.31346e-06
1.9685e-06
1.49536e-06
1.22856e-06
1.904e-06
2.58387e-06
2.64268e-06
1.84482e-06
1.58197e-06
1.83342e-06
2.84482e-06
2.84701e-06
2.46592e-06
2.08523e-06
1.56869e-06
1.32538e-06
2.09007e-06
2.69453e-06
2.77512e-06
1.91269e-06
1.64934e-06
2.01432e-06
2.98306e-06
3.02583e-06
2.61624e-06
2.21049e-06
1.65837e-06
1.44865e-06
2.29105e-06
2.79851e-06
2.90663e-06
2.00068e-06
1.7524e-06
2.2459e-06
3.00029e-06
3.04979e-06
2.75617e-06
2.34258e-06
1.7682e-06
1.6033e-06
2.49963e-06
2.89469e-06
3.03267e-06
2.1143e-06
1.89905e-06
2.53337e-06
3.01437e-06
3.05867e-06
2.88052e-06
2.4792e-06
1.90223e-06
1.79389e-06
2.70777e-06
2.98182e-06
3.04968e-06
2.25887e-06
2.09562e-06
2.85015e-06
3.02562e-06
3.06523e-06
2.98613e-06
2.61726e-06
2.06379e-06
2.02236e-06
2.90565e-06
3.05582e-06
3.0569e-06
2.43763e-06
2.34355e-06
2.96179e-06
3.03426e-06
3.06969e-06
3.06891e-06
2.75238e-06
2.25325e-06
2.28423e-06
2.99213e-06
3.06451e-06
3.06251e-06
2.65339e-06
2.63694e-06
2.97419e-06
3.0404e-06
3.07229e-06
3.07146e-06
2.87923e-06
2.46557e-06
2.56837e-06
3.01094e-06
3.07183e-06
3.06663e-06
2.89954e-06
2.91574e-06
2.98312e-06
3.04412e-06
3.07308e-06
3.07174e-06
2.99092e-06
2.69116e-06
2.85324e-06
3.02794e-06
3.07792e-06
3.0693e-06
2.92456e-06
2.92444e-06
2.9887e-06
3.04563e-06
3.07213e-06
3.06993e-06
3.02084e-06
2.91021e-06
2.93332e-06
3.04234e-06
3.08285e-06
3.07053e-06
2.92828e-06
2.92991e-06
2.99109e-06
3.04465e-06
3.06962e-06
3.06625e-06
3.01856e-06
2.94933e-06
2.95036e-06
3.05392e-06
3.08662e-06
3.07028e-06
2.92998e-06
2.93225e-06
2.99062e-06
3.0414e-06
3.06567e-06
3.06081e-06
3.01439e-06
2.95353e-06
2.96403e-06
3.06271e-06
3.08922e-06
3.06855e-06
2.92952e-06
2.9316e-06
2.98774e-06
3.03677e-06
3.0605e-06
3.05382e-06
3.0087e-06
2.95583e-06
2.97466e-06
3.06834e-06
3.09065e-06
3.06533e-06
2.92683e-06
2.92827e-06
2.98293e-06
3.03103e-06
3.05431e-06
3.04551e-06
3.00188e-06
2.95656e-06
2.98255e-06
3.0714e-06
3.09087e-06
3.06065e-06
2.92195e-06
2.92257e-06
2.97628e-06
3.0245e-06
3.04737e-06
3.03614e-06
2.99442e-06
2.95604e-06
2.98798e-06
3.07381e-06
3.08989e-06
3.05461e-06
2.91494e-06
2.91498e-06
2.96931e-06
3.01759e-06
3.04012e-06
3.02599e-06
2.98677e-06
2.95457e-06
2.98694e-06
3.0757e-06
3.0877e-06
3.04735e-06
2.90595e-06
2.90571e-06
2.96262e-06
3.01078e-06
3.03305e-06
3.00421e-06
2.97938e-06
2.94581e-06
2.78123e-06
3.07684e-06
3.08428e-06
3.03906e-06
2.89525e-06
2.89624e-06
2.95658e-06
3.00443e-06
3.02602e-06
2.92417e-06
2.97258e-06
2.75657e-06
2.57849e-06
3.07686e-06
3.07965e-06
3.02992e-06
5.03946e-12
4.87652e-12
4.78282e-12
4.8998e-12
5.0319e-12
5.14964e-12
5.28196e-12
5.30189e-12
5.14511e-12
4.85683e-12
4.70097e-12
4.83215e-12
4.92101e-12
4.75865e-12
4.66493e-12
4.77353e-12
4.90486e-12
5.02397e-12
5.1527e-12
5.16988e-12
5.01414e-12
4.73443e-12
4.58078e-12
4.70528e-12
8.20877e-12
7.88701e-12
7.69422e-12
7.76535e-12
8.02309e-12
8.29839e-12
8.50387e-12
8.48522e-12
8.17585e-12
7.75185e-12
7.47393e-12
7.60997e-12
3.22771e-11
3.0855e-11
2.99798e-11
2.98439e-11
3.09836e-11
3.2338e-11
3.30996e-11
3.28331e-11
3.14468e-11
2.99852e-11
2.88365e-11
2.90838e-11
1.23228e-10
1.17781e-10
1.14394e-10
1.13395e-10
1.17804e-10
1.23199e-10
1.25982e-10
1.2468e-10
1.19285e-10
1.14167e-10
1.09876e-10
1.10424e-10
3.6486e-10
3.49148e-10
3.3928e-10
3.35639e-10
3.48532e-10
3.64546e-10
3.72365e-10
3.6798e-10
3.52157e-10
3.3829e-10
3.26252e-10
3.272e-10
8.68754e-10
8.32679e-10
8.09694e-10
7.99743e-10
8.2983e-10
8.67653e-10
8.8506e-10
8.73477e-10
8.36559e-10
8.06838e-10
7.80362e-10
7.81317e-10
1.74417e-09
1.67454e-09
1.62927e-09
1.60716e-09
1.66624e-09
1.74127e-09
1.77357e-09
1.74811e-09
1.67589e-09
1.62295e-09
1.57499e-09
1.5748e-09
3.0632e-09
2.94541e-09
2.86673e-09
2.82514e-09
2.9269e-09
3.05717e-09
3.10936e-09
3.06051e-09
2.93674e-09
2.85553e-09
2.78114e-09
2.77818e-09
4.83965e-09
4.65926e-09
4.53471e-09
4.46671e-09
4.62504e-09
4.82905e-09
4.90526e-09
4.82168e-09
4.63047e-09
4.51846e-09
4.41631e-09
4.40944e-09
7.0296e-09
6.77353e-09
6.58996e-09
6.49104e-09
6.71862e-09
7.01337e-09
7.11695e-09
6.98684e-09
6.71437e-09
6.57071e-09
6.44298e-09
6.43261e-09
9.50391e-09
9.16995e-09
8.90902e-09
8.79848e-09
9.08628e-09
9.45294e-09
9.57047e-09
9.41457e-09
9.09963e-09
8.90751e-09
8.74604e-09
8.74624e-09
1.17486e-08
1.13378e-08
1.10116e-08
1.08795e-08
1.12349e-08
1.16912e-08
1.18352e-08
1.16378e-08
1.12515e-08
1.10181e-08
1.08276e-08
1.08345e-08
1.41035e-08
1.36129e-08
1.32173e-08
1.30621e-08
1.3489e-08
1.40435e-08
1.42169e-08
1.39731e-08
1.35094e-08
1.32336e-08
1.30156e-08
1.30308e-08
1.65428e-08
1.59705e-08
1.55003e-08
1.53207e-08
1.58235e-08
1.64851e-08
1.66917e-08
1.63959e-08
1.58477e-08
1.55288e-08
1.52859e-08
1.53105e-08
1.90459e-08
1.83902e-08
1.78395e-08
1.76349e-08
1.82183e-08
1.8997e-08
1.92418e-08
1.88877e-08
1.8246e-08
1.78832e-08
1.76189e-08
1.76537e-08
2.16001e-08
2.08589e-08
2.02211e-08
1.99918e-08
2.06613e-08
2.15683e-08
2.18575e-08
2.14383e-08
2.06924e-08
2.02835e-08
2.00018e-08
2.00478e-08
2.4201e-08
2.33715e-08
2.26403e-08
2.23872e-08
2.3149e-08
2.41967e-08
2.45382e-08
2.40461e-08
2.31833e-08
2.27252e-08
2.24296e-08
2.2489e-08
2.68543e-08
2.59322e-08
2.51017e-08
2.48262e-08
2.56874e-08
2.68892e-08
2.72928e-08
2.67192e-08
2.57237e-08
2.52132e-08
2.49071e-08
2.4983e-08
2.95761e-08
2.85549e-08
2.76197e-08
2.73241e-08
2.82921e-08
2.96633e-08
3.01409e-08
2.94759e-08
2.83279e-08
2.77627e-08
2.74493e-08
2.75465e-08
3.23929e-08
3.12634e-08
3.02182e-08
2.99053e-08
3.0989e-08
3.2547e-08
3.31128e-08
3.23436e-08
3.10193e-08
3.03988e-08
3.00818e-08
3.02066e-08
3.53405e-08
3.40899e-08
3.29283e-08
3.26025e-08
3.38122e-08
3.55771e-08
3.62482e-08
3.5358e-08
3.38293e-08
3.31542e-08
3.28397e-08
3.29992e-08
3.84613e-08
3.70725e-08
3.57856e-08
3.54535e-08
3.68022e-08
3.87973e-08
3.95941e-08
3.85612e-08
3.67949e-08
3.60665e-08
3.5764e-08
3.59669e-08
4.18035e-08
4.02538e-08
3.88296e-08
3.85e-08
4.00041e-08
4.22571e-08
4.32055e-08
4.20023e-08
3.9956e-08
3.91766e-08
3.89002e-08
3.91567e-08
4.54245e-08
4.36821e-08
4.21045e-08
4.17887e-08
4.34701e-08
4.60165e-08
4.71505e-08
4.57399e-08
4.33575e-08
4.25302e-08
4.22996e-08
4.26228e-08
4.93977e-08
4.74178e-08
4.56641e-08
4.53774e-08
4.72666e-08
5.0154e-08
5.152e-08
4.98502e-08
4.70541e-08
4.61832e-08
4.60274e-08
4.64353e-08
5.38246e-08
5.15423e-08
4.95808e-08
4.93446e-08
5.14852e-08
5.47789e-08
5.64407e-08
5.44375e-08
5.11189e-08
5.02119e-08
5.01746e-08
5.06942e-08
5.88468e-08
5.61694e-08
5.39563e-08
5.38026e-08
5.62569e-08
6.00445e-08
6.20877e-08
5.9647e-08
5.56548e-08
5.47255e-08
5.4873e-08
5.55465e-08
6.46582e-08
6.14564e-08
5.89337e-08
5.89115e-08
6.17642e-08
6.61597e-08
6.86973e-08
6.56769e-08
6.08074e-08
5.98797e-08
6.03092e-08
6.12018e-08
7.15156e-08
6.76144e-08
6.47089e-08
6.48921e-08
6.82556e-08
7.33997e-08
7.65762e-08
7.27906e-08
6.67778e-08
6.58899e-08
6.67377e-08
6.79464e-08
7.97399e-08
7.49148e-08
7.1541e-08
7.20384e-08
7.60513e-08
8.21056e-08
8.61075e-08
8.13239e-08
7.38352e-08
7.30433e-08
7.44851e-08
7.61464e-08
8.97284e-08
8.36857e-08
7.97505e-08
8.07177e-08
8.55486e-08
9.27129e-08
9.77947e-08
9.17001e-08
8.23195e-08
8.16971e-08
8.39499e-08
8.62528e-08
1.02081e-07
9.43781e-08
8.97483e-08
9.142e-08
9.73257e-08
1.059e-07
1.12444e-07
1.04561e-07
9.26712e-08
9.23285e-08
9.57039e-08
9.89332e-08
1.17744e-07
1.07713e-07
1.02203e-07
1.04939e-07
1.12312e-07
1.22747e-07
1.31336e-07
1.20932e-07
1.05607e-07
1.05712e-07
1.10661e-07
1.15246e-07
1.38177e-07
1.24799e-07
1.18151e-07
1.22526e-07
1.31979e-07
1.44963e-07
1.56509e-07
1.42426e-07
1.22247e-07
1.23069e-07
1.3025e-07
1.36841e-07
1.65678e-07
1.47365e-07
1.39229e-07
1.46189e-07
1.58708e-07
1.75312e-07
1.91299e-07
1.71666e-07
1.44376e-07
1.46364e-07
1.56755e-07
1.66336e-07
2.03874e-07
1.78121e-07
1.68046e-07
1.79109e-07
1.95098e-07
2.16389e-07
2.39047e-07
2.12661e-07
1.74782e-07
1.78687e-07
1.93903e-07
2.08038e-07
2.52311e-07
2.16941e-07
2.04477e-07
2.17389e-07
2.30037e-07
2.56082e-07
2.85223e-07
2.54323e-07
2.10643e-07
2.15331e-07
2.43212e-07
2.6643e-07
3.04591e-07
2.57628e-07
2.4218e-07
2.602e-07
2.76107e-07
3.0851e-07
3.45932e-07
3.06898e-07
2.50615e-07
2.57079e-07
2.94702e-07
3.26436e-07
3.72237e-07
3.11261e-07
2.91892e-07
3.16899e-07
3.3613e-07
3.75359e-07
4.22472e-07
3.74585e-07
3.03896e-07
3.12228e-07
3.6132e-07
4.03555e-07
4.55732e-07
3.78489e-07
3.55063e-07
3.8803e-07
4.10554e-07
4.57468e-07
5.16111e-07
4.58225e-07
3.71821e-07
3.81279e-07
4.4349e-07
4.98946e-07
5.57282e-07
4.60587e-07
4.32695e-07
4.75576e-07
5.01653e-07
5.56907e-07
6.28522e-07
5.60106e-07
4.55999e-07
4.65731e-07
5.43199e-07
6.14698e-07
6.7844e-07
5.59637e-07
5.27014e-07
5.81794e-07
6.1138e-07
6.75011e-07
7.60194e-07
6.81696e-07
5.58804e-07
5.6733e-07
6.61676e-07
7.51592e-07
8.19559e-07
6.77218e-07
6.39886e-07
7.081e-07
7.40774e-07
8.11969e-07
9.10022e-07
8.23037e-07
6.81629e-07
6.869e-07
7.98925e-07
9.08572e-07
9.79448e-07
8.1399e-07
7.72303e-07
8.54584e-07
8.89565e-07
9.66574e-07
1.07522e-06
9.82295e-07
8.24152e-07
8.23994e-07
9.53652e-07
1.08263e-06
1.15525e-06
9.69294e-07
9.23942e-07
1.01967e-06
1.05595e-06
1.13619e-06
1.25164e-06
1.15569e-06
9.83785e-07
9.76765e-07
1.12353e-06
1.26916e-06
1.34276e-06
1.14083e-06
1.0928e-06
1.20005e-06