/*--------------------------------*- C++ -*----------------------------------*\
| =========                 |                                                 |
| \\      /  F ield         | OpenFOAM: The Open Source CFD Toolbox           |
|  \\    /   O peration     | Version:  v1912                                 |
|   \\  /    A nd           | Website:  www.openfoam.com                      |
|    \\/     M anipulation  |                                                 |
\*---------------------------------------------------------------------------*/
FoamFile
{
    version     2.0;
    format      ascii;
    class       volVectorField;
    location    "8.8";
    object      UMean;
}
// * * * * * * * * * * * * * * * * * * * * * * * * * * * * * * * * * * * * * //

dimensions      [0 1 -1 0 0 0 0];


internalField   nonuniform List<vector> 
34128
(
(-1.28407e-07 -3.85643e-07 -0.00490734)
(6.25113e-07 -3.84716e-07 -0.00489576)
(3.17088e-07 -3.7648e-07 -0.00487577)
(-1.13583e-06 -3.75892e-07 -0.00487335)
(-1.6585e-06 -3.79249e-07 -0.00488651)
(-1.70737e-06 -3.85636e-07 -0.0049034)
(-3.48089e-07 -3.90277e-07 -0.0049164)
(1.15842e-06 -3.84898e-07 -0.00489819)
(8.66989e-07 -3.75569e-07 -0.00486708)
(-1.05177e-06 -3.75354e-07 -0.00487387)
(-1.29722e-06 -3.87908e-07 -0.00491732)
(9.05695e-07 -3.92388e-07 -0.00493141)
(-3.66285e-07 4.74141e-06 -0.0147044)
(1.79977e-06 4.7659e-06 -0.0146706)
(9.05939e-07 4.85518e-06 -0.0146125)
(-3.30946e-06 4.87338e-06 -0.0146055)
(-4.81153e-06 4.82232e-06 -0.0146439)
(-4.93366e-06 4.7444e-06 -0.014693)
(-1.03222e-06 4.69257e-06 -0.0147307)
(3.30927e-06 4.75606e-06 -0.0146778)
(2.46599e-06 4.87479e-06 -0.0145875)
(-3.04966e-06 4.8638e-06 -0.0146072)
(-3.70371e-06 4.70984e-06 -0.0147331)
(2.62087e-06 4.66328e-06 -0.0147741)
(-5.94122e-07 1.04274e-05 -0.0245954)
(2.90389e-06 1.05033e-05 -0.0245403)
(1.44516e-06 1.07536e-05 -0.024446)
(-5.42219e-06 1.08086e-05 -0.0244348)
(-7.84882e-06 1.0658e-05 -0.0244972)
(-8.02322e-06 1.04366e-05 -0.024577)
(-1.73192e-06 1.0291e-05 -0.0246381)
(5.29917e-06 1.04682e-05 -0.0245524)
(3.93255e-06 1.08078e-05 -0.0244058)
(-4.98094e-06 1.07741e-05 -0.0244376)
(-5.97454e-06 1.03384e-05 -0.0246416)
(4.23176e-06 1.02075e-05 -0.0247082)
(-8.08357e-07 2.22793e-05 -0.0345451)
(3.94343e-06 2.24344e-05 -0.0344697)
(1.94166e-06 2.29265e-05 -0.0343414)
(-7.46865e-06 2.30399e-05 -0.0343264)
(-1.07649e-05 2.27372e-05 -0.0344116)
(-1.09702e-05 2.23e-05 -0.0345204)
(-2.43869e-06 2.20141e-05 -0.0346033)
(7.14331e-06 2.23629e-05 -0.0344869)
(5.2869e-06 2.3037e-05 -0.0342876)
(-6.83024e-06 2.29632e-05 -0.0343305)
(-8.09959e-06 2.2101e-05 -0.0346074)
(5.75107e-06 2.18464e-05 -0.0346981)
(-1.00452e-06 3.59353e-05 -0.0445105)
(4.92452e-06 3.61988e-05 -0.0444161)
(2.40183e-06 3.70133e-05 -0.0442561)
(-9.44526e-06 3.72054e-05 -0.0442381)
(-1.35573e-05 3.66966e-05 -0.0443446)
(-1.37723e-05 3.59726e-05 -0.04448)
(-3.14941e-06 3.55008e-05 -0.0445832)
(8.84956e-06 3.60772e-05 -0.0444385)
(6.54178e-06 3.71975e-05 -0.0441905)
(-8.58971e-06 3.70685e-05 -0.0442435)
(-1.00763e-05 3.56389e-05 -0.0445873)
(7.18382e-06 3.52196e-05 -0.0447003)
(-1.17924e-06 5.33071e-05 -0.0544459)
(5.85191e-06 5.37083e-05 -0.0543337)
(2.83006e-06 5.49244e-05 -0.0541449)
(-1.1351e-05 5.52149e-05 -0.0541243)
(-1.62269e-05 5.44463e-05 -0.0542505)
(-1.64311e-05 5.33665e-05 -0.0544103)
(-3.86532e-06 5.26644e-05 -0.0545318)
(1.04201e-05 5.35232e-05 -0.0543616)
(7.70382e-06 5.51996e-05 -0.0540694)
(-1.02573e-05 5.49982e-05 -0.0541311)
(-1.19072e-05 5.28626e-05 -0.0545354)
(8.53031e-06 5.22401e-05 -0.0546687)
(-1.32947e-06 7.36842e-05 -0.0643059)
(6.72989e-06 7.42528e-05 -0.0641773)
(3.23016e-06 7.59502e-05 -0.0639626)
(-1.31855e-05 7.63581e-05 -0.0639403)
(-1.87762e-05 7.52749e-05 -0.0640845)
(-1.89494e-05 7.37715e-05 -0.0642661)
(-4.58882e-06 7.2795e-05 -0.0644039)
(1.18556e-05 7.39901e-05 -0.0642111)
(8.7776e-06 7.6332e-05 -0.0638793)
(-1.18332e-05 7.60414e-05 -0.0639486)
(-1.35958e-05 7.30623e-05 -0.0644066)
(9.79021e-06 7.21986e-05 -0.0645579)
(-1.45303e-06 9.69147e-05 -0.0740491)
(7.56209e-06 9.76812e-05 -0.0739056)
(3.60535e-06 9.99396e-05 -0.0736679)
(-1.49495e-05 0.000100483 -0.0736446)
(-2.12091e-05 9.90295e-05 -0.0738049)
(-2.13317e-05 9.70359e-05 -0.0740057)
(-5.32286e-06 9.57416e-05 -0.0741578)
(1.31564e-05 9.73257e-05 -0.0739455)
(9.76637e-06 0.000100442 -0.0735788)
(-1.3319e-05 0.000100045 -0.0736545)
(-1.51465e-05 9.60862e-05 -0.0741593)
(1.09632e-05 9.49441e-05 -0.0743265)
(-1.54892e-06 0.00012278 -0.0836403)
(8.35123e-06 0.000123776 -0.0834832)
(3.95842e-06 0.000126675 -0.0832254)
(-1.66442e-05 0.000127371 -0.0832017)
(-2.35311e-05 0.00012549 -0.0833765)
(-2.35838e-05 0.000122942 -0.0835939)
(-6.07038e-06 0.000121287 -0.0837586)
(1.43233e-05 0.000123311 -0.0835294)
(1.06727e-05 0.000127309 -0.0831323)
(-1.47179e-05 0.000126789 -0.0832133)
(-1.65637e-05 0.000121717 -0.0837585)
(1.20498e-05 0.000120261 -0.0839395)
(-1.61748e-06 0.000151092 -0.0930527)
(9.09917e-06 0.000152347 -0.0928832)
(4.29192e-06 0.000155966 -0.0926079)
(-1.8271e-05 0.000156831 -0.0925844)
(-2.57487e-05 0.000154465 -0.092772)
(-2.57127e-05 0.000151299 -0.0930039)
(-6.83398e-06 0.000149242 -0.0931794)
(1.53583e-05 0.000151756 -0.092936)
(1.14987e-05 0.000156741 -0.0925125)
(-1.60339e-05 0.000156081 -0.0925978)
(-1.78517e-05 0.000149767 -0.0931778)
(1.30512e-05 0.000147962 -0.0933706)
(-1.66024e-06 0.000181661 -0.102268)
(9.80696e-06 0.000183207 -0.102088)
(4.6084e-06 0.000187624 -0.101797)
(-1.98317e-05 0.000188671 -0.101774)
(-2.78692e-05 0.000185762 -0.101973)
(-2.77261e-05 0.000181919 -0.102218)
(-7.61577e-06 0.000179421 -0.102403)
(1.62641e-05 0.000182469 -0.102147)
(1.22466e-05 0.000188542 -0.101701)
(-1.72712e-05 0.000187728 -0.101789)
(-1.9014e-05 0.000180049 -0.102399)
(1.39698e-05 0.000177863 -0.102603)
(-1.67961e-06 0.000214321 -0.111278)
(1.04751e-05 0.000216189 -0.111087)
(4.91057e-06 0.00022148 -0.110783)
(-2.13274e-05 0.000222722 -0.110761)
(-2.98999e-05 0.000219213 -0.11097)
(-2.96316e-05 0.000214636 -0.111226)
(-8.41737e-06 0.000211657 -0.111419)
(1.70441e-05 0.000215282 -0.111154)
(1.29182e-05 0.000222543 -0.110686)
(-1.84339e-05 0.000221559 -0.110778)
(-2.00531e-05 0.000212398 -0.111414)
(1.48083e-05 0.000209803 -0.111627)
(-1.67838e-06 0.000248933 -0.12008)
(1.11036e-05 0.000251152 -0.119879)
(5.20145e-06 0.000257393 -0.119563)
(-2.27585e-05 0.000258843 -0.119543)
(-3.18478e-05 0.000254675 -0.119761)
(-3.14364e-05 0.000249308 -0.120026)
(-9.24012e-06 0.000245812 -0.120228)
(1.77013e-05 0.000250054 -0.119953)
(1.35149e-05 0.000258597 -0.119467)
(-1.9526e-05 0.00025743 -0.119561)
(-2.09703e-05 0.000246676 -0.120221)
(1.557e-05 0.000243646 -0.120441)
(-1.6592e-06 0.000285379 -0.128675)
(1.16923e-05 0.000287978 -0.128466)
(5.48401e-06 0.000295242 -0.128139)
(-2.41244e-05 0.000296911 -0.12812)
(-3.37189e-05 0.000292026 -0.128347)
(-3.31462e-05 0.000285817 -0.12862)
(-1.00852e-05 0.000281771 -0.128829)
(1.82368e-05 0.000286665 -0.128546)
(1.40367e-05 0.000296579 -0.128044)
(-2.05501e-05 0.000295216 -0.12814)
(-2.17654e-05 0.000282766 -0.128821)
(1.6257e-05 0.00027928 -0.129048)
(-1.62438e-06 0.000323551 -0.137065)
(1.22406e-05 0.000326558 -0.136848)
(5.76097e-06 0.000334917 -0.136512)
(-2.54226e-05 0.000336815 -0.136493)
(-3.55169e-05 0.000331156 -0.136728)
(-3.4765e-05 0.000324055 -0.137009)
(-1.0954e-05 0.000319426 -0.137225)
(1.86493e-05 0.000325003 -0.136935)
(1.44817e-05 0.000336375 -0.136417)
(-2.15078e-05 0.000334803 -0.136514)
(-2.24361e-05 0.000320561 -0.137215)
(1.68705e-05 0.000316599 -0.137449)
(-1.57556e-06 0.000363351 -0.145251)
(1.27476e-05 0.000366793 -0.145026)
(6.03473e-06 0.000376319 -0.144681)
(-2.6649e-05 0.000378457 -0.144664)
(-3.72436e-05 0.000371964 -0.144906)
(-3.62946e-05 0.000363924 -0.145194)
(-1.18478e-05 0.00035868 -0.145417)
(1.89347e-05 0.000364968 -0.14512)
(1.48463e-05 0.000377881 -0.144587)
(-2.23992e-05 0.00037609 -0.144686)
(-2.29785e-05 0.000359963 -0.145405)
(1.74106e-05 0.000355511 -0.145645)
(-1.51357e-06 0.000404678 -0.15323)
(1.32121e-05 0.000408581 -0.152999)
(6.3071e-06 0.000419344 -0.152646)
(-2.77979e-05 0.000421734 -0.15263)
(-3.88986e-05 0.000414349 -0.152878)
(-3.77352e-05 0.000405321 -0.153173)
(-1.27684e-05 0.000399433 -0.153401)
(1.90856e-05 0.000406457 -0.153099)
(1.5125e-05 0.000420992 -0.152553)
(-2.32222e-05 0.000418968 -0.152653)
(-2.33869e-05 0.00040087 -0.153387)
(1.78761e-05 0.000395915 -0.153633)
(-1.4383e-06 0.000447411 -0.160997)
(1.36327e-05 0.000451798 -0.160761)
(6.57912e-06 0.00046387 -0.160401)
(-2.88612e-05 0.000466525 -0.160387)
(-4.04788e-05 0.000458187 -0.16064)
(-3.90852e-05 0.000448125 -0.16094)
(-1.37175e-05 0.000441563 -0.161173)
(1.90916e-05 0.000449346 -0.160867)
(1.53101e-05 0.000465583 -0.16031)
(-2.39734e-05 0.000463314 -0.16041)
(-2.36535e-05 0.000443162 -0.161157)
(1.82652e-05 0.000437693 -0.161408)
(-1.34855e-06 0.000491398 -0.168544)
(1.40078e-05 0.000496294 -0.168303)
(6.85098e-06 0.000509745 -0.167938)
(-2.9829e-05 0.00051268 -0.167926)
(-4.19784e-05 0.000503329 -0.168184)
(-4.03409e-05 0.000492184 -0.168486)
(-1.46972e-05 0.00048492 -0.168724)
(1.89393e-05 0.000493481 -0.168415)
(1.53925e-05 0.0005115 -0.167849)
(-2.46469e-05 0.000508972 -0.167949)
(-2.37691e-05 0.000486684 -0.168706)
(1.8575e-05 0.000480695 -0.168961)
(-1.2419e-06 0.000536446 -0.175858)
(1.43354e-05 0.000541873 -0.175613)
(7.12197e-06 0.000556778 -0.175245)
(-3.06891e-05 0.000560009 -0.175235)
(-4.33887e-05 0.000549582 -0.175495)
(-4.14973e-05 0.000537307 -0.175799)
(-1.5709e-05 0.00052931 -0.176041)
(1.86132e-05 0.000538669 -0.17573)
(1.53613e-05 0.000558548 -0.175158)
(-2.52348e-05 0.000555748 -0.175258)
(-2.3723e-05 0.000531244 -0.176021)
(1.88029e-05 0.000524729 -0.176278)
(-1.11455e-06 0.000582317 -0.182922)
(1.46138e-05 0.000588297 -0.182675)
(7.39064e-06 0.00060473 -0.182306)
(-3.14273e-05 0.000608274 -0.182298)
(-4.46983e-05 0.000596708 -0.18256)
(-4.2548e-05 0.000583253 -0.182864)
(-1.67541e-05 0.000574495 -0.183107)
(1.80961e-05 0.000584668 -0.182797)
(1.52046e-05 0.000606486 -0.182222)
(-2.57275e-05 0.0006034 -0.182321)
(-2.35032e-05 0.000576603 -0.183085)
(1.89461e-05 0.000569558 -0.183343)
(-9.61122e-07 0.000628723 -0.189718)
(1.48413e-05 0.000635277 -0.18947)
(7.65491e-06 0.000653312 -0.189103)
(-3.20269e-05 0.000657189 -0.189097)
(-4.58931e-05 0.00064442 -0.189359)
(-4.3485e-05 0.000629738 -0.18966)
(-1.78326e-05 0.000620188 -0.189904)
(1.73705e-05 0.000631189 -0.189597)
(1.49105e-05 0.000655022 -0.189023)
(-2.61134e-05 0.000651636 -0.189121)
(-2.30972e-05 0.000622473 -0.189881)
(1.90027e-05 0.000614897 -0.190138)
(-7.74463e-07 0.000675331 -0.196227)
(1.50173e-05 0.000682478 -0.19598)
(7.91236e-06 0.000702188 -0.195618)
(-3.247e-05 0.000706422 -0.195614)
(-4.69563e-05 0.000692386 -0.195874)
(-4.42995e-05 0.000676425 -0.19617)
(-1.89432e-05 0.000666057 -0.196413)
(1.64194e-05 0.000677897 -0.19611)
(1.44669e-05 0.000703818 -0.195542)
(-2.63794e-05 0.000700116 -0.195637)
(-2.2492e-05 0.00066852 -0.196388)
(1.89717e-05 0.000660416 -0.196642)
(-5.45512e-07 0.000721765 -0.202429)
(1.5142e-05 0.000729521 -0.202184)
(8.16052e-06 0.00075098 -0.201829)
(-3.27367e-05 0.000755593 -0.201828)
(-4.78689e-05 0.000740228 -0.202084)
(-4.49815e-05 0.00072294 -0.202372)
(-2.00825e-05 0.000711725 -0.202612)
(1.52282e-05 0.000724412 -0.202316)
(1.38632e-05 0.000752488 -0.201758)
(-2.65114e-05 0.000748457 -0.201851)
(-2.16751e-05 0.000714368 -0.202587)
(1.88535e-05 0.000705744 -0.202836)
(-2.63141e-07 0.000767613 -0.208303)
(1.52176e-05 0.000775995 -0.208063)
(8.39714e-06 0.000799271 -0.207719)
(-3.28068e-05 0.00080429 -0.20772)
(-4.86102e-05 0.000787535 -0.207969)
(-4.55197e-05 0.000768873 -0.208248)
(-2.12446e-05 0.000756787 -0.208482)
(1.37859e-05 0.000770323 -0.208197)
(1.30904e-05 0.000800614 -0.207653)
(-2.64947e-05 0.000796238 -0.207742)
(-2.06351e-05 0.000759607 -0.208457)
(1.86499e-05 0.000750475 -0.2087)
(8.59358e-08 0.000812442 -0.213832)
(1.52481e-05 0.000821459 -0.213598)
(8.62061e-06 0.000846615 -0.213268)
(-3.26595e-05 0.000852069 -0.213272)
(-4.91574e-05 0.000833869 -0.213513)
(-4.59023e-05 0.000813788 -0.213779)
(-2.24202e-05 0.000800808 -0.214006)
(1.20867e-05 0.000815191 -0.213733)
(1.21428e-05 0.000847744 -0.213209)
(-2.63147e-05 0.000843011 -0.213293)
(-1.93623e-05 0.000803803 -0.213982)
(1.83641e-05 0.000794181 -0.214216)
(5.17218e-07 0.0008558 -0.219001)
(1.52402e-05 0.00086546 -0.218775)
(8.8302e-06 0.000892552 -0.218462)
(-3.22747e-05 0.00089847 -0.218469)
(-4.94873e-05 0.000878775 -0.218698)
(-4.61163e-05 0.000857234 -0.21895)
(-2.3596e-05 0.000843342 -0.219167)
(1.01318e-05 0.000858562 -0.218909)
(1.10178e-05 0.000893411 -0.218409)
(-2.59576e-05 0.000888307 -0.218489)
(-1.785e-05 0.000846507 -0.219146)
(1.8001e-05 0.000836419 -0.219369)
(1.04837e-06 0.000897234 -0.223797)
(1.52035e-05 0.000907539 -0.223581)
(9.02645e-06 0.000936613 -0.223287)
(-3.16334e-05 0.000943026 -0.223297)
(-4.95755e-05 0.000921794 -0.223513)
(-4.6148e-05 0.000898756 -0.223747)
(-2.47544e-05 0.000883939 -0.223954)
(7.93103e-06 0.000899978 -0.223713)
(9.71784e-06 0.000937141 -0.22324)
(-2.54108e-05 0.000931653 -0.223315)
(-1.60946e-05 0.000887265 -0.223935)
(1.7567e-05 0.000876747 -0.224147)
(1.69905e-06 0.000936297 -0.228211)
(1.51508e-05 0.000947247 -0.228005)
(9.21134e-06 0.000978334 -0.227735)
(-3.0719e-05 0.000985275 -0.227747)
(-4.93984e-05 0.000962475 -0.227947)
(-4.59831e-05 0.000937909 -0.228163)
(-2.58724e-05 0.00092216 -0.228358)
(5.50405e-06 0.000938993 -0.228136)
(8.25054e-06 0.000978465 -0.227694)
(-2.46642e-05 0.000972581 -0.227763)
(-1.40971e-05 0.000925634 -0.228343)
(1.70698e-05 0.000914728 -0.228541)
(2.49057e-06 0.000972566 -0.232238)
(1.50982e-05 0.000984155 -0.232044)
(9.38854e-06 0.00101727 -0.231798)
(-2.95181e-05 0.00102477 -0.231813)
(-4.89326e-05 0.00100039 -0.231997)
(-4.56066e-05 0.000974269 -0.232193)
(-2.69217e-05 0.000957588 -0.232374)
(2.88175e-06 0.00097518 -0.232172)
(6.62987e-06 0.00101693 -0.231765)
(-2.37106e-05 0.00101064 -0.231828)
(-1.18635e-05 0.000961194 -0.232363)
(1.65187e-05 0.000949953 -0.232548)
(3.44529e-06 0.00100565 -0.235877)
(1.50648e-05 0.00101787 -0.235697)
(9.56355e-06 0.00105302 -0.235478)
(-2.80214e-05 0.00106111 -0.235495)
(-4.81568e-05 0.00103513 -0.23566)
(-4.50039e-05 0.00100745 -0.235834)
(-2.78683e-05 0.000989842 -0.236001)
(1.07049e-07 0.00100815 -0.23582)
(4.87674e-06 0.00105213 -0.23545)
(-2.25465e-05 0.00104542 -0.235507)
(-9.40567e-06 0.000993559 -0.235995)
(1.59244e-05 0.000982046 -0.236165)
(4.58586e-06 0.00103522 -0.239133)
(1.50729e-05 0.00104805 -0.238967)
(9.74373e-06 0.00108521 -0.238775)
(-2.62249e-05 0.00109392 -0.238795)
(-4.70523e-05 0.00106635 -0.23894)
(-4.41602e-05 0.0010371 -0.239092)
(-2.8673e-05 0.00101859 -0.239243)
(-2.76476e-06 0.00103755 -0.239086)
(3.01963e-06 0.00108368 -0.238754)
(-2.11725e-05 0.00107654 -0.238805)
(-6.74159e-06 0.00102239 -0.239244)
(1.52989e-05 0.00101068 -0.239399)
(5.93421e-06 0.00106098 -0.242014)
(1.51471e-05 0.0010744 -0.241862)
(9.93841e-06 0.00111353 -0.241699)
(-2.41307e-05 0.00112289 -0.241721)
(-4.5604e-05 0.00109377 -0.241846)
(-4.30621e-05 0.00106294 -0.241975)
(-2.92919e-05 0.00104355 -0.242111)
(-5.66632e-06 0.00106312 -0.241976)
(1.0949e-06 0.00111128 -0.241683)
(-1.95943e-05 0.0011037 -0.241728)
(-3.89586e-06 0.00104741 -0.242118)
(1.46557e-05 0.00103559 -0.242259)
(7.5103e-06 0.00108272 -0.244533)
(1.53134e-05 0.00109671 -0.244395)
(1.01587e-05 0.00113774 -0.244261)
(-2.17475e-05 0.00114778 -0.244285)
(-4.38018e-05 0.00111715 -0.24439)
(-4.16977e-05 0.00108476 -0.244496)
(-2.96772e-05 0.00106453 -0.244616)
(-8.51931e-06 0.00108463 -0.244504)
(-8.53163e-07 0.00113468 -0.24425)
(-1.78226e-05 0.00112665 -0.244289)
(-8.99587e-07 0.00106841 -0.24463)
(1.40101e-05 0.00105656 -0.244757)
(9.33044e-06 0.00110031 -0.246707)
(1.55983e-05 0.00111484 -0.246584)
(1.04171e-05 0.00115768 -0.246479)
(-1.90918e-05 0.00116842 -0.246505)
(-4.16412e-05 0.00113633 -0.246588)
(-4.00575e-05 0.00110242 -0.246672)
(-2.97792e-05 0.00108139 -0.246776)
(-1.12363e-05 0.00110194 -0.246687)
(-2.77277e-06 0.00115371 -0.246472)
(-1.58735e-05 0.00114523 -0.246505)
(2.20988e-06 0.00108525 -0.246799)
(1.33786e-05 0.00107349 -0.246912)
(1.14054e-05 0.00111367 -0.248557)
(1.60265e-05 0.00112871 -0.248448)
(1.07268e-05 0.00117326 -0.248371)
(-1.61876e-05 0.0011847 -0.248398)
(-3.91253e-05 0.00115125 -0.248461)
(-3.81349e-05 0.00111584 -0.248524)
(-2.95485e-05 0.00109407 -0.248614)
(-1.37238e-05 0.00111499 -0.248546)
(-4.60554e-06 0.00116829 -0.248367)
(-1.37682e-05 0.00115933 -0.248395)
(5.38954e-06 0.00109788 -0.248644)
(1.2779e-05 0.0010863 -0.248745)
(1.37378e-05 0.00112283 -0.250107)
(1.66191e-05 0.00113835 -0.250012)
(1.11004e-05 0.00118447 -0.249961)
(-1.30677e-05 0.00119662 -0.24999)
(-3.62655e-05 0.00116191 -0.250033)
(-3.59281e-05 0.00112504 -0.250076)
(-2.89385e-05 0.00110259 -0.250152)
(-1.58863e-05 0.00112381 -0.250104)
(-6.28807e-06 0.0011784 -0.24996)
(-1.15325e-05 0.00116896 -0.249983)
(8.59176e-06 0.0011063 -0.25019)
(1.22296e-05 0.00109501 -0.250279)
(1.63198e-05 0.00112789 -0.251384)
(1.73901e-05 0.00114387 -0.251302)
(1.15492e-05 0.0011914 -0.251276)
(-9.77305e-06 0.00120425 -0.251305)
(-3.30835e-05 0.00116839 -0.25133)
(-3.34402e-05 0.00113012 -0.251354)
(-2.791e-05 0.00110706 -0.251417)
(-1.76317e-05 0.00112849 -0.251388)
(-7.75375e-06 0.00118415 -0.251277)
(-9.19535e-06 0.00117421 -0.251295)
(1.17663e-05 0.00111064 -0.251464)
(1.17491e-05 0.00109976 -0.251542)
(1.9133e-05 0.00112906 -0.252416)
(1.83443e-05 0.00114547 -0.252346)
(1.20824e-05 0.00119423 -0.252341)
(-6.34712e-06 0.00120778 -0.252371)
(-2.96067e-05 0.00117091 -0.252379)
(-3.06797e-05 0.00113129 -0.252386)
(-2.64343e-05 0.0011077 -0.252438)
(-1.88789e-05 0.00112928 -0.252427)
(-8.93757e-06 0.00118573 -0.252344)
(-6.78743e-06 0.00117528 -0.252357)
(1.48665e-05 0.0011111 -0.252493)
(1.13587e-05 0.00110074 -0.252563)
(2.21543e-05 0.00112664 -0.253233)
(1.94828e-05 0.00114345 -0.253174)
(1.27097e-05 0.00119325 -0.253189)
(-2.83526e-06 0.00120747 -0.253218)
(-2.58702e-05 0.00116973 -0.253211)
(-2.76588e-05 0.00112882 -0.253204)
(-2.44944e-05 0.00110478 -0.253246)
(-1.95597e-05 0.00112643 -0.25325)
(-9.787e-06 0.00118343 -0.253192)
(-4.3454e-06 0.00117244 -0.253202)
(1.78485e-05 0.00110796 -0.253308)
(1.10781e-05 0.00109823 -0.253371)
(2.53497e-05 0.00112091 -0.253866)
(2.07949e-05 0.0011381 -0.253818)
(1.34309e-05 0.00118875 -0.253849)
(7.08962e-07 0.0012036 -0.253878)
(-2.19192e-05 0.00116514 -0.253858)
(-2.43894e-05 0.00112301 -0.253838)
(-2.20872e-05 0.0010986 -0.253871)
(-1.96256e-05 0.00112027 -0.253889)
(-1.02547e-05 0.00117757 -0.253853)
(-1.90227e-06 0.00116601 -0.253859)
(2.06698e-05 0.00110154 -0.253941)
(1.0915e-05 0.00109252 -0.253997)
(2.86733e-05 0.0011122 -0.254345)
(2.22524e-05 0.00112977 -0.254306)
(1.42327e-05 0.00118105 -0.25435)
(4.22969e-06 0.00119649 -0.254378)
(-1.78015e-05 0.00115745 -0.254347)
(-2.08861e-05 0.00111417 -0.254316)
(-1.92259e-05 0.00108947 -0.254343)
(-1.90576e-05 0.00111113 -0.254372)
(-1.03062e-05 0.00116848 -0.254354)
(5.15165e-07 0.00115632 -0.254358)
(2.32965e-05 0.00109214 -0.254419)
(1.08701e-05 0.00108393 -0.25447)
(3.20746e-05 0.00110087 -0.254694)
(2.38184e-05 0.00111879 -0.254664)
(1.50951e-05 0.0011705 -0.254719)
(7.67745e-06 0.00118647 -0.254746)
(-1.3565e-05 0.00114701 -0.254706)
(-1.71658e-05 0.00110264 -0.254666)
(-1.59398e-05 0.00107772 -0.254687)
(-1.78645e-05 0.00109935 -0.254726)
(-9.93001e-06 0.00115653 -0.254723)
(2.88196e-06 0.00114375 -0.254724)
(2.57067e-05 0.00108012 -0.254769)
(1.09418e-05 0.00107278 -0.254817)
(3.5502e-05 0.00108727 -0.254941)
(2.54507e-05 0.00110554 -0.254917)
(1.59945e-05 0.00115746 -0.254981)
(1.10096e-05 0.00117391 -0.255006)
(-9.25439e-06 0.00113416 -0.254959)
(-1.3246e-05 0.00108877 -0.254912)
(-1.22708e-05 0.00106371 -0.254928)
(-1.60792e-05 0.0010853 -0.254976)
(-9.13081e-06 0.0011421 -0.254984)
(5.18158e-06 0.00112866 -0.254984)
(2.78915e-05 0.00106581 -0.255016)
(1.11234e-05 0.00105941 -0.25506)
(3.89067e-05 0.00107173 -0.255104)
(2.71046e-05 0.00109034 -0.255087)
(1.69037e-05 0.00114229 -0.255157)
(1.4193e-05 0.00115913 -0.25518)
(-4.90922e-06 0.00111924 -0.255128)
(-9.14352e-06 0.00107287 -0.255075)
(-8.26896e-06 0.00104776 -0.255088)
(-1.37555e-05 0.00106932 -0.255143)
(-7.92927e-06 0.00112556 -0.255161)
(7.40612e-06 0.00111142 -0.255159)
(2.98543e-05 0.00104957 -0.255181)
(1.14036e-05 0.00104415 -0.255222)
(4.22464e-05 0.00105457 -0.255204)
(2.87378e-05 0.00107353 -0.255193)
(1.77945e-05 0.0011253 -0.255267)
(1.72045e-05 0.00114245 -0.255288)
(-5.61452e-07 0.00110253 -0.255232)
(-4.87481e-06 0.00105527 -0.255174)
(-3.98725e-06 0.00103017 -0.255185)
(-1.09597e-05 0.00105172 -0.255246)
(-6.35803e-06 0.00110726 -0.255271)
(9.5562e-06 0.00109238 -0.255267)
(3.16093e-05 0.00103169 -0.255282)
(1.17685e-05 0.0010273 -0.25532)
(4.54867e-05 0.00103607 -0.255255)
(3.0315e-05 0.00105538 -0.255249)
(1.8642e-05 0.00110679 -0.255326)
(2.00317e-05 0.00112416 -0.255344)
(3.76502e-06 0.00108432 -0.255285)
(-4.56111e-07 0.00103621 -0.255224)
(5.24936e-07 0.0010112 -0.255233)
(-7.76076e-06 0.00103278 -0.255299)
(-4.45542e-06 0.00108749 -0.25533)
(1.16398e-05 0.00107184 -0.255325)
(3.31785e-05 0.00101244 -0.255333)
(1.22044e-05 0.0010091 -0.255369)
(4.86022e-05 0.00101645 -0.255268)
(3.18108e-05 0.00103611 -0.255267)
(1.94278e-05 0.00108699 -0.255345)
(2.26716e-05 0.00110449 -0.255362)
(8.05367e-06 0.00106482 -0.255301)
(4.09714e-06 0.00101592 -0.255237)
(5.22622e-06 0.000991068 -0.255245)
(-4.2208e-06 0.00101273 -0.255315)
(-2.2588e-06 0.00106652 -0.25535)
(1.367e-05 0.00105006 -0.255344)
(3.45879e-05 0.000992054 -0.255347)
(1.27004e-05 0.000989774 -0.255382)
(5.15733e-05 0.000995891 -0.255254)
(3.321e-05 0.00101592 -0.255257)
(2.01413e-05 0.0010661 -0.255336)
(2.51274e-05 0.00108362 -0.25535)
(1.22938e-05 0.0010442 -0.255288)
(8.77075e-06 0.000994582 -0.255221)
(1.00862e-05 0.000969956 -0.255229)
(-3.87523e-07 0.000991752 -0.255302)
(2.01069e-07 0.00104455 -0.255342)
(1.56617e-05 0.00102723 -0.255334)
(3.58627e-05 0.000970699 -0.255333)
(1.32511e-05 0.000969492 -0.255365)
(5.43839e-05 0.000974536 -0.255218)
(3.45057e-05 0.000994949 -0.255225)
(2.07811e-05 0.00104426 -0.255303)
(2.74065e-05 0.00106169 -0.255315)
(1.6478e-05 0.00102258 -0.255252)
(1.35516e-05 0.000972309 -0.255184)
(1.50848e-05 0.000947985 -0.255191)
(3.70957e-06 0.000969987 -0.255268)
(2.90354e-06 0.00102174 -0.25531)
(1.76291e-05 0.00100353 -0.255301)
(3.70262e-05 0.000948501 -0.255297)
(1.38611e-05 0.000948383 -0.255327)
(5.70224e-05 0.000952463 -0.255164)
(3.56903e-05 0.000973276 -0.255176)
(2.13572e-05 0.00102158 -0.255254)
(2.95181e-05 0.00103879 -0.255263)
(2.06042e-05 0.00100004 -0.255199)
(1.84223e-05 0.00094918 -0.25513)
(2.02079e-05 0.000925241 -0.255137)
(8.06002e-06 0.000947519 -0.255217)
(5.84283e-06 0.000998206 -0.255262)
(1.9585e-05 0.000979057 -0.255252)
(3.81069e-05 0.000925572 -0.255244)
(1.45501e-05 0.000926529 -0.255272)
(5.94748e-05 0.000929731 -0.255097)
(3.67576e-05 0.000950961 -0.255114)
(2.18849e-05 0.000998082 -0.25519)
(3.14716e-05 0.00101498 -0.255196)
(2.46666e-05 0.000976623 -0.255133)
(2.33692e-05 0.000925226 -0.255063)
(2.54438e-05 0.000901751 -0.255069)
(1.26695e-05 0.000924398 -0.255153)
(9.02927e-06 0.000974007 -0.2552)
(2.15509e-05 0.000953882 -0.255188)
(3.91277e-05 0.00090195 -0.255177)
(1.5343e-05 0.000903951 -0.255202)
(6.17388e-05 0.000906323 -0.255019)
(3.77171e-05 0.000928014 -0.25504)
(2.23634e-05 0.000973822 -0.255115)
(3.32725e-05 0.000990231 -0.255119)
(2.86266e-05 0.000952294 -0.255055)
(2.83934e-05 0.000900446 -0.254984)
(3.07897e-05 0.000877506 -0.254991)
(1.75572e-05 0.000900632 -0.255077)
(1.24786e-05 0.000949174 -0.255127)
(2.35527e-05 0.00092806 -0.255113)
(4.00724e-05 0.000877581 -0.255098)
(1.6267e-05 0.00088063 -0.255121)
(6.37927e-05 0.000882184 -0.254932)
(3.85826e-05 0.000904382 -0.254958)
(2.27842e-05 0.000948767 -0.25503)
(3.49088e-05 0.000964512 -0.255031)
(3.24657e-05 0.000926989 -0.254968)
(3.34704e-05 0.000874781 -0.254897)
(3.62453e-05 0.000852456 -0.254904)
(2.27297e-05 0.000876161 -0.254992)
(1.62086e-05 0.000923713 -0.255044)
(2.56448e-05 0.00090154 -0.255028)
(4.09456e-05 0.000852436 -0.255009)
(1.73795e-05 0.000856524 -0.25503)
(6.55711e-05 0.000857302 -0.254837)
(3.93536e-05 0.000880028 -0.254867)
(2.31937e-05 0.000922825 -0.254937)
(3.63927e-05 0.000937808 -0.254935)
(3.62276e-05 0.000900699 -0.254872)
(3.85687e-05 0.000848162 -0.254801)
(4.17902e-05 0.000826548 -0.254809)
(2.81652e-05 0.000850933 -0.2549)
(2.02417e-05 0.000897577 -0.254954)
(2.7898e-05 0.000874279 -0.254935)
(4.18192e-05 0.000826497 -0.254911)
(1.87038e-05 0.000831608 -0.25493)
(6.70052e-05 0.000831688 -0.254736)
(4.00311e-05 0.000854956 -0.254771)
(2.36669e-05 0.000896003 -0.254838)
(3.77575e-05 0.000910113 -0.254833)
(3.99308e-05 0.000873422 -0.254771)
(4.36606e-05 0.000820622 -0.254701)
(4.73601e-05 0.000799799 -0.254708)
(3.3815e-05 0.000824964 -0.254801)
(2.45785e-05 0.00087075 -0.254857)
(3.03601e-05 0.00084633 -0.254836)
(4.27282e-05 0.000799778 -0.254807)
(2.02017e-05 0.000805901 -0.254824)
(6.8032e-05 0.000805402 -0.254631)
(4.0612e-05 0.000829188 -0.254671)
(2.42121e-05 0.00086839 -0.254734)
(3.89998e-05 0.000881465 -0.254727)
(4.35462e-05 0.000845202 -0.254666)
(4.86904e-05 0.00079224 -0.254596)
(5.28471e-05 0.000772265 -0.254604)
(3.95904e-05 0.000798302 -0.254698)
(2.9187e-05 0.000843303 -0.254756)
(3.30734e-05 0.00081776 -0.254732)
(4.36464e-05 0.000772347 -0.254698)
(2.18339e-05 0.000779461 -0.254714)
(6.86047e-05 0.000778499 -0.254525)
(4.10697e-05 0.000802769 -0.254568)
(2.47822e-05 0.000840043 -0.254627)
(4.00941e-05 0.000851944 -0.254618)
(4.70279e-05 0.000816106 -0.25456)
(5.35857e-05 0.000763087 -0.254491)
(5.81293e-05 0.000744013 -0.254499)
(4.53675e-05 0.000770997 -0.254593)
(3.40012e-05 0.000815303 -0.254652)
(3.60636e-05 0.000788654 -0.254626)
(4.45559e-05 0.000744284 -0.254587)
(2.35566e-05 0.00075235 -0.254602)
(6.86955e-05 0.000751011 -0.254419)
(4.13679e-05 0.000775736 -0.254465)
(2.53293e-05 0.000811002 -0.254519)
(4.09954e-05 0.00082162 -0.254508)
(5.03302e-05 0.000786167 -0.254453)
(5.82619e-05 0.000733197 -0.254386)
(6.30947e-05 0.000715085 -0.254395)
(5.10092e-05 0.000743076 -0.254488)
(3.89273e-05 0.000786792 -0.254548)
(3.93252e-05 0.000759083 -0.254519)
(4.54571e-05 0.000715647 -0.254476)
(2.53188e-05 0.0007246 -0.254491)
(6.82952e-05 0.000722945 -0.254315)
(4.14834e-05 0.000748094 -0.254364)
(2.58251e-05 0.000781304 -0.254412)
(4.16608e-05 0.00079052 -0.254399)
(5.34046e-05 0.000755408 -0.254348)
(6.2633e-05 0.000702601 -0.254284)
(6.76532e-05 0.000685499 -0.254293)
(5.63975e-05 0.000714546 -0.254384)
(4.3863e-05 0.000757781 -0.254444)
(4.28217e-05 0.000729085 -0.254413)
(4.63533e-05 0.000686472 -0.254367)
(2.70758e-05 0.000696223 -0.25438)
(6.74143e-05 0.000694296 -0.254214)
(4.14066e-05 0.000719833 -0.254264)
(2.62554e-05 0.000750968 -0.254307)
(4.20652e-05 0.000758658 -0.254293)
(5.61935e-05 0.000723847 -0.254246)
(6.66184e-05 0.000671325 -0.254185)
(7.17415e-05 0.00065527 -0.254194)
(6.14399e-05 0.000685403 -0.254282)
(4.87117e-05 0.000728264 -0.254343)
(4.64929e-05 0.000698676 -0.25431)
(4.72425e-05 0.000656784 -0.25426)
(2.8784e-05 0.000667221 -0.254273)
(6.60778e-05 0.000665055 -0.254117)
(4.11367e-05 0.000690934 -0.254168)
(2.66122e-05 0.000720005 -0.254206)
(4.22037e-05 0.000726053 -0.254191)
(5.86308e-05 0.000691489 -0.254147)
(7.01432e-05 0.000639386 -0.25409)
(7.53266e-05 0.0006244 -0.254098)
(6.60568e-05 0.000655631 -0.254184)
(5.33876e-05 0.000698221 -0.254244)
(5.02556e-05 0.000667865 -0.25421)
(4.81135e-05 0.000626608 -0.254157)
(3.04007e-05 0.000637591 -0.254169)
(6.4315e-05 0.000635201 -0.254025)
(4.06839e-05 0.000661388 -0.254075)
(2.68881e-05 0.000688417 -0.254108)
(4.20779e-05 0.000692715 -0.254092)
(6.06444e-05 0.000658339 -0.254053)
(7.31315e-05 0.000606786 -0.253999)
(7.83906e-05 0.000592886 -0.254008)
(7.0178e-05 0.000625215 -0.25409)
(5.78171e-05 0.000667623 -0.254149)
(5.40048e-05 0.000636647 -0.254114)
(4.89412e-05 0.000595957 -0.254059)
(3.18921e-05 0.000607326 -0.25407)
(6.2156e-05 0.00060471 -0.253938)
(4.0075e-05 0.000631164 -0.253987)
(2.70806e-05 0.000656204 -0.254015)
(4.16861e-05 0.000658658 -0.253998)
(6.21614e-05 0.000624409 -0.253963)
(7.55069e-05 0.00057352 -0.253914)
(8.08996e-05 0.000560714 -0.253922)
(7.37521e-05 0.000594138 -0.254001)
(6.19405e-05 0.000636445 -0.254059)
(5.76199e-05 0.00060502 -0.254023)
(4.96875e-05 0.000564842 -0.253966)
(3.32313e-05 0.000576424 -0.253976)
(5.96442e-05 0.00057356 -0.253856)
(3.93439e-05 0.00060023 -0.253904)
(2.71911e-05 0.000623364 -0.253927)
(4.102e-05 0.000623897 -0.25391)
(6.31239e-05 0.000589713 -0.253879)
(7.71915e-05 0.000539593 -0.253835)
(8.27992e-05 0.000527874 -0.253842)
(7.67447e-05 0.000562378 -0.253916)
(6.57092e-05 0.000604658 -0.253972)
(6.09724e-05 0.000572975 -0.253938)
(5.03156e-05 0.000533261 -0.253879)
(3.43892e-05 0.000544869 -0.253889)
(5.68278e-05 0.000541715 -0.25378)
(3.85218e-05 0.000568568 -0.253826)
(2.72102e-05 0.000589897 -0.253845)
(4.00691e-05 0.000588451 -0.253828)
(6.34896e-05 0.000554252 -0.253801)
(7.81093e-05 0.000504998 -0.253761)
(8.40228e-05 0.000494354 -0.253768)
(7.9136e-05 0.00052991 -0.253838)
(6.90743e-05 0.000572232 -0.253892)
(6.39428e-05 0.000540492 -0.253857)
(5.07894e-05 0.000501207 -0.253799)
(3.53361e-05 0.000512645 -0.253807)
(5.3753e-05 0.000509129 -0.25371)
(3.76276e-05 0.000536153 -0.253754)
(2.71215e-05 0.000555817 -0.253769)
(3.88425e-05 0.00055234 -0.253752)
(6.32256e-05 0.000518039 -0.253729)
(7.81954e-05 0.000469726 -0.253693)
(8.44985e-05 0.000460134 -0.253699)
(8.09226e-05 0.000496697 -0.253765)
(7.19909e-05 0.000539159 -0.253816)
(6.64289e-05 0.000507555 -0.253783)
(5.10526e-05 0.000468664 -0.253726)
(3.60444e-05 0.000479733 -0.253733)
(5.04628e-05 0.000475762 -0.253646)
(3.6677e-05 0.000502966 -0.253688)
(2.69191e-05 0.00052113 -0.253699)
(3.73701e-05 0.000515579 -0.253683)
(6.2308e-05 0.000481103 -0.253664)
(7.73976e-05 0.000433775 -0.253631)