/*--------------------------------*- C++ -*----------------------------------*\
| =========                 |                                                 |
| \\      /  F ield         | OpenFOAM: The Open Source CFD Toolbox           |
|  \\    /   O peration     | Version:  v1912                                 |
|   \\  /    A nd           | Website:  www.openfoam.com                      |
|    \\/     M anipulation  |                                                 |
\*---------------------------------------------------------------------------*/
FoamFile
{
    version     2.0;
    format      ascii;
    class       volSymmTensorField;
    location    "8.8";
    object      UPrime2Mean;
}
// * * * * * * * * * * * * * * * * * * * * * * * * * * * * * * * * * * * * * //

dimensions      [0 2 -2 0 0 0 0];


internalField   nonuniform List<symmTensor> 
34128
(
(1.1672e-10 2.50274e-12 4.26334e-10 1.86289e-10 1.47634e-08 9.04004e-06)
(9.84737e-11 2.28555e-12 6.82713e-10 1.8631e-10 1.47768e-08 9.04644e-06)
(1.08609e-10 1.50036e-12 7.91677e-10 1.86327e-10 1.47887e-08 9.06138e-06)
(1.2812e-10 -9.03767e-13 -7.68639e-11 1.86327e-10 1.47928e-08 9.06406e-06)
(1.56882e-10 -1.85178e-12 -3.07346e-10 1.86323e-10 1.4783e-08 9.05445e-06)
(1.22825e-10 -2.78357e-12 -4.37338e-10 1.86305e-10 1.47672e-08 9.043e-06)
(1.1082e-10 -2.5479e-12 9.04349e-11 1.86302e-10 1.47584e-08 9.03538e-06)
(1.16154e-10 -2.27298e-12 4.52725e-10 1.86304e-10 1.47732e-08 9.05062e-06)
(1.25404e-10 -3.26545e-12 -6.44927e-11 1.86316e-10 1.47978e-08 9.06983e-06)
(1.44415e-10 -5.28667e-12 -7.79541e-10 1.86307e-10 1.47911e-08 9.06494e-06)
(1.46373e-10 -5.58072e-12 -1.01051e-09 1.86278e-10 1.47566e-08 9.03945e-06)
(1.58963e-10 -3.75714e-12 -5.01804e-10 1.86226e-10 1.47551e-08 9.03e-06)
(9.90227e-10 -8.2464e-12 1.5461e-09 4.12802e-10 -6.16763e-08 3.17338e-05)
(8.39417e-10 -9.07377e-12 3.42373e-09 4.12576e-10 -6.1679e-08 3.17791e-05)
(9.19471e-10 -4.3529e-12 3.60741e-09 4.1241e-10 -6.16397e-08 3.18867e-05)
(1.08848e-09 4.3701e-12 -2.29045e-09 4.12438e-10 -6.15938e-08 3.19046e-05)
(1.33033e-09 7.85378e-12 -4.33404e-09 4.12557e-10 -6.16008e-08 3.18339e-05)
(1.04314e-09 1.24611e-11 -4.85933e-09 4.12635e-10 -6.16606e-08 3.17534e-05)
(9.39317e-10 1.37877e-11 -9.7847e-10 4.12677e-10 -6.16692e-08 3.17007e-05)
(9.83574e-10 1.51058e-11 1.64281e-09 4.12694e-10 -6.16072e-08 3.18095e-05)
(1.06165e-09 1.66765e-11 -1.93357e-09 4.12541e-10 -6.1582e-08 3.1942e-05)
(1.22439e-09 2.42452e-11 -6.76235e-09 4.12627e-10 -6.16134e-08 3.19079e-05)
(1.24127e-09 2.60377e-11 -8.61216e-09 4.13053e-10 -6.16316e-08 3.17318e-05)
(1.34778e-09 1.60045e-11 -5.20456e-09 4.13337e-10 -6.16763e-08 3.16655e-05)
(2.65003e-09 2.74587e-12 2.17093e-09 2.04294e-10 6.40746e-08 5.71578e-05)
(2.2563e-09 3.9767e-13 7.16291e-09 2.04142e-10 6.42313e-08 5.7267e-05)
(2.45723e-09 7.29547e-12 7.54114e-09 2.04824e-10 6.47126e-08 5.75258e-05)
(2.9142e-09 -3.19408e-12 -5.76459e-09 2.05395e-10 6.49057e-08 5.75649e-05)
(3.55608e-09 -3.49587e-12 -1.03359e-08 2.05051e-10 6.46388e-08 5.73917e-05)
(2.79115e-09 -9.37167e-13 -1.05931e-08 2.04374e-10 6.41948e-08 5.72041e-05)
(2.5104e-09 5.39818e-12 -9.73445e-10 2.0397e-10 6.398e-08 5.70828e-05)
(2.62735e-09 1.36823e-11 5.52392e-09 2.04758e-10 6.44634e-08 5.73412e-05)
(2.83529e-09 3.23389e-12 -2.44857e-09 2.05425e-10 6.49673e-08 5.76506e-05)
(3.27281e-09 -6.24048e-12 -1.33669e-08 2.05142e-10 6.47752e-08 5.75736e-05)
(3.31772e-09 -6.71736e-12 -1.78445e-08 2.04383e-10 6.41232e-08 5.71648e-05)
(3.60253e-09 -1.00466e-11 -1.04104e-08 2.03828e-10 6.37446e-08 5.70115e-05)
(5.02161e-09 -1.95929e-11 2.7893e-09 1.06035e-10 -4.21808e-08 8.09251e-05)
(4.29444e-09 -2.41893e-11 1.17802e-08 1.04253e-10 -4.19513e-08 8.1116e-05)
(4.65069e-09 1.86754e-12 1.21884e-08 1.04936e-10 -4.09226e-08 8.15607e-05)
(5.52307e-09 6.14847e-12 -1.02057e-08 1.06668e-10 -4.04659e-08 8.16185e-05)
(6.72818e-09 1.47151e-11 -1.75189e-08 1.06573e-10 -4.10229e-08 8.13147e-05)
(5.28562e-09 3.33328e-11 -1.66551e-08 1.05261e-10 -4.19396e-08 8.10041e-05)
(4.74975e-09 4.68833e-11 -3.28821e-11 1.04616e-10 -4.23449e-08 8.08048e-05)
(4.96943e-09 6.36903e-11 1.12172e-08 1.0673e-10 -4.12929e-08 8.12403e-05)
(5.36311e-09 4.8557e-11 -1.65716e-09 1.073e-10 -4.03612e-08 8.17563e-05)
(6.1953e-09 5.2439e-11 -1.96873e-08 1.0722e-10 -4.0753e-08 8.16331e-05)
(6.27822e-09 5.45867e-11 -2.75496e-08 1.08322e-10 -4.19026e-08 8.09539e-05)
(6.81781e-09 1.84452e-11 -1.59138e-08 1.08456e-10 -4.26879e-08 8.07015e-05)
(8.03489e-09 -2.37838e-11 3.64381e-09 6.32844e-11 4.22119e-08 0.000101314)
(6.90177e-09 -2.85647e-11 1.6978e-08 5.97834e-11 4.2718e-08 0.0001016)
(7.4339e-09 2.01246e-11 1.69659e-08 6.36778e-11 4.48813e-08 0.000102247)
(8.83859e-09 4.63796e-12 -1.57304e-08 6.8755e-11 4.57465e-08 0.000102314)
(1.07471e-08 1.44806e-11 -2.56357e-08 6.72294e-11 4.45213e-08 0.000101861)
(8.44978e-09 4.6223e-11 -2.2718e-08 6.25674e-11 4.26935e-08 0.000101428)
(7.58816e-09 7.65701e-11 1.27895e-09 6.0142e-11 4.18418e-08 0.000101151)
(7.93764e-09 1.14699e-10 1.75382e-08 6.65948e-11 4.39891e-08 0.00010177)
(8.56952e-09 7.66041e-11 -2.32361e-10 7.00239e-11 4.5967e-08 0.000102497)
(9.90536e-09 6.44272e-11 -2.57666e-08 6.90355e-11 4.5224e-08 0.000102331)
(1.00322e-08 6.37601e-11 -3.75139e-08 6.83831e-11 4.27885e-08 0.000101376)
(1.08961e-08 8.83414e-12 -2.20862e-08 6.66049e-11 4.12503e-08 0.000101026)
(1.16241e-08 -4.20591e-11 4.94001e-09 1.40637e-10 6.62199e-08 0.000117715)
(1.00283e-08 -4.31022e-11 2.25361e-08 1.33424e-10 6.7067e-08 0.000118104)
(1.07461e-08 4.09871e-11 2.14678e-08 1.42702e-10 7.07373e-08 0.000118955)
(1.27905e-08 8.00074e-12 -2.23764e-08 1.5367e-10 7.21166e-08 0.000119018)
(1.55204e-08 2.27825e-11 -3.44657e-08 1.49886e-10 6.99712e-08 0.000118406)
(1.22115e-08 8.05643e-11 -2.85252e-08 1.39691e-10 6.70225e-08 0.000117861)
(1.09617e-08 1.33175e-10 2.64907e-09 1.345e-10 6.56383e-08 0.000117515)
(1.14656e-08 1.99871e-10 2.37735e-08 1.48527e-10 6.91996e-08 0.000118307)
(1.23857e-08 1.34594e-10 1.41529e-09 1.56263e-10 7.24539e-08 0.000119232)
(1.43237e-08 1.10435e-10 -3.15408e-08 1.54314e-10 7.13029e-08 0.000119032)
(1.4496e-08 1.04676e-10 -4.74231e-08 1.52524e-10 6.73502e-08 0.000117819)
(1.57475e-08 8.94207e-12 -2.90656e-08 1.48123e-10 6.49052e-08 0.000117382)
(1.57287e-08 -6.40887e-11 6.71317e-09 2.76966e-10 1.07646e-07 0.000130059)
(1.36267e-08 -5.49428e-11 2.81895e-08 2.64312e-10 1.08977e-07 0.000130556)
(1.45318e-08 7.55793e-11 2.53921e-08 2.83606e-10 1.14638e-07 0.000131603)
(1.73154e-08 1.13046e-11 -3.00955e-08 3.04184e-10 1.16608e-07 0.000131647)
(2.09637e-08 3.12782e-11 -4.38022e-08 2.95875e-10 1.13183e-07 0.000130872)
(1.65048e-08 1.2597e-10 -3.38921e-08 2.7664e-10 1.08891e-07 0.000130232)
(1.48125e-08 2.06517e-10 3.95513e-09 2.66985e-10 1.06859e-07 0.000129829)
(1.54936e-08 3.11064e-10 2.95611e-08 2.93458e-10 1.12192e-07 0.000130777)
(1.67503e-08 2.10042e-10 3.02059e-09 3.08614e-10 1.17032e-07 0.000131876)
(1.93789e-08 1.66263e-10 -3.69232e-08 3.05321e-10 1.15404e-07 0.00013165)
(1.95946e-08 1.48738e-10 -5.6957e-08 3.01069e-10 1.0957e-07 0.000130212)
(2.12912e-08 -3.01975e-12 -3.68812e-08 2.91529e-10 1.06021e-07 0.000129705)
(2.02956e-08 -8.97326e-11 8.84175e-09 4.88435e-10 1.57377e-07 0.000138548)
(1.76542e-08 -6.16554e-11 3.36459e-08 4.68391e-10 1.59348e-07 0.000139153)
(1.87428e-08 1.2647e-10 2.85598e-08 5.04313e-10 1.67468e-07 0.000140382)
(2.2359e-08 1.44217e-11 -3.87037e-08 5.39076e-10 1.70063e-07 0.000140392)
(2.7004e-08 4.00831e-11 -5.33964e-08 5.22752e-10 1.64969e-07 0.000139458)
(2.12718e-08 1.85152e-10 -3.86524e-08 4.90311e-10 1.59162e-07 0.00013874)
(1.90912e-08 2.97731e-10 5.25186e-09 4.74181e-10 1.564e-07 0.000138293)
(1.99709e-08 4.48946e-10 3.48315e-08 5.19255e-10 1.63828e-07 0.000139376)
(2.16108e-08 3.04339e-10 4.46211e-09 5.45698e-10 1.7052e-07 0.000140621)
(2.50093e-08 2.33138e-10 -4.17732e-08 5.41018e-10 1.68391e-07 0.000140378)
(2.52636e-08 1.93914e-10 -6.57654e-08 5.32948e-10 1.60425e-07 0.000138755)
(2.74575e-08 -3.40809e-11 -4.54367e-08 5.14822e-10 1.55673e-07 0.000138197)
(2.52816e-08 -1.16869e-10 1.11097e-08 7.96508e-10 2.15451e-07 0.00014351)
(2.20747e-08 -5.94277e-11 3.86387e-08 7.67221e-10 2.1825e-07 0.00014422)
(2.33398e-08 1.96939e-10 3.09266e-08 8.2891e-10 2.29292e-07 0.00014561)
(2.78781e-08 1.63417e-11 -4.78829e-08 8.83183e-10 2.32519e-07 0.000145577)
(3.35818e-08 4.82969e-11 -6.29472e-08 8.5358e-10 2.25331e-07 0.000144489)
(2.64658e-08 2.59195e-10 -4.26402e-08 8.03266e-10 2.17879e-07 0.000143712)
(2.37581e-08 4.05959e-10 6.70705e-09 7.78331e-10 2.14335e-07 0.000143235)
(2.4857e-08 6.12023e-10 3.96945e-08 8.49455e-10 2.24152e-07 0.000144433)
(2.69257e-08 4.16347e-10 5.71903e-09 8.9192e-10 2.32923e-07 0.000145795)
(3.11655e-08 3.08569e-10 -4.59237e-08 8.86329e-10 2.30288e-07 0.000145539)
(3.14519e-08 2.33971e-10 -7.3512e-08 8.7291e-10 2.20013e-07 0.000143775)
(3.41903e-08 -9.49073e-11 -5.45522e-08 8.41633e-10 2.1401e-07 0.000143185)
(3.06554e-08 -1.43219e-10 1.32831e-08 1.21834e-09 2.78737e-07 0.000145317)
(2.68618e-08 -4.53385e-11 4.29796e-08 1.17827e-09 2.82551e-07 0.000146123)
(2.82945e-08 2.89437e-10 3.2574e-08 1.27754e-09 2.96963e-07 0.000147654)
(3.38421e-08 1.645e-11 -5.72237e-08 1.35718e-09 3.008e-07 0.000147571)
(4.06542e-08 5.59385e-11 -7.21226e-08 1.30689e-09 2.91079e-07 0.000146341)
(3.20529e-08 3.50048e-10 -4.56947e-08 1.23394e-09 2.81901e-07 0.000145521)
(2.87856e-08 5.30623e-10 8.51894e-09 1.19772e-09 2.77553e-07 0.000145025)
(3.01244e-08 7.98366e-10 4.43135e-08 1.30344e-09 2.90021e-07 0.000146321)
(3.26659e-08 5.44658e-10 6.81506e-09 1.36727e-09 3.01044e-07 0.000147771)
(3.78123e-08 3.90869e-10 -4.92255e-08 1.36207e-09 2.97915e-07 0.000147506)
(3.81235e-08 2.63708e-10 -7.99351e-08 1.34214e-09 2.85257e-07 0.000145644)
(4.1449e-08 -1.96565e-10 -6.40335e-08 1.29228e-09 2.78012e-07 0.000145039)
(3.63993e-08 -1.65665e-10 1.51784e-08 1.77177e-09 3.46194e-07 0.000144341)
(3.19992e-08 -1.6552e-11 4.65905e-08 1.71993e-09 3.51194e-07 0.000145233)
(3.35903e-08 4.06258e-10 3.36781e-08 1.87157e-09 3.69405e-07 0.000146885)
(4.02341e-08 1.44017e-11 -6.62898e-08 1.98279e-09 3.73809e-07 0.000146749)
(4.81951e-08 6.32644e-11 -8.05963e-08 1.9018e-09 3.61113e-07 0.000145391)
(3.80131e-08 4.5932e-10 -4.76753e-08 1.80162e-09 3.50169e-07 0.00014454)
(3.41586e-08 6.70771e-10 1.08422e-08 1.75156e-09 3.4502e-07 0.000144036)
(3.57583e-08 1.00539e-09 4.88039e-08 1.90144e-09 3.60375e-07 0.000145417)
(3.88158e-08 6.86762e-10 7.7681e-09 1.99252e-09 3.73769e-07 0.00014693)
(4.493e-08 4.77213e-10 -5.15903e-08 1.99004e-09 3.70176e-07 0.000146658)
(4.52583e-08 2.77367e-10 -8.48994e-08 1.96299e-09 3.55163e-07 0.000144735)
(4.92092e-08 -3.50667e-10 -7.3742e-08 1.88845e-09 3.4674e-07 0.000144131)
(4.25082e-08 -1.80872e-10 1.67119e-08 2.47354e-09 4.16039e-07 0.000140942)
(3.74815e-08 2.91961e-11 4.95045e-08 2.40963e-09 4.22373e-07 0.000141907)
(3.92227e-08 5.49216e-10 3.44653e-08 2.63155e-09 4.44785e-07 0.000143662)
(4.70505e-08 1.0708e-11 -7.4682e-08 2.78078e-09 4.497e-07 0.000143473)
(5.61951e-08 7.1273e-11 -8.80832e-08 2.65609e-09 4.33598e-07 0.000142002)
(4.43398e-08 5.88717e-10 -4.84756e-08 2.52459e-09 4.20892e-07 0.000141133)
(3.98738e-08 8.25484e-10 1.37387e-08 2.45817e-09 4.14974e-07 0.000140629)
(4.17567e-08 1.23e-09 5.31688e-08 2.66263e-09 4.33416e-07 0.000142082)
(4.53728e-08 8.39308e-10 8.55093e-09 2.78723e-09 4.49244e-07 0.000143637)
(5.25146e-08 5.64505e-10 -5.30201e-08 2.79098e-09 4.45227e-07 0.000143357)
(5.28513e-08 2.69841e-10 -8.8418e-08 2.7572e-09 4.27993e-07 0.000141411)
(5.74618e-08 -5.68261e-10 -8.36459e-08 2.65158e-09 4.18511e-07 0.000140819)
(4.89896e-08 -1.85287e-10 1.79111e-08 3.34046e-09 4.86545e-07 0.000135458)
(4.33138e-08 9.38409e-11 5.18475e-08 3.26489e-09 4.94336e-07 0.000136482)
(4.51986e-08 7.19975e-10 3.51564e-08 3.57831e-09 5.21311e-07 0.000138323)
(5.42999e-08 6.85636e-12 -8.20855e-08 3.77215e-09 5.2667e-07 0.000138084)
(6.46601e-08 8.17008e-11 -9.43642e-08 3.58744e-09 5.06756e-07 0.000136515)
(5.10392e-08 7.40013e-10 -4.80438e-08 3.42126e-09 4.92342e-07 0.000135639)
(4.59392e-08 9.93916e-10 1.71524e-08 3.33609e-09 4.85712e-07 0.000135144)
(4.81291e-08 1.46877e-09 5.72746e-08 3.60632e-09 5.07401e-07 0.000136657)
(5.23464e-08 9.98192e-10 9.07309e-09 3.77096e-09 5.25662e-07 0.000138233)
(6.05767e-08 6.49367e-10 -5.36228e-08 3.78573e-09 5.21275e-07 0.000137948)
(6.09116e-08 2.36874e-10 -9.06528e-08 3.74692e-09 5.02054e-07 0.00013601)
(6.62119e-08 -8.59336e-10 -9.38178e-08 3.60395e-09 4.91689e-07 0.00013544)
(5.58593e-08 -1.75165e-10 1.88907e-08 4.38943e-09 5.55874e-07 0.000128218)
(4.95082e-08 1.79257e-10 5.37941e-08 4.3033e-09 5.65212e-07 0.000129286)
(5.15325e-08 9.20153e-10 3.59441e-08 4.73292e-09 5.97069e-07 0.000131198)
(6.19992e-08 5.51965e-12 -8.82616e-08 4.97811e-09 6.02792e-07 0.000130912)
(7.36055e-08 9.71185e-11 -9.92836e-08 4.71357e-09 5.78695e-07 0.000129259)
(5.81253e-08 9.14967e-10 -4.63883e-08 4.51022e-09 5.62689e-07 0.000128389)
(5.23698e-08 1.17524e-09 2.09294e-08 4.40415e-09 5.5543e-07 0.00012791)
(5.48928e-08 1.71781e-09 6.08873e-08 4.75198e-09 5.80473e-07 0.000129471)
(5.97545e-08 1.15863e-09 9.20121e-09 4.96338e-09 6.011e-07 0.00013105)
(6.91373e-08 7.28223e-10 -5.35807e-08 4.99526e-09 5.9641e-07 0.000130761)
(6.94574e-08 1.75076e-10 -9.1859e-08 4.95472e-09 5.7553e-07 0.00012886)
(7.54737e-08 -1.23245e-09 -1.04375e-07 4.76862e-09 5.64518e-07 0.000128323)
(6.31367e-08 -1.4663e-10 1.98299e-08 5.63736e-09 6.22105e-07 0.000119551)
(5.60797e-08 2.87486e-10 5.55282e-08 5.54235e-09 6.33045e-07 0.000120649)
(5.82427e-08 1.15137e-09 3.69745e-08 6.11654e-09 6.70044e-07 0.000122615)
(7.01678e-08 1.03775e-11 -9.30406e-08 6.42001e-09 6.76034e-07 0.000122285)
(8.30498e-08 1.20822e-10 -1.02745e-07 6.0521e-09 6.47436e-07 0.000120564)
(6.56156e-08 1.11524e-09 -4.35709e-08 5.8102e-09 6.30024e-07 0.000119714)
(5.91833e-08 1.36845e-09 2.48471e-08 5.68143e-09 6.22243e-07 0.000119257)
(6.20679e-08 1.97261e-09 6.37096e-08 6.11917e-09 6.50682e-07 0.000120854)
(6.76179e-08 1.31516e-09 8.76932e-09 6.38416e-09 6.73534e-07 0.000122415)
(7.82221e-08 7.9729e-10 -5.31239e-08 6.44057e-09 6.68619e-07 0.000122124)
(7.85102e-08 8.17053e-11 -9.23224e-08 6.4034e-09 6.46495e-07 0.00012029)
(8.52646e-08 -1.69477e-09 -1.15435e-07 6.16932e-09 6.35138e-07 0.000119795)
(7.08416e-08 -9.55728e-11 2.09427e-08 7.10139e-09 6.8326e-07 0.000109784)
(6.30434e-08 4.20895e-10 5.72205e-08 6.99958e-09 6.95823e-07 0.000110897)
(6.53478e-08 1.4153e-09 3.83202e-08 7.7506e-09 7.38151e-07 0.0001129)
(7.88249e-08 2.5984e-11 -9.6326e-08 8.11958e-09 7.44297e-07 0.00011253)
(9.301e-08 1.56734e-10 -1.04712e-07 7.62092e-09 7.10939e-07 0.000110757)
(7.35268e-08 1.34238e-09 -3.97073e-08 7.34039e-09 6.92387e-07 0.000109941)
(6.63968e-08 1.57232e-09 2.863e-08 7.1875e-09 6.84212e-07 0.000109514)
(6.96743e-08 2.22818e-09 6.5403e-08 7.72783e-09 7.16011e-07 0.000111129)
(7.59573e-08 1.46194e-09 7.58088e-09 8.05326e-09 7.40873e-07 0.000112653)
(8.7858e-08 8.52862e-10 -5.25236e-08 8.14298e-09 7.35821e-07 0.000112365)
(8.80912e-08 -4.52141e-11 -9.23268e-08 8.11627e-09 7.12947e-07 0.000110622)
(9.56012e-08 -2.25206e-09 -1.27069e-07 7.83061e-09 7.01621e-07 0.00011018)
(7.89898e-08 -1.754e-11 2.24361e-08 8.79832e-09 7.37363e-07 9.92429e-05)
(7.04105e-08 5.82307e-10 5.90068e-08 8.6921e-09 7.51538e-07 0.000100358)
(7.28632e-08 1.71343e-09 3.99872e-08 9.65633e-09 7.99295e-07 0.00010238)
(8.79833e-08 5.73296e-11 -9.80671e-08 1.00983e-08 8.05465e-07 0.000101971)
(1.03495e-07 2.09152e-10 -1.05191e-07 9.43763e-09 7.67165e-07 0.000100163)
(8.18701e-08 1.59777e-09 -3.49594e-08 9.11998e-09 7.47822e-07 9.93972e-05)
(7.40224e-08 1.78523e-09 3.19843e-08 8.94199e-09 7.39402e-07 9.90052e-05)
(7.77262e-08 2.47884e-09 6.5636e-08 9.59772e-09 7.74433e-07 0.00010062)
(8.47876e-08 1.59274e-09 5.43819e-09 9.99039e-09 8.01017e-07 0.000102088)
(9.80667e-08 8.91262e-10 -5.20593e-08 1.01236e-08 7.95922e-07 0.000101806)
(9.82153e-08 -2.0721e-10 -9.21114e-08 1.01165e-08 7.72856e-07 0.000100181)
(1.06493e-07 -2.90904e-09 -1.3926e-07 9.77746e-09 7.62012e-07 9.98032e-05)
(8.75875e-08 9.23542e-11 2.44768e-08 1.07438e-08 7.82512e-07 8.82526e-05)
(7.81839e-08 7.7493e-10 6.09772e-08 1.06358e-08 7.98254e-07 8.93556e-05)
(8.0796e-08 2.04682e-09 4.19233e-08 1.18539e-08 8.51439e-07 9.13758e-05)
(9.76445e-08 1.09386e-10 -9.82469e-08 1.23767e-08 8.57477e-07 9.09296e-05)
(1.14499e-07 2.82481e-10 -1.04222e-07 1.15187e-08 8.14144e-07 8.91055e-05)
(9.06455e-08 1.88258e-09 -2.9527e-08 1.11674e-08 7.94445e-07 8.84055e-05)
(8.20618e-08 2.00504e-09 3.46258e-08 1.09638e-08 7.85944e-07 8.80549e-05)
(8.62272e-08 2.71821e-09 6.41271e-08 1.17477e-08 8.23977e-07 8.9648e-05)
(9.41127e-08 1.70094e-09 2.17238e-09 1.22142e-08 8.51927e-07 9.10384e-05)
(1.08859e-07 9.08917e-10 -5.19884e-08 1.24025e-08 8.46884e-07 9.07679e-05)
(1.08885e-07 -4.05357e-10 -9.18448e-08 1.24266e-08 8.24234e-07 8.92826e-05)
(1.17938e-07 -3.66977e-09 -1.51869e-07 1.20345e-08 8.14398e-07 8.89822e-05)
(9.66268e-08 2.39486e-10 2.71641e-08 1.29514e-08 8.16957e-07 7.71275e-05)
(8.63539e-08 1.00221e-09 6.31729e-08 1.28444e-08 8.3419e-07 7.82045e-05)
(8.91407e-08 2.41577e-09 4.4029e-08 1.43615e-08 8.92685e-07 8.02005e-05)
(1.07792e-07 1.86692e-10 -9.68804e-08 1.4973e-08 8.98412e-07 7.97195e-05)
(1.25993e-07 3.80966e-10 -1.01876e-07 1.38786e-08 8.50061e-07 7.78991e-05)
(9.98363e-08 2.19776e-09 -2.36395e-08 1.34996e-08 8.30518e-07 7.72801e-05)
(9.05012e-08 2.22899e-09 3.63046e-08 1.32704e-08 8.22114e-07 7.6976e-05)
(9.51645e-08 2.93921e-09 6.06819e-08 1.41945e-08 8.6281e-07 7.85235e-05)
(1.03919e-07 1.77954e-09 -2.32603e-09 1.4741e-08 8.91711e-07 7.98179e-05)
(1.20225e-07 9.02428e-10 -5.25208e-08 1.49976e-08 8.86808e-07 7.95617e-05)
(1.20086e-07 -6.4017e-10 -9.16149e-08 1.50668e-08 8.65209e-07 7.82369e-05)
(1.29913e-07 -4.53775e-09 -1.64636e-07 1.46253e-08 8.56974e-07 7.80261e-05)
(1.0608e-07 4.29688e-10 3.05145e-08 1.54316e-08 8.39177e-07 6.61651e-05)
(9.48939e-08 1.26757e-09 6.55857e-08 1.53284e-08 8.57798e-07 6.72033e-05)
(9.78746e-08 2.81942e-09 4.6169e-08 1.71939e-08 9.21355e-07 6.91512e-05)
(1.18387e-07 2.93033e-10 -9.402e-08 1.79023e-08 9.26567e-07 6.86376e-05)
(1.37918e-07 5.08442e-10 -9.82564e-08 1.65282e-08 8.73337e-07 6.68427e-05)
(1.09403e-07 2.54407e-09 -1.75487e-08 1.61306e-08 8.54529e-07 6.63176e-05)
(9.93063e-08 2.45379e-09 3.68234e-08 1.58764e-08 8.46406e-07 6.60639e-05)
(1.04503e-07 3.13414e-09 5.5223e-08 1.69519e-08 8.89312e-07 6.75416e-05)
(1.14168e-07 1.82123e-09 -8.08133e-09 1.7584e-08 9.18702e-07 6.87226e-05)
(1.3213e-07 8.68645e-10 -5.37969e-08 1.79236e-08 9.14017e-07 6.84838e-05)
(1.31777e-07 -9.11417e-10 -9.14312e-08 1.80545e-08 8.9411e-07 6.73358e-05)
(1.42369e-07 -5.51604e-09 -1.7719e-07 1.7571e-08 8.88122e-07 6.72255e-05)
(1.15894e-07 6.69159e-10 3.44541e-08 1.81905e-08 8.47966e-07 5.56362e-05)
(1.03757e-07 1.57411e-09 6.81611e-08 1.8094e-08 8.67845e-07 5.66237e-05)
(1.06954e-07 3.25553e-09 4.81846e-08 2.03616e-08 9.36076e-07 5.8499e-05)
(1.29361e-07 4.31185e-10 -8.97633e-08 2.1175e-08 9.40542e-07 5.79559e-05)
(1.5018e-07 6.68109e-10 -9.35008e-08 1.9474e-08 8.82711e-07 5.62091e-05)
(1.1928e-07 2.92202e-09 -1.15215e-08 1.90707e-08 8.65268e-07 5.57881e-05)
(1.08417e-07 2.67556e-09 3.60521e-08 1.87926e-08 8.5761e-07 5.55871e-05)
(1.14178e-07 3.29483e-09 4.78085e-08 2.00291e-08 9.02163e-07 5.69714e-05)
(1.24794e-07 1.81841e-09 -1.5016e-08 2.07515e-08 9.31551e-07 5.80246e-05)
(1.44506e-07 8.04799e-10 -5.58756e-08 2.11904e-08 9.27137e-07 5.7805e-05)
(1.43888e-07 -1.21781e-09 -9.12378e-08 2.14024e-08 9.09545e-07 5.68452e-05)
(1.55229e-07 -6.60724e-09 -1.89084e-07 2.08898e-08 9.06487e-07 5.68436e-05)
(1.25989e-07 9.64294e-10 3.88219e-08 2.12291e-08 8.42498e-07 4.57749e-05)
(1.12872e-07 1.92437e-09 7.08026e-08 2.11422e-08 8.63486e-07 4.67014e-05)
(1.16309e-07 3.72019e-09 4.99071e-08 2.38694e-08 9.35855e-07 4.84803e-05)
(1.40613e-07 6.02774e-10 -8.42584e-08 2.47958e-08 9.3932e-07 4.79114e-05)
(1.62641e-07 8.62354e-10 -8.7784e-08 2.27171e-08 8.77313e-07 4.62357e-05)
(1.2937e-07 3.3318e-09 -5.8321e-09 2.23254e-08 8.61894e-07 4.59248e-05)
(1.17745e-07 2.89008e-09 3.39357e-08 2.20253e-08 8.54881e-07 4.5777e-05)
(1.24096e-07 3.413e-09 3.86378e-08 2.34302e-08 9.00413e-07 4.70466e-05)
(1.35694e-07 1.76335e-09 -2.29459e-08 2.4246e-08 9.29294e-07 4.79618e-05)
(1.57245e-07 7.08657e-10 -5.87292e-08 2.48021e-08 9.25177e-07 4.7762e-05)
(1.56314e-07 -1.5567e-09 -9.09301e-08 2.51176e-08 9.10478e-07 4.69956e-05)
(1.68378e-07 -7.81337e-09 -1.9982e-07 2.45957e-08 9.11048e-07 4.71072e-05)
(1.36255e-07 1.32147e-09 4.33798e-08 2.45428e-08 8.22386e-07 3.6771e-05)
(1.22144e-07 2.32001e-09 7.33777e-08 2.44682e-08 8.44323e-07 3.76282e-05)
(1.25845e-07 4.20772e-09 5.11722e-08 2.77154e-08 9.2014e-07 3.92885e-05)
(1.52005e-07 8.08264e-10 -7.77029e-08 2.87626e-08 9.22324e-07 3.86987e-05)
(1.75121e-07 1.09259e-09 -8.13176e-08 2.62524e-08 8.56728e-07 3.71161e-05)
(1.3954e-07 3.77316e-09 -7.52974e-10 2.58948e-08 8.43995e-07 3.69168e-05)
(1.2717e-07 3.09289e-09 3.04976e-08 2.5575e-08 8.3779e-07 3.68207e-05)
(1.34126e-07 3.48057e-09 2.8043e-08 2.71525e-08 8.83546e-07 3.79578e-05)
(1.46728e-07 1.64844e-09 -3.1588e-08 2.80636e-08 9.11423e-07 3.87295e-05)
(1.70192e-07 5.78714e-10 -6.22481e-08 2.87559e-08 9.07589e-07 3.85491e-05)
(1.68913e-07 -1.92374e-09 -9.03747e-08 2.92008e-08 8.96292e-07 3.79748e-05)
(1.81663e-07 -9.13562e-09 -2.08893e-07 2.86978e-08 9.01175e-07 3.81995e-05)
(1.46548e-07 1.74675e-09 4.78298e-08 2.8121e-08 7.87718e-07 2.87644e-05)
(1.31449e-07 2.76166e-09 7.57263e-08 2.80609e-08 8.10438e-07 2.95462e-05)
(1.35438e-07 4.71081e-09 5.18355e-08 3.18908e-08 8.88862e-07 3.10687e-05)
(1.63366e-07 1.04706e-09 -7.0337e-08 3.30661e-08 8.89471e-07 3.04638e-05)
(1.87394e-07 1.35911e-09 -7.43457e-08 3.00681e-08 8.21032e-07 2.89944e-05)
(1.49628e-07 4.24513e-09 3.45706e-09 2.9773e-08 8.11619e-07 2.89033e-05)
(1.36541e-07 3.27953e-09 2.58371e-08 2.94365e-08 8.06362e-07 2.88553e-05)
(1.44099e-07 3.49018e-09 1.64669e-08 3.11869e-08 8.51519e-07 2.9847e-05)
(1.57716e-07 1.46662e-09 -4.05786e-08 3.21935e-08 8.77924e-07 3.04749e-05)
(1.83149e-07 4.14405e-10 -6.62527e-08 3.30418e-08 8.74317e-07 3.03125e-05)
(1.81501e-07 -2.31274e-09 -8.94299e-08 3.3645e-08 8.6684e-07 2.99224e-05)
(1.94892e-07 -1.0574e-08 -2.1582e-07 3.31995e-08 8.76674e-07 3.02549e-05)
(1.56697e-07 2.24561e-09 5.1836e-08 3.19471e-08 7.39075e-07 2.18426e-05)
(1.40642e-07 3.24867e-09 7.76703e-08 3.1903e-08 7.62412e-07 2.25454e-05)
(1.44938e-07 5.22069e-09 5.17868e-08 3.63795e-08 8.4246e-07 2.39147e-05)
(1.74488e-07 1.31772e-09 -6.24312e-08 3.76896e-08 8.41188e-07 2.33015e-05)
(1.99193e-07 1.66099e-09 -6.71366e-08 3.4146e-08 7.70805e-07 2.19623e-05)
(1.59438e-07 4.74555e-09 6.56593e-09 3.39482e-08 7.65288e-07 2.19715e-05)
(1.45675e-07 3.44577e-09 2.01219e-08 3.35981e-08 7.6109e-07 2.19662e-05)
(1.53812e-07 3.43579e-09 4.42991e-09 3.55172e-08 8.04787e-07 2.28051e-05)
(1.68441e-07 1.21185e-09 -4.95003e-08 3.66175e-08 8.29302e-07 2.32937e-05)
(1.9587e-07 2.16316e-10 -7.05121e-08 3.7642e-08 8.25816e-07 2.31472e-05)
(1.93861e-07 -2.71549e-09 -8.79655e-08 3.8436e-08 8.22464e-07 2.29275e-05)
(2.07839e-07 -1.21271e-08 -2.20175e-07 3.8099e-08 8.37808e-07 2.33575e-05)
(1.66503e-07 2.82248e-09 5.50497e-08 3.59993e-08 6.77511e-07 1.60416e-05)
(1.49553e-07 3.77896e-09 7.9026e-08 3.59716e-08 7.01307e-07 1.66642e-05)
(1.54174e-07 5.72759e-09 5.09614e-08 4.11578e-08 7.81872e-07 1.78697e-05)
(1.85134e-07 1.61831e-09 -5.42709e-08 4.26092e-08 7.78414e-07 1.72557e-05)
(2.1022e-07 1.99586e-09 -5.99704e-08 3.84618e-08 7.07126e-07 1.60597e-05)
(1.6875e-07 5.27057e-09 8.38281e-09 3.84025e-08 7.0599e-07 1.61569e-05)
(1.54367e-07 3.58789e-09 1.35758e-08 3.80422e-08 7.02925e-07 1.61874e-05)
(1.63033e-07 3.31323e-09 -7.51096e-09 4.01201e-08 7.44292e-07 1.68723e-05)
(1.7865e-07 8.79809e-10 -5.79145e-08 4.13108e-08 7.66571e-07 1.72308e-05)
(2.08069e-07 -1.36188e-11 -7.47666e-08 4.2531e-08 7.63049e-07 1.70976e-05)
(2.05739e-07 -3.12189e-09 -8.58825e-08 4.35515e-08 7.63998e-07 1.70296e-05)
(2.20242e-07 -1.37912e-08 -2.2162e-07 4.33883e-08 7.85291e-07 1.75421e-05)
(1.7575e-07 3.48042e-09 5.71361e-08 4.02515e-08 6.04517e-07 1.13498e-05)
(1.57997e-07 4.34886e-09 7.96165e-08 4.0239e-08 6.28627e-07 1.1893e-05)
(1.62956e-07 6.22134e-09 4.93471e-08 4.61959e-08 7.085e-07 1.29294e-05)
(1.95047e-07 1.94683e-09 -4.61397e-08 4.77937e-08 7.02563e-07 1.23227e-05)
(2.20156e-07 2.35981e-09 -5.31247e-08 4.29859e-08 6.31526e-07 1.1278e-05)
(1.77329e-07 5.81401e-09 8.77233e-09 4.31129e-08 6.35132e-07 1.14475e-05)
(1.62393e-07 3.70286e-09 6.46275e-09 4.27452e-08 6.33234e-07 1.15063e-05)
(1.71503e-07 3.12086e-09 -1.88065e-08 4.49661e-08 6.71428e-07 1.20414e-05)
(1.88067e-07 4.68588e-10 -6.53967e-08 4.62424e-08 6.91215e-07 1.22827e-05)
(2.19428e-07 -2.71996e-10 -7.87534e-08 4.76765e-08 6.87458e-07 1.21606e-05)
(2.16857e-07 -3.5201e-09 -8.31299e-08 4.89623e-08 6.92743e-07 1.22215e-05)
(2.3182e-07 -1.55599e-08 -2.19927e-07 4.90543e-08 7.20264e-07 1.2798e-05)
(1.84211e-07 4.22059e-09 5.78011e-08 4.46739e-08 5.21952e-07 7.71354e-06)
(1.65777e-07 4.95302e-09 7.92856e-08 4.46736e-08 5.46248e-07 8.18014e-06)
(1.71086e-07 6.69212e-09 4.69866e-08 5.14576e-08 6.24153e-07 9.04763e-06)
(2.03963e-07 2.30168e-09 -3.8302e-08 5.32064e-08 6.15465e-07 8.45644e-06)
(2.28678e-07 2.74715e-09 -4.68573e-08 4.76846e-08 5.45923e-07 7.56593e-06)
(1.84934e-07 6.36665e-09 7.66741e-09 4.80515e-08 5.54485e-07 7.79005e-06)
(1.69521e-07 3.78868e-09 -9.31226e-10 4.76784e-08 5.53746e-07 7.86887e-06)
(1.78955e-07 2.86015e-09 -2.89592e-08 5.002e-08 5.8799e-07 8.26392e-06)
(1.96403e-07 -2.05171e-11 -7.15722e-08 5.13762e-08 6.0513e-07 8.40357e-06)
(2.29612e-07 -5.53929e-10 -8.22311e-08 5.30397e-08 6.00899e-07 8.29084e-06)
(2.26923e-07 -3.89703e-09 -7.97177e-08 5.46323e-08 6.10408e-07 8.45578e-06)
(2.42277e-07 -1.74228e-08 -2.14998e-07 5.5079e-08 6.44241e-07 9.07513e-06)
(1.91662e-07 5.04193e-09 5.68156e-08 4.92355e-08 4.3196e-07 5.04574e-06)
(1.72698e-07 5.58426e-09 7.79102e-08 4.92416e-08 4.56333e-07 5.43991e-06)
(1.78368e-07 7.1313e-09 4.39736e-08 5.69021e-08 5.30969e-07 6.14387e-06)
(2.11619e-07 2.68224e-09 -3.09881e-08 5.88054e-08 5.19294e-07 5.57637e-06)
(2.35484e-07 3.15024e-09 -4.13892e-08 5.25214e-08 4.52536e-07 4.83767e-06)
(1.91336e-07 6.91571e-09 5.0794e-09 5.31866e-08 4.66098e-07 5.09753e-06)
(1.75529e-07 3.84454e-09 -8.31681e-09 5.28086e-08 4.6647e-07 5.18834e-06)
(1.85122e-07 2.5362e-09 -3.75627e-08 5.52419e-08 4.96086e-07 5.45747e-06)
(2.0337e-07 -5.82289e-10 -7.61484e-08 5.66725e-08 5.10534e-07 5.51266e-06)
(2.38284e-07 -8.53186e-10 -8.50012e-08 5.85766e-08 5.05566e-07 5.40813e-06)
(2.35644e-07 -4.23894e-09 -7.57236e-08 6.05197e-08 5.1904e-07 5.65152e-06)
(2.5132e-07 -1.93656e-08 -2.06878e-07 6.14397e-08 5.5904e-07 6.29158e-06)
(1.97896e-07 5.94076e-09 5.40371e-08 5.3905e-08 3.36866e-07 3.23426e-06)
(1.78574e-07 6.23356e-09 7.54108e-08 5.39083e-08 3.61227e-07 3.56116e-06)
(1.84619e-07 7.53227e-09 4.04445e-08 6.24853e-08 4.31311e-07 4.1119e-06)
(2.17776e-07 3.08935e-09 -2.43818e-08 6.45454e-08 4.16461e-07 3.57578e-06)
(2.40309e-07 3.55935e-09 -3.68889e-08 5.7459e-08 3.53777e-07 2.9814e-06)
(1.96332e-07 7.44447e-09 1.10396e-09 5.84837e-08 3.72207e-07 3.25841e-06)
(1.80215e-07 3.87112e-09 -1.54196e-08 5.80987e-08 3.73605e-07 3.35374e-06)
(1.89761e-07 2.1581e-09 -4.43321e-08 6.05885e-08 3.98047e-07 3.51436e-06)
(2.08703e-07 -1.20702e-09 -7.8942e-08 6.20892e-08 4.09866e-07 3.50267e-06)
(2.45129e-07 -1.16252e-09 -8.69248e-08 6.42394e-08 4.0389e-07 3.40617e-06)
(2.42743e-07 -4.53232e-09 -7.12919e-08 6.65783e-08 4.20931e-07 3.70315e-06)
(2.58673e-07 -2.13682e-08 -1.95757e-07 6.81103e-08 4.66704e-07 4.34217e-06)
(2.02736e-07 6.91057e-09 4.94244e-08 5.86527e-08 2.39064e-07 2.1514e-06)
(1.83242e-07 6.88993e-09 7.17601e-08 5.86398e-08 2.63348e-07 2.41675e-06)
(1.89681e-07 7.89127e-09 3.65654e-08 6.81608e-08 3.27666e-07 2.8287e-06)
(2.22235e-07 3.52566e-09 -1.86122e-08 7.0379e-08 3.09515e-07 2.33084e-06)
(2.42955e-07 3.96256e-09 -3.34585e-08 6.24603e-08 2.52142e-07 1.8688e-06)
(1.99765e-07 7.9323e-09 -4.07838e-09 6.39062e-08 2.7513e-07 2.14582e-06)
(1.83413e-07 3.87072e-09 -2.1996e-08 6.35087e-08 2.77441e-07 2.23915e-06)
(1.92667e-07 1.7391e-09 -4.91253e-08 6.60141e-08 2.96325e-07 2.31067e-06)
(2.12178e-07 -1.88019e-09 -7.98979e-08 6.75831e-08 3.05673e-07 2.24906e-06)
(2.49875e-07 -1.47425e-09 -8.79332e-08 6.99777e-08 2.9843e-07 2.16132e-06)
(2.47974e-07 -4.765e-09 -6.66252e-08 7.27585e-08 3.18518e-07 2.48907e-06)
(2.64099e-07 -2.34051e-08 -1.8197e-07 7.50613e-08 3.69408e-07 3.10715e-06)
(2.06049e-07 7.94186e-09 4.3047e-08 6.34523e-08 1.40913e-07 1.66283e-06)
(1.86574e-07 7.54049e-09 6.69899e-08 6.34043e-08 1.65073e-07 1.87257e-06)
(1.93436e-07 8.20793e-09 3.25152e-08 7.38813e-08 2.22532e-07 2.16329e-06)
(2.24848e-07 3.99592e-09 -1.37522e-08 7.62579e-08 2.01025e-07 1.70941e-06)
(2.4331e-07 4.34586e-09 -3.11262e-08 6.74905e-08 1.5009e-07 1.36411e-06)
(2.01534e-07 8.35524e-09 -1.02087e-08 6.94163e-08 1.77172e-07 1.6264e-06)
(1.85013e-07 3.84749e-09 -2.78468e-08 6.89964e-08 1.80266e-07 1.71246e-06)
(1.93697e-07 1.29644e-09 -5.19516e-08 7.14719e-08 1.93383e-07 1.71494e-06)
(2.13633e-07 -2.58249e-09 -7.91005e-08 7.31115e-08 2.00495e-07 1.61885e-06)
(2.52316e-07 -1.78094e-09 -8.80341e-08 7.57404e-08 1.91761e-07 1.54144e-06)
(2.51147e-07 -4.92737e-09 -6.19716e-08 7.90085e-08 2.14276e-07 1.88014e-06)
(2.67416e-07 -2.54446e-08 -1.65992e-07 8.22607e-08 2.69373e-07 2.46055e-06)
(2.0776e-07 9.0223e-09 3.50792e-08 6.82821e-08 4.46242e-08 1.63557e-06)
(1.88485e-07 8.17047e-09 6.11919e-08 6.81732e-08 6.86326e-08 1.79561e-06)
(1.95811e-07 8.48549e-09 2.84672e-08 7.96e-08 1.18309e-07 1.98464e-06)
(2.25541e-07 4.5068e-09 -9.82207e-09 8.21348e-08 9.34745e-08 1.579e-06)
(2.41364e-07 4.69341e-09 -2.98435e-08 7.25181e-08 4.99387e-08 1.33233e-06)
(2.01611e-07 8.68719e-09 -1.69641e-08 7.49754e-08 8.05204e-08 1.56826e-06)
(1.84973e-07 3.80741e-09 -3.28249e-08 7.4518e-08 8.4267e-08 1.64311e-06)
(1.92784e-07 8.50894e-10 -5.29601e-08 7.6915e-08 9.15929e-08 1.59603e-06)