-0.0075 	0 	0 	0
-0.0075 	9.69095e-36 	-1.26509e-36 	1.86007e-31
-0.00745622 	7.96051e-07 	-1.03919e-07 	0.0152793
-0.00745622 	7.96051e-07 	-1.03919e-07 	0.0152793
-0.00741165 	2.37281e-06 	-5.23954e-07 	0.0297365
-0.00741165 	2.37281e-06 	-5.23954e-07 	0.0297365
-0.00736628 	4.15689e-06 	-1.31103e-06 	0.0434631
-0.00736628 	4.15689e-06 	-1.31103e-06 	0.0434631
-0.0073201 	5.83804e-06 	-2.52306e-06 	0.0564831
-0.0073201 	5.83804e-06 	-2.52306e-06 	0.0564831
-0.00727309 	7.40291e-06 	-4.14459e-06 	0.0688251
-0.00727309 	7.40291e-06 	-4.14459e-06 	0.0688251
-0.00722524 	8.88637e-06 	-6.1937e-06 	0.080517
-0.00722524 	8.88637e-06 	-6.1937e-06 	0.080517
-0.00717653 	1.02945e-05 	-8.67863e-06 	0.0915766
-0.00717653 	1.02945e-05 	-8.67863e-06 	0.0915766
-0.00712695 	1.16243e-05 	-1.16176e-05 	0.102
-0.00712695 	1.16243e-05 	-1.16176e-05 	0.102
-0.00707647 	1.28691e-05 	-1.50448e-05 	0.111766
-0.00707647 	1.28691e-05 	-1.50448e-05 	0.111766
-0.0070251 	1.40229e-05 	-1.90163e-05 	0.120851
-0.0070251 	1.40229e-05 	-1.90163e-05 	0.120851
-0.0069728 	1.50821e-05 	-2.36041e-05 	0.129249
-0.0069728 	1.50821e-05 	-2.36041e-05 	0.129249
-0.00691956 	1.60476e-05 	-2.88842e-05 	0.136977
-0.00691956 	1.60476e-05 	-2.88842e-05 	0.136977
-0.00686537 	1.69234e-05 	-3.4924e-05 	0.144072
-0.00686537 	1.69234e-05 	-3.4924e-05 	0.144072
-0.00681021 	1.77165e-05 	-4.17841e-05 	0.150586
-0.00681021 	1.77165e-05 	-4.17841e-05 	0.150586
-0.00675406 	1.84356e-05 	-4.95312e-05 	0.156577
-0.00675406 	1.84356e-05 	-4.95312e-05 	0.156577
-0.0066969 	1.90892e-05 	-5.82289e-05 	0.1621
-0.0066969 	1.90892e-05 	-5.82289e-05 	0.1621
-0.00663871 	1.96845e-05 	-6.7923e-05 	0.167202
-0.00663871 	1.96845e-05 	-6.7923e-05 	0.167202
-0.00657949 	2.02278e-05 	-7.86237e-05 	0.171924
-0.00657949 	2.02278e-05 	-7.86237e-05 	0.171924
-0.0065192 	2.07247e-05 	-9.03014e-05 	0.176308
-0.0065192 	2.07247e-05 	-9.03014e-05 	0.176308
-0.00645783 	2.11812e-05 	-0.000102909 	0.180396
-0.00645783 	2.11812e-05 	-0.000102909 	0.180396
-0.00639535 	2.16023e-05 	-0.000116395 	0.184227
-0.00639535 	2.16023e-05 	-0.000116395 	0.184227
-0.00633176 	2.19925e-05 	-0.000130708 	0.187831
-0.00633176 	2.19925e-05 	-0.000130708 	0.187831
-0.00626703 	2.23557e-05 	-0.000145795 	0.191235
-0.00626703 	2.23557e-05 	-0.000145795 	0.191235
-0.00620114 	2.26952e-05 	-0.000161598 	0.194462
-0.00620114 	2.26952e-05 	-0.000161598 	0.194462
-0.00613406 	2.30136e-05 	-0.000178057 	0.197533
-0.00613406 	2.30136e-05 	-0.000178057 	0.197533
-0.00606579 	2.33135e-05 	-0.00019511 	0.200467
-0.00606579 	2.33135e-05 	-0.00019511 	0.200467
-0.00599629 	2.35966e-05 	-0.000212691 	0.203278
-0.00599629 	2.35966e-05 	-0.000212691 	0.203278
-0.00592554 	2.38647e-05 	-0.000230731 	0.205983
-0.00592554 	2.38647e-05 	-0.000230731 	0.205983
-0.00585352 	2.41196e-05 	-0.000249156 	0.208597
-0.00585352 	2.41196e-05 	-0.000249156 	0.208597
-0.00578022 	2.43638e-05 	-0.000267877 	0.211133
-0.00578022 	2.43638e-05 	-0.000267877 	0.211133
-0.00570559 	2.45994e-05 	-0.000286793 	0.213599
-0.00570559 	2.45994e-05 	-0.000286793 	0.213599
-0.00562963 	2.48285e-05 	-0.000305804 	0.216005
-0.00562963 	2.48285e-05 	-0.000305804 	0.216005
-0.00555231 	2.50527e-05 	-0.000324806 	0.218358
-0.00555231 	2.50527e-05 	-0.000324806 	0.218358
-0.0054736 	2.52739e-05 	-0.000343695 	0.220663
-0.0054736 	2.52739e-05 	-0.000343695 	0.220663
-0.00539348 	2.54934e-05 	-0.000362364 	0.222925
-0.00539348 	2.54934e-05 	-0.000362364 	0.222925
-0.00531193 	2.5713e-05 	-0.000380708 	0.225147
-0.00531193 	2.5713e-05 	-0.000380708 	0.225147
-0.00522891 	2.5934e-05 	-0.000398618 	0.227333
-0.00522891 	2.5934e-05 	-0.000398618 	0.227333
-0.0051444 	2.6158e-05 	-0.000415992 	0.229486
-0.0051444 	2.6158e-05 	-0.000415992 	0.229486
-0.00505838 	2.63864e-05 	-0.000432726 	0.231606
-0.00505838 	2.63864e-05 	-0.000432726 	0.231606
-0.00497081 	2.66207e-05 	-0.000448725 	0.233693
-0.00497081 	2.66207e-05 	-0.000448725 	0.233693
-0.00488168 	2.68622e-05 	-0.000463895 	0.235749
-0.00488168 	2.68622e-05 	-0.000463895 	0.235749
-0.00479094 	2.71125e-05 	-0.000478148 	0.237773
-0.00479094 	2.71125e-05 	-0.000478148 	0.237773
-0.00469858 	2.73727e-05 	-0.0004914 	0.239763
-0.00469858 	2.73727e-05 	-0.0004914 	0.239763
-0.00460456 	2.76442e-05 	-0.000503573 	0.241717
-0.00460456 	2.76442e-05 	-0.000503573 	0.241717
-0.00450886 	2.7928e-05 	-0.000514607 	0.243635
-0.00450886 	2.7928e-05 	-0.000514607 	0.243635
-0.00441144 	2.82255e-05 	-0.000524474 	0.245514
-0.00441144 	2.82255e-05 	-0.000524474 	0.245514
-0.00431227 	2.85378e-05 	-0.000533178 	0.247352
-0.00431227 	2.85378e-05 	-0.000533178 	0.247352
-0.00421133 	2.88667e-05 	-0.000540755 	0.249149
-0.00421133 	2.88667e-05 	-0.000540755 	0.249149
-0.00410857 	2.92134e-05 	-0.000547261 	0.2509
-0.00410857 	2.92134e-05 	-0.000547261 	0.2509
-0.00400397 	2.95782e-05 	-0.000552775 	0.252604
-0.00400397 	2.95782e-05 	-0.000552775 	0.252604
-0.0038975 	2.99599e-05 	-0.000557386 	0.25426
-0.0038975 	2.99599e-05 	-0.000557386 	0.25426
-0.00378912 	3.03576e-05 	-0.000561181 	0.255869
-0.00378912 	3.03576e-05 	-0.000561181 	0.255869
-0.00367879 	3.07724e-05 	-0.000564235 	0.257434
-0.00367879 	3.07724e-05 	-0.000564235 	0.257434
-0.00356649 	3.12065e-05 	-0.000566614 	0.258955
-0.00356649 	3.12065e-05 	-0.000566614 	0.258955
-0.00345217 	3.16613e-05 	-0.000568372 	0.260431
-0.00345217 	3.16613e-05 	-0.000568372 	0.260431
-0.0033358 	3.21368e-05 	-0.000569572 	0.261859
-0.0033358 	3.21368e-05 	-0.000569572 	0.261859
-0.00321735 	3.26322e-05 	-0.000570279 	0.263235
-0.00321735 	3.26322e-05 	-0.000570279 	0.263235
-0.00309677 	3.31464e-05 	-0.000570568 	0.264559
-0.00309677 	3.31464e-05 	-0.000570568 	0.264559
-0.00297403 	3.3678e-05 	-0.000570514 	0.265825
-0.00297403 	3.3678e-05 	-0.000570514 	0.265825
-0.00284909 	3.42254e-05 	-0.000570201 	0.267033
-0.00284909 	3.42254e-05 	-0.000570201 	0.267033
-0.0027219 	3.47866e-05 	-0.000569709 	0.26818
-0.0027219 	3.47866e-05 	-0.000569709 	0.26818
-0.00259244 	3.53592e-05 	-0.00056912 	0.269261
-0.00259244 	3.53592e-05 	-0.00056912 	0.269261
-0.00246065 	3.59407e-05 	-0.000568511 	0.270276
-0.00246065 	3.59407e-05 	-0.000568511 	0.270276
-0.00232651 	3.65281e-05 	-0.000567948 	0.271221
-0.00232651 	3.65281e-05 	-0.000567948 	0.271221
-0.00218995 	3.71181e-05 	-0.000567488 	0.272095
-0.00218995 	3.71181e-05 	-0.000567488 	0.272095
-0.00205095 	3.77067e-05 	-0.000567175 	0.272895
-0.00205095 	3.77067e-05 	-0.000567175 	0.272895
-0.00190946 	3.82891e-05 	-0.000567036 	0.27362
-0.00190946 	3.82891e-05 	-0.000567036 	0.27362
-0.00176543 	3.88595e-05 	-0.000567084 	0.274269
-0.00176543 	3.88595e-05 	-0.000567084 	0.274269
-0.00161881 	3.94114e-05 	-0.00056731 	0.274841
-0.00161881 	3.94114e-05 	-0.00056731 	0.274841
-0.00146957 	3.99377e-05 	-0.000567687 	0.275336
-0.00146957 	3.99377e-05 	-0.000567687 	0.275336
-0.00131765 	4.04312e-05 	-0.000568172 	0.275755
-0.00131765 	4.04312e-05 	-0.000568172 	0.275755
-0.001163 	4.08849e-05 	-0.000568708 	0.276097
-0.001163 	4.08849e-05 	-0.000568708 	0.276097
-0.00100559 	4.1291e-05 	-0.00056923 	0.276362
-0.00100559 	4.1291e-05 	-0.00056923 	0.276362
-0.000845345 	4.16403e-05 	-0.000569728 	0.276551
-0.000845345 	4.16403e-05 	-0.000569728 	0.276551
-0.000682232 	4.19218e-05 	-0.000570096 	0.276661
-0.000682232 	4.19218e-05 	-0.000570096 	0.276661
-0.000516194 	4.21235e-05 	-0.000570207 	0.276692
-0.000516194 	4.21235e-05 	-0.000570207 	0.276692
-0.000347178 	4.22332e-05 	-0.000570083 	0.276641
-0.000347178 	4.22332e-05 	-0.000570083 	0.276641
-0.000175132 	4.22446e-05 	-0.000569502 	0.276506
-0.000175132 	4.22446e-05 	-0.000569502 	0.276506
0 	4.21583e-05 	-0.000568509 	0.276285
0 	4.21583e-05 	-0.000568509 	0.276285
0 	4.21583e-05 	-0.000568509 	0.276285
0 	4.21583e-05 	-0.000568509 	0.276285
0.000175132 	4.19742e-05 	-0.000567255 	0.275982
0.000175132 	4.86312e-05 	-0.000478024 	0.271982
0.000347178 	4.16983e-05 	-0.00056558 	0.2756
0.000347178 	5.00782e-05 	-0.000478183 	0.27168
0.000516194 	4.13362e-05 	-0.000563641 	0.275147
0.000516194 	5.13656e-05 	-0.000478093 	0.271298
0.000682232 	4.08945e-05 	-0.000561421 	0.274625
0.000682232 	5.25038e-05 	-0.000477683 	0.270841
0.000845345 	4.03877e-05 	-0.000558795 	0.274038
0.000845345 	5.3509e-05 	-0.000476913 	0.270312
0.00100559 	3.9829e-05 	-0.000555853 	0.273389
0.00100559 	5.43952e-05 	-0.000475809 	0.269716
0.001163 	3.923e-05 	-0.000552614 	0.27268
0.001163 	5.51755e-05 	-0.000474383 	0.269056
0.00131765 	3.8601e-05 	-0.000549096 	0.271914
0.00131765 	5.58618e-05 	-0.000472644 	0.268335
0.00146957 	3.79508e-05 	-0.000545317 	0.271092
0.00146957 	5.64645e-05 	-0.000470604 	0.267556
0.00161881 	3.7287e-05 	-0.000541293 	0.270218
0.00161881 	5.69922e-05 	-0.000468273 	0.266721
0.00176543 	3.66157e-05 	-0.000537036 	0.269292
0.00176543 	5.74524e-05 	-0.000465659 	0.265832
0.00190946 	3.59424e-05 	-0.000532555 	0.268316
0.00190946 	5.78511e-05 	-0.00046277 	0.264891
0.00205095 	3.52714e-05 	-0.000527857 	0.267292
0.00205095 	5.81935e-05 	-0.000459611 	0.263898
0.00218995 	3.46061e-05 	-0.000522947 	0.26622
0.00218995 	5.84839e-05 	-0.000456185 	0.262857
0.00232651 	3.39495e-05 	-0.000517829 	0.265101
0.00232651 	5.87256e-05 	-0.000452493 	0.261767
0.00246065 	3.33039e-05 	-0.000512504 	0.263936
0.00246065 	5.89212e-05 	-0.000448536 	0.26063
0.00259244 	3.26711e-05 	-0.00050697 	0.262727
0.00259244 	5.90726e-05 	-0.000444309 	0.259446
0.0027219 	3.20525e-05 	-0.000501224 	0.261472
0.0027219 	5.91809e-05 	-0.000439808 	0.258216
0.00284909 	3.14492e-05 	-0.000495262 	0.260173
0.00284909 	5.92469e-05 	-0.000435026 	0.256941
0.00297403 	3.08618e-05 	-0.000489076 	0.258829
0.00297403 	5.92706e-05 	-0.000429951 	0.25562
0.00309677 	3.02908e-05 	-0.000482659 	0.257441
0.00309677 	5.92521e-05 	-0.000424572 	0.254255
0.00321735 	2.97365e-05 	-0.000476002 	0.256009
0.00321735 	5.91908e-05 	-0.000418875 	0.252844
0.0033358 	2.9199e-05 	-0.000469097 	0.254531
0.0033358 	5.90861e-05 	-0.000412848 	0.251388
0.00345217 	5.89368e-05 	-0.000406483 	0.249886
0.00345217 	2.86782e-05 	-0.000461937 	0.253007
0.00356649 	2.81741e-05 	-0.000454513 	0.251437
0.00356649 	5.87419e-05 	-0.000399776 	0.248336
0.00367879 	2.76862e-05 	-0.000446808 	0.24982
0.00367879 	5.85017e-05 	-0.000392713 	0.246739
0.00378912 	2.72144e-05 	-0.000438799 	0.248154
0.00378912 	5.82179e-05 	-0.000385274 	0.245095
0.0038975 	2.67581e-05 	-0.000430458 	0.246437
0.0038975 	5.7892e-05 	-0.000377428 	0.243404
0.00400397 	2.63165e-05 	-0.000421731 	0.244665
0.00400397 	5.7524e-05 	-0.000369104 	0.241655
0.00410857 	5.71117e-05 	-0.000360186 	0.239837
0.00410857 	2.58878e-05 	-0.000412544 	0.242833
0.00421133 	2.54694e-05 	-0.000402816 	0.240934
0.00421133 	5.66506e-05 	-0.000350574 	0.237939
0.00431227 	2.50593e-05 	-0.000392463 	0.23896
0.00431227 	5.61356e-05 	-0.000340202 	0.235955
0.00441144 	2.46561e-05 	-0.000381425 	0.236905
0.00441144 	5.5562e-05 	-0.000329042 	0.233883
0.00450886 	2.42596e-05 	-0.00036968 	0.234765
0.00450886 	5.49255e-05 	-0.000317111 	0.231717
0.00460456 	2.38688e-05 	-0.000357228 	0.232532
0.00460456 	5.42218e-05 	-0.000304445 	0.229454
0.00469858 	2.34825e-05 	-0.000344084 	0.230204
0.00469858 	5.34474e-05 	-0.000291087 	0.227092
0.00479094 	2.30993e-05 	-0.00033027 	0.227776
0.00479094 	5.25985e-05 	-0.000277088 	0.224625
0.00488168 	2.27175e-05 	-0.000315816 	0.225242
0.00488168 	5.16719e-05 	-0.000262504 	0.222049
0.00497081 	2.23355e-05 	-0.000300764 	0.2226
0.00497081 	5.06642e-05 	-0.000247401 	0.219361
0.00505838 	2.19517e-05 	-0.000285169 	0.219844
0.00505838 	4.95728e-05 	-0.000231858 	0.216556
0.0051444 	2.15645e-05 	-0.000269103 	0.216971
0.0051444 	4.83955e-05 	-0.00021597 	0.213633
0.00522891 	2.11723e-05 	-0.000252653 	0.213978
0.00522891 	4.71305e-05 	-0.000199846 	0.210587
0.00531193 	2.07735e-05 	-0.000235923 	0.210861
0.00531193 	4.57771e-05 	-0.000183614 	0.207417
0.00539348 	2.03665e-05 	-0.000219031 	0.207617
0.00539348 	4.43352e-05 	-0.000167412 	0.20412
0.0054736 	1.995e-05 	-0.000202106 	0.204243
0.0054736 	4.28054e-05 	-0.000151387 	0.200696
0.00555231 	1.95225e-05 	-0.000185281 	0.200735
0.00555231 	4.1189e-05 	-0.000135687 	0.197141
0.00562963 	1.90825e-05 	-0.000168692 	0.19709
0.00562963 	3.9488e-05 	-0.000120455 	0.193454
0.00570559 	1.86288e-05 	-0.000152469 	0.193303
0.00570559 	3.77049e-05 	-0.000105822 	0.189632
0.00578022 	1.81601e-05 	-0.000136736 	0.18937
0.00578022 	3.58425e-05 	-9.19076e-05 	0.18567
0.00585352 	1.76751e-05 	-0.000121608 	0.185284
0.00585352 	3.39046e-05 	-7.88118e-05 	0.181564
0.00592554 	1.71728e-05 	-0.000107183 	0.18104
0.00592554 	3.18952e-05 	-6.66151e-05 	0.17731
0.00599629 	1.66518e-05 	-9.35467e-05 	0.176629
0.00599629 	2.98191e-05 	-5.5377e-05 	0.172899
0.00606579 	1.61108e-05 	-8.07706e-05 	0.172043
0.00606579 	2.76816e-05 	-4.51384e-05 	0.168324
0.00613406 	1.55481e-05 	-6.8914e-05 	0.16727
0.00613406 	2.54877e-05 	-3.5921e-05 	0.163572
0.00620114 	2.3243e-05 	-2.77295e-05 	0.158626
0.00620114 	1.49623e-05 	-5.80221e-05 	0.162293
0.00626703 	1.43521e-05 	-4.81313e-05 	0.157096
0.00626703 	2.09548e-05 	-2.05599e-05 	0.153471
0.00633176 	1.86336e-05 	-1.43971e-05 	0.148092
0.00633176 	1.37173e-05 	-3.92685e-05 	0.151663
0.00639535 	1.62919e-05 	-9.20753e-06 	0.142476
0.00639535 	1.30574e-05 	-3.14402e-05 	0.145982
0.00645783 	1.23721e-05 	-2.46335e-05 	0.140035
0.00645783 	1.39443e-05 	-4.94174e-06 	0.136606
0.0065192 	1.16613e-05 	-1.88203e-05 	0.133807
0.0065192 	1.1608e-05 	-1.53804e-06 	0.130466
0.00657949 	1.09254e-05 	-1.39597e-05 	0.127281
0.00657949 	9.30275e-06 	1.07404e-06 	0.12404
0.00663871 	1.01646e-05 	-9.99741e-06 	0.120442
0.00663871 	7.0513e-06 	2.97174e-06 	0.117313
0.0066969 	9.37852e-06 	-6.85263e-06 	0.113271
0.0066969 	4.8773e-06 	4.24234e-06 	0.11026
0.00675406 	2.8045e-06 	4.97848e-06 	0.102848
0.00675406 	8.56651e-06 	-4.42985e-06 	0.105735
0.00681021 	8.63387e-07 	5.27276e-06 	0.0950564
0.00681021 	7.73129e-06 	-2.62702e-06 	0.0978073
0.00686537 	-9.03051e-07 	5.21587e-06 	0.0869093
0.00686537 	6.88234e-06 	-1.34757e-06 	0.0895023
0.00691956 	-2.44439e-06 	4.89574e-06 	0.0784782
0.00691956 	6.0349e-06 	-5.06613e-07 	0.0808889
0.0069728 	-3.71155e-06 	4.3967e-06 	0.069882
0.0069728 	5.208e-06 	-1.33637e-08 	0.0720857
0.0070251 	4.42307e-06 	2.24464e-07 	0.0632581
0.0070251 	-4.66504e-06 	3.796e-06 	0.0612822
0.00707647 	3.70041e-06 	2.94293e-07 	0.0545989
0.00707647 	-5.28365e-06 	3.15997e-06 	0.0528633
0.00712695 	3.05449e-06 	2.69505e-07 	0.0462944
0.00712695 	-5.56995e-06 	2.53898e-06 	0.0448009
0.00717653 	2.49035e-06 	2.03784e-07 	0.0384897
0.00717653 	-5.54924e-06 	1.96611e-06 	0.0372304
0.00722524 	2.00266e-06 	1.29908e-07 	0.0312693
0.00722524 	-5.26247e-06 	1.45895e-06 	0.0302299
0.00727309 	-4.75807e-06 	1.02456e-06 	0.0238252
0.00727309 	1.57625e-06 	6.39911e-08 	0.0246611
0.0073201 	-4.0876e-06 	6.66284e-07 	0.0180071
0.0073201 	1.18476e-06 	1.47504e-08 	0.0186556
0.00736628 	-3.30811e-06 	3.73717e-07 	0.0127479
0.00736628 	7.82998e-07 	-2.32099e-08 	0.0132238
0.00741165 	3.64492e-07 	-2.89308e-08 	0.00832985
0.00741165 	-2.42227e-06 	1.75198e-07 	0.00801311
0.00745622 	5.14087e-08 	-1.97837e-08 	0.00393879
0.00745622 	-1.33485e-06 	5.10938e-08 	0.00376923
0.0075 	0 	0 	0
0.0075 	0 	0 	0
