0 	0 	0 	0
0 	-2.53278e-36 	-2.86394e-36 	1.85632e-31
5.01672e-05 	-3.33494e-07 	-3.09619e-07 	0.0173154
5.01672e-05 	-3.33494e-07 	-3.09619e-07 	0.0173154
0.000100334 	-1.3519e-06 	-9.87087e-07 	0.0332999
0.000150502 	-2.41627e-06 	-2.08516e-06 	0.0481295
0.000150502 	-2.41627e-06 	-2.08516e-06 	0.0481295
0.000200669 	-3.30216e-06 	-3.5959e-06 	0.0618945
0.000200669 	-3.30216e-06 	-3.5959e-06 	0.0618945
0.000250836 	-4.05751e-06 	-5.52886e-06 	0.0746733
0.000301003 	-4.73241e-06 	-7.87261e-06 	0.0865316
0.000301003 	-4.73241e-06 	-7.87261e-06 	0.0865316
0.000351171 	-5.34396e-06 	-1.0624e-05 	0.0975128
0.000401338 	-5.89871e-06 	-1.37892e-05 	0.107638
0.000451505 	-6.3988e-06 	-1.73906e-05 	0.116922
0.000451505 	-6.3988e-06 	-1.73906e-05 	0.116922
0.000501672 	-6.84452e-06 	-2.14639e-05 	0.125392
0.000551839 	-7.236e-06 	-2.60473e-05 	0.133093
0.000551839 	-7.236e-06 	-2.60473e-05 	0.133093
0.000602007 	-7.57414e-06 	-3.11706e-05 	0.140086
0.000602007 	-7.57414e-06 	-3.11706e-05 	0.140086
0.000652174 	-7.86108e-06 	-3.68554e-05 	0.146441
0.000652174 	-7.86108e-06 	-3.68554e-05 	0.146441
0.000702341 	-8.10013e-06 	-4.31191e-05 	0.152232
0.000702341 	-8.10013e-06 	-4.31191e-05 	0.152232
0.000752508 	-8.29527e-06 	-4.99767e-05 	0.157527
0.000802676 	-8.45011e-06 	-5.74424e-05 	0.162382
0.000852843 	-8.56306e-06 	-6.5613e-05 	0.16679
0.000852843 	-8.56306e-06 	-6.5613e-05 	0.16679
0.00090301 	-8.64375e-06 	-7.43617e-05 	0.170862
0.00090301 	-8.64375e-06 	-7.43617e-05 	0.170862
0.000953177 	-8.6954e-06 	-8.36382e-05 	0.174636
0.00100334 	-8.72105e-06 	-9.33905e-05 	0.178149
0.00100334 	-8.72105e-06 	-9.33905e-05 	0.178149
0.00105351 	-8.72348e-06 	-0.000103569 	0.181432
0.00105351 	-8.72348e-06 	-0.000103569 	0.181432
0.00110368 	-8.70474e-06 	-0.000114136 	0.184509
0.00115385 	-8.6625e-06 	-0.000125133 	0.187358
0.00120401 	-8.60486e-06 	-0.000136409 	0.190056
0.00120401 	-8.60486e-06 	-0.000136409 	0.190056
0.00130435 	-8.44975e-06 	-0.000159659 	0.195061
0.00130435 	-8.44975e-06 	-0.000159659 	0.195061
0.00135452 	-8.35173e-06 	-0.000171621 	0.19736
0.00135452 	-8.35173e-06 	-0.000171621 	0.19736
0.00140468 	-8.24272e-06 	-0.000183739 	0.199549
0.00145485 	-8.12518e-06 	-0.000195962 	0.201655
0.00145485 	-8.12518e-06 	-0.000195962 	0.201655
0.00150502 	-7.99976e-06 	-0.000208272 	0.203683
0.00150502 	-7.99976e-06 	-0.000208272 	0.203683
0.00155518 	-7.86283e-06 	-0.000220666 	0.205604
0.00155518 	-7.86283e-06 	-0.000220666 	0.205604
0.00160535 	-7.71934e-06 	-0.000233078 	0.207465
0.00160535 	-7.71934e-06 	-0.000233078 	0.207465
0.00165552 	-7.57007e-06 	-0.000245494 	0.209272
0.00165552 	-7.57007e-06 	-0.000245494 	0.209272
0.00170569 	-7.41314e-06 	-0.00025788 	0.21101
0.00170569 	-7.41314e-06 	-0.00025788 	0.21101
0.00175585 	-7.2504e-06 	-0.00027019 	0.212691
0.00175585 	-7.2504e-06 	-0.00027019 	0.212691
0.00180602 	-7.08376e-06 	-0.000282431 	0.214336
0.00180602 	-7.08376e-06 	-0.000282431 	0.214336
0.00185619 	-6.91168e-06 	-0.000294541 	0.215926
0.00185619 	-6.91168e-06 	-0.000294541 	0.215926
0.00190635 	-6.73511e-06 	-0.000306483 	0.217472
0.00190635 	-6.73511e-06 	-0.000306483 	0.217472
0.00195652 	-6.55578e-06 	-0.000318307 	0.21899
0.00195652 	-6.55578e-06 	-0.000318307 	0.21899
0.00200669 	-6.37186e-06 	-0.000329888 	0.22046
0.00200669 	-6.37186e-06 	-0.000329888 	0.22046
0.00205686 	-6.18494e-06 	-0.000341256 	0.221898
0.00210702 	-5.99602e-06 	-0.00035248 	0.223315
0.00210702 	-5.99602e-06 	-0.00035248 	0.223315
0.00215719 	-5.80277e-06 	-0.000363301 	0.224682
0.00220736 	-5.60802e-06 	-0.000373946 	0.226032
0.00225753 	-5.41089e-06 	-0.000384309 	0.227353
0.00225753 	-5.41089e-06 	-0.000384309 	0.227353
0.00230769 	-5.21128e-06 	-0.000394302 	0.228642
0.00230769 	-5.21128e-06 	-0.000394302 	0.228642
0.00235786 	-5.01062e-06 	-0.000404134 	0.229917
0.00235786 	-5.01062e-06 	-0.000404134 	0.229917
0.00240803 	-4.80714e-06 	-0.000413444 	0.231153
0.00240803 	-4.80714e-06 	-0.000413444 	0.231153
0.00245819 	-4.60282e-06 	-0.000422561 	0.232374
0.00245819 	-4.60282e-06 	-0.000422561 	0.232374
0.00250836 	-4.3968e-06 	-0.000431287 	0.233569
0.00250836 	-4.3968e-06 	-0.000431287 	0.233569
0.00255853 	-4.18952e-06 	-0.000439653 	0.23474
0.0026087 	-3.98135e-06 	-0.000447765 	0.235894
0.0026087 	-3.98135e-06 	-0.000447765 	0.235894
0.00265886 	-3.77167e-06 	-0.00045536 	0.237018
0.00270903 	-3.56164e-06 	-0.000462831 	0.238133
0.00270903 	-3.56164e-06 	-0.000462831 	0.238133
0.0027592 	-3.34996e-06 	-0.00046964 	0.23921
0.00280936 	-3.13803e-06 	-0.000476341 	0.240281
0.00280936 	-3.13803e-06 	-0.000476341 	0.240281
0.00285953 	-2.92479e-06 	-0.00048247 	0.24132
0.00285953 	-2.92479e-06 	-0.00048247 	0.24132
0.0029097 	-2.71109e-06 	-0.000488405 	0.242347
0.0029097 	-2.71109e-06 	-0.000488405 	0.242347
0.00295987 	-2.49626e-06 	-0.00049385 	0.243347
0.00295987 	-2.49626e-06 	-0.00049385 	0.243347
0.00301003 	-2.28084e-06 	-0.000499042 	0.244333
0.0030602 	-2.06443e-06 	-0.000503814 	0.245295
0.00311037 	-1.84737e-06 	-0.000508306 	0.246241
0.00311037 	-1.84737e-06 	-0.000508306 	0.246241
0.00316054 	-1.62947e-06 	-0.000512434 	0.247165
0.00316054 	-1.62947e-06 	-0.000512434 	0.247165
0.00326087 	-1.19174e-06 	-0.000519812 	0.248958
0.00326087 	-1.19174e-06 	-0.000519812 	0.248958
0.00331104 	-9.7193e-07 	-0.000523091 	0.249827
0.0033612 	-7.51383e-07 	-0.000526065 	0.250675
0.0033612 	-7.51383e-07 	-0.000526065 	0.250675
0.00341137 	-5.3005e-07 	-0.000528842 	0.251508
0.00341137 	-5.3005e-07 	-0.000528842 	0.251508
0.00346154 	-3.07526e-07 	-0.000531321 	0.252318
0.00346154 	-3.07526e-07 	-0.000531321 	0.252318
0.00351171 	-8.40367e-08 	-0.000533665 	0.253117
0.00356187 	1.41577e-07 	-0.000535709 	0.25389
0.00356187 	1.41577e-07 	-0.000535709 	0.25389
0.00361204 	3.67891e-07 	-0.000537682 	0.254656
0.00366221 	5.97183e-07 	-0.000539346 	0.255394
0.00366221 	5.97183e-07 	-0.000539346 	0.255394
0.00371237 	8.26568e-07 	-0.000541001 	0.256131
0.00371237 	8.26568e-07 	-0.000541001 	0.256131
0.00376254 	1.05898e-06 	-0.00054233 	0.256836
0.00376254 	1.05898e-06 	-0.00054233 	0.256836
0.00381271 	1.29139e-06 	-0.00054366 	0.257541
0.00381271 	1.29139e-06 	-0.00054366 	0.257541
0.00386288 	1.52538e-06 	-0.000544743 	0.258219
0.00391304 	1.75971e-06 	-0.000545775 	0.258892
0.00391304 	1.75971e-06 	-0.000545775 	0.258892
0.00396321 	1.99455e-06 	-0.000546653 	0.259546
0.00401338 	2.22975e-06 	-0.000547423 	0.260186
0.00401338 	2.22975e-06 	-0.000547423 	0.260186
0.00406355 	2.46501e-06 	-0.000548121 	0.260817
0.00406355 	2.46501e-06 	-0.000548121 	0.260817
0.00411371 	2.70043e-06 	-0.000548664 	0.261426
0.00411371 	2.70043e-06 	-0.000548664 	0.261426
0.00421405 	3.17086e-06 	-0.00054956 	0.262611
0.00421405 	3.17086e-06 	-0.00054956 	0.262611
0.00426421 	3.40589e-06 	-0.000549912 	0.263187
0.00426421 	3.40589e-06 	-0.000549912 	0.263187
0.00431438 	3.64024e-06 	-0.000550165 	0.263743
0.00431438 	3.64024e-06 	-0.000550165 	0.263743
0.00436455 	3.87421e-06 	-0.000550362 	0.264287
0.00436455 	3.87421e-06 	-0.000550362 	0.264287
0.00441472 	4.10776e-06 	-0.000550531 	0.264824
0.00441472 	4.10776e-06 	-0.000550531 	0.264824
0.00446488 	4.3399e-06 	-0.000550609 	0.265335
0.00446488 	4.3399e-06 	-0.000550609 	0.265335
0.00451505 	4.57204e-06 	-0.000550687 	0.265847
0.00451505 	4.57204e-06 	-0.000550687 	0.265847
0.00456522 	4.80208e-06 	-0.000550698 	0.266333
0.00456522 	4.80208e-06 	-0.000550698 	0.266333
0.00461538 	5.03153e-06 	-0.000550692 	0.266812
0.00461538 	5.03153e-06 	-0.000550692 	0.266812
0.00466555 	5.25992e-06 	-0.000550671 	0.267281
0.00471572 	5.48574e-06 	-0.000550615 	0.267728
0.00476589 	5.71156e-06 	-0.000550558 	0.268174
0.00476589 	5.71156e-06 	-0.000550558 	0.268174
0.00486622 	6.15515e-06 	-0.000550414 	0.26901
0.00486622 	6.15515e-06 	-0.000550414 	0.26901
0.00491639 	6.37542e-06 	-0.000550341 	0.269418
0.00496656 	6.59115e-06 	-0.000550276 	0.2698
0.00496656 	6.59115e-06 	-0.000550276 	0.2698
0.00501672 	6.80687e-06 	-0.000550212 	0.270181
0.00506689 	7.01904e-06 	-0.000550166 	0.270545
0.00511706 	7.2283e-06 	-0.000550135 	0.270894
0.00511706 	7.2283e-06 	-0.000550135 	0.270894
0.00521739 	7.64024e-06 	-0.000550119 	0.271564
0.00521739 	7.64024e-06 	-0.000550119 	0.271564
0.00526756 	7.842e-06 	-0.00055014 	0.271881
0.00526756 	7.842e-06 	-0.00055014 	0.271881
0.00531773 	8.04247e-06 	-0.000550171 	0.272193
0.00536789 	8.23574e-06 	-0.000550257 	0.272478
0.00536789 	8.23574e-06 	-0.000550257 	0.272478
0.00541806 	8.42901e-06 	-0.000550342 	0.272763
0.00546823 	8.61869e-06 	-0.000550456 	0.273037
0.00551839 	8.80255e-06 	-0.000550613 	0.27329
0.00551839 	8.80255e-06 	-0.000550613 	0.27329
0.00556856 	8.98641e-06 	-0.00055077 	0.273544
0.00556856 	8.98641e-06 	-0.00055077 	0.273544
0.0056689 	9.33792e-06 	-0.000551197 	0.274004
0.0056689 	9.33792e-06 	-0.000551197 	0.274004
0.00571906 	9.51141e-06 	-0.000551426 	0.274227
0.00576923 	9.67691e-06 	-0.000551702 	0.27443
0.00576923 	9.67691e-06 	-0.000551702 	0.27443
0.0058194 	9.83883e-06 	-0.000551998 	0.274623
0.0058194 	9.83883e-06 	-0.000551998 	0.274623
0.00591973 	1.01527e-05 	-0.000552631 	0.274988
0.00591973 	1.01527e-05 	-0.000552631 	0.274988
0.0059699 	1.03016e-05 	-0.000552982 	0.275153
0.0059699 	1.03016e-05 	-0.000552982 	0.275153
0.00602007 	1.04504e-05 	-0.000553333 	0.275317
0.00607023 	1.05877e-05 	-0.000553713 	0.27546
0.0061204 	1.07219e-05 	-0.000554101 	0.275596
0.0061204 	1.07219e-05 	-0.000554101 	0.275596
0.00617057 	1.0856e-05 	-0.000554489 	0.275733
0.00622074 	1.09777e-05 	-0.000554892 	0.275849
0.00622074 	1.09777e-05 	-0.000554892 	0.275849
0.0062709 	1.10956e-05 	-0.000555298 	0.275959
0.00632107 	1.12134e-05 	-0.000555705 	0.276069
0.00632107 	1.12134e-05 	-0.000555705 	0.276069
0.00637124 	1.13189e-05 	-0.000556111 	0.276161
0.00637124 	1.13189e-05 	-0.000556111 	0.276161
0.0064214 	1.14187e-05 	-0.000556516 	0.276244
0.0064214 	1.14187e-05 	-0.000556516 	0.276244
0.00647157 	1.15185e-05 	-0.000556921 	0.276328
0.00647157 	1.15185e-05 	-0.000556921 	0.276328
0.00652174 	1.16073e-05 	-0.000557306 	0.276398
0.00657191 	1.16871e-05 	-0.000557673 	0.276456
0.00657191 	1.16871e-05 	-0.000557673 	0.276456
0.00662207 	1.17669e-05 	-0.00055804 	0.276515
0.00667224 	1.1839e-05 	-0.000558392 	0.276564
0.00672241 	1.18968e-05 	-0.000558717 	0.276598
0.00672241 	1.18968e-05 	-0.000558717 	0.276598
0.00677258 	1.19546e-05 	-0.000559042 	0.276631
0.00682274 	1.201e-05 	-0.000559363 	0.276662
0.00682274 	1.201e-05 	-0.000559363 	0.276662
0.00687291 	1.20438e-05 	-0.000559649 	0.276671
0.00687291 	1.20438e-05 	-0.000559649 	0.276671
0.00692308 	1.20775e-05 	-0.000559935 	0.276681
0.00697324 	1.21112e-05 	-0.000560221 	0.27669
0.00702341 	1.21243e-05 	-0.000560444 	0.27668
0.00707358 	1.21319e-05 	-0.000560651 	0.276665
0.00707358 	1.21319e-05 	-0.000560651 	0.276665
0.00717391 	1.21347e-05 	-0.000561046 	0.276624
0.00717391 	1.21347e-05 	-0.000561046 	0.276624
0.00722408 	1.21127e-05 	-0.00056121 	0.276585
0.00722408 	1.21127e-05 	-0.00056121 	0.276585
0.00727425 	1.20907e-05 	-0.000561374 	0.276546
0.00727425 	1.20907e-05 	-0.000561374 	0.276546
0.00732441 	1.20687e-05 	-0.000561537 	0.276507
0.00732441 	1.20687e-05 	-0.000561537 	0.276507
0.00737458 	1.20136e-05 	-0.000561618 	0.276444
0.00737458 	1.20136e-05 	-0.000561618 	0.276444
0.00742475 	1.19582e-05 	-0.000561697 	0.276381
0.00747492 	1.19028e-05 	-0.000561776 	0.276318
0.00752508 	1.18305e-05 	-0.000561783 	0.276243
0.00752508 	1.18305e-05 	-0.000561783 	0.276243
0.00757525 	1.17411e-05 	-0.000561717 	0.276156
0.00762542 	1.16517e-05 	-0.00056165 	0.276069
0.00767559 	1.1562e-05 	-0.000561583 	0.275982
0.00767559 	1.1562e-05 	-0.000561583 	0.275982
0.00772575 	1.14403e-05 	-0.000561412 	0.27587
0.00777592 	1.13186e-05 	-0.000561242 	0.275759
0.00777592 	1.13186e-05 	-0.000561242 	0.275759
0.00782609 	1.11969e-05 	-0.000561072 	0.275648
0.00787625 	1.10595e-05 	-0.000560813 	0.275523
0.00787625 	1.10595e-05 	-0.000560813 	0.275523
0.00792642 	1.09107e-05 	-0.00056049 	0.275389
0.00797659 	1.07619e-05 	-0.000560168 	0.275254
0.00802676 	1.06085e-05 	-0.000559815 	0.275115
0.00802676 	1.06085e-05 	-0.000559815 	0.275115
0.00807692 	1.04376e-05 	-0.000559348 	0.274957
0.00807692 	1.04376e-05 	-0.000559348 	0.274957
0.00812709 	1.02668e-05 	-0.000558881 	0.2748
0.00817726 	1.00959e-05 	-0.000558414 	0.274642
0.00817726 	1.00959e-05 	-0.000558414 	0.274642
0.00822742 	9.90777e-06 	-0.000557857 	0.274465
0.00827759 	9.71768e-06 	-0.000557291 	0.274284
0.00827759 	9.71768e-06 	-0.000557291 	0.274284
0.00832776 	9.5276e-06 	-0.000556724 	0.274104
0.00832776 	9.5276e-06 	-0.000556724 	0.274104
0.00837793 	9.32691e-06 	-0.000556079 	0.273909
0.00842809 	9.12049e-06 	-0.000555392 	0.273707
0.00842809 	9.12049e-06 	-0.000555392 	0.273707
0.00847826 	8.91407e-06 	-0.000554705 	0.273504
0.00847826 	8.91407e-06 	-0.000554705 	0.273504
0.0085786 	8.48166e-06 	-0.000553157 	0.273066
0.0085786 	8.48166e-06 	-0.000553157 	0.273066
0.00862876 	8.26179e-06 	-0.00055235 	0.272841
0.00867893 	8.03852e-06 	-0.000551506 	0.272608
0.0087291 	7.80791e-06 	-0.000550582 	0.272361
0.00877926 	7.5773e-06 	-0.000549658 	0.272113
0.00882943 	7.34475e-06 	-0.000548706 	0.27186
0.0088796 	7.1059e-06 	-0.000547665 	0.27159
0.0088796 	7.1059e-06 	-0.000547665 	0.27159
0.00892977 	6.86705e-06 	-0.000546624 	0.27132
0.00892977 	6.86705e-06 	-0.000546624 	0.27132
0.00897993 	6.62696e-06 	-0.000545559 	0.271045
0.00897993 	6.62696e-06 	-0.000545559 	0.271045
0.0090301 	6.38213e-06 	-0.000544401 	0.270752
0.00908027 	6.13729e-06 	-0.000543244 	0.27046
0.00908027 	6.13729e-06 	-0.000543244 	0.27046
0.00913043 	5.89154e-06 	-0.000542059 	0.270161
0.0091806 	5.64273e-06 	-0.000540786 	0.269846
0.0091806 	5.64273e-06 	-0.000540786 	0.269846
0.00923077 	5.39392e-06 	-0.000539512 	0.269531
0.00928094 	5.14443e-06 	-0.000538202 	0.269208
0.00928094 	5.14443e-06 	-0.000538202 	0.269208
0.0093311 	4.89342e-06 	-0.000536812 	0.26887
0.00938127 	4.64241e-06 	-0.000535422 	0.268531
0.00938127 	4.64241e-06 	-0.000535422 	0.268531
0.00943144 	4.39114e-06 	-0.00053398 	0.268182
0.00943144 	4.39114e-06 	-0.00053398 	0.268182
0.00948161 	4.13951e-06 	-0.000532472 	0.267821
0.00948161 	4.13951e-06 	-0.000532472 	0.267821
0.00953177 	3.88789e-06 	-0.000530964 	0.267459
0.00953177 	3.88789e-06 	-0.000530964 	0.267459
0.00958194 	3.63673e-06 	-0.000529383 	0.267083
0.00958194 	3.63673e-06 	-0.000529383 	0.267083
0.00963211 	3.38587e-06 	-0.000527755 	0.266698
0.00968227 	3.13501e-06 	-0.000526128 	0.266313
0.00968227 	3.13501e-06 	-0.000526128 	0.266313
0.00973244 	2.88582e-06 	-0.000524398 	0.265907
0.00978261 	2.63692e-06 	-0.000522649 	0.265498
0.00978261 	2.63692e-06 	-0.000522649 	0.265498
0.00983278 	2.3884e-06 	-0.000520884 	0.265086
0.00983278 	2.3884e-06 	-0.000520884 	0.265086
0.00988294 	2.14251e-06 	-0.00051901 	0.264653
0.00993311 	1.89661e-06 	-0.000517135 	0.264219
0.00993311 	1.89661e-06 	-0.000517135 	0.264219
0.00998328 	1.65248e-06 	-0.000515203 	0.263774
0.0100334 	1.4105e-06 	-0.0005132 	0.263316
0.0100836 	1.16851e-06 	-0.000511196 	0.262857
0.0100836 	1.16851e-06 	-0.000511196 	0.262857
0.0101338 	9.30404e-07 	-0.000509083 	0.262378
0.0101839 	6.93122e-07 	-0.000506946 	0.261894
0.0101839 	6.93122e-07 	-0.000506946 	0.261894
0.0102341 	4.57156e-07 	-0.000504774 	0.261404
0.0102341 	4.57156e-07 	-0.000504774 	0.261404
0.0102843 	2.25278e-07 	-0.000502498 	0.260894
0.0103344 	-6.59921e-09 	-0.000500221 	0.260384
0.0103344 	-6.59921e-09 	-0.000500221 	0.260384
0.0103846 	-2.34211e-07 	-0.000497841 	0.259855
0.0103846 	-2.34211e-07 	-0.000497841 	0.259855
0.0104348 	-4.60066e-07 	-0.000495418 	0.259318
0.0104348 	-4.60066e-07 	-0.000495418 	0.259318
0.0104849 	-6.84491e-07 	-0.000492962 	0.258775
0.0104849 	-6.84491e-07 	-0.000492962 	0.258775
0.0105351 	-9.03777e-07 	-0.000490387 	0.25821
0.0105853 	-1.12306e-06 	-0.000487811 	0.257646
0.0105853 	-1.12306e-06 	-0.000487811 	0.257646
0.0106856 	-1.54916e-06 	-0.000482375 	0.256466
0.0106856 	-1.54916e-06 	-0.000482375 	0.256466
0.0107358 	-1.75866e-06 	-0.000479576 	0.255862
0.010786 	-1.96344e-06 	-0.000476671 	0.255239
0.010786 	-1.96344e-06 	-0.000476671 	0.255239
0.0108361 	-2.16817e-06 	-0.000473765 	0.254616
0.0108863 	-2.36514e-06 	-0.000470683 	0.253962
0.0108863 	-2.36514e-06 	-0.000470683 	0.253962
0.0109365 	-2.5621e-06 	-0.000467602 	0.253308
0.0109365 	-2.5621e-06 	-0.000467602 	0.253308
0.0109866 	-2.75348e-06 	-0.000464394 	0.252633
0.0110368 	-2.94232e-06 	-0.000461127 	0.251947
0.0110368 	-2.94232e-06 	-0.000461127 	0.251947
0.011087 	-3.1277e-06 	-0.000457781 	0.251248
0.011087 	-3.1277e-06 	-0.000457781 	0.251248
0.0111371 	-3.30808e-06 	-0.000454319 	0.250529
0.0111873 	-3.48696e-06 	-0.000450821 	0.249804
0.0111873 	-3.48696e-06 	-0.000450821 	0.249804
0.0112375 	-3.65849e-06 	-0.000447148 	0.24905
0.0112876 	-3.83003e-06 	-0.000443474 	0.248296
0.0112876 	-3.83003e-06 	-0.000443474 	0.248296
0.0113378 	-3.99261e-06 	-0.000439579 	0.247506
0.0113378 	-3.99261e-06 	-0.000439579 	0.247506
0.011388 	-4.15492e-06 	-0.000435677 	0.246716
0.0114381 	-4.30948e-06 	-0.000431568 	0.245894
0.0114381 	-4.30948e-06 	-0.000431568 	0.245894
0.0114883 	-4.46223e-06 	-0.000427411 	0.245064
0.0115385 	-4.60807e-06 	-0.000423051 	0.244204
0.0115385 	-4.60807e-06 	-0.000423051 	0.244204
0.0115886 	-4.75077e-06 	-0.000418599 	0.243331
0.0116388 	-4.88708e-06 	-0.000413943 	0.242429
0.0116388 	-4.88708e-06 	-0.000413943 	0.242429
0.011689 	-5.01917e-06 	-0.000409151 	0.241508
0.0117391 	-5.14528e-06 	-0.000404144 	0.240558
0.0117893 	-5.26656e-06 	-0.000398962 	0.239585
0.0118395 	-5.38214e-06 	-0.000393544 	0.23858
0.0118395 	-5.38214e-06 	-0.000393544 	0.23858
0.0118896 	-5.49291e-06 	-0.000387927 	0.23755
0.0119398 	-5.59799e-06 	-0.000382047 	0.236484
0.0119398 	-5.59799e-06 	-0.000382047 	0.236484
0.01199 	-5.6987e-06 	-0.000375965 	0.23539
0.0120401 	-5.79334e-06 	-0.000369585 	0.234255
0.0120401 	-5.79334e-06 	-0.000369585 	0.234255
0.0120903 	-5.88431e-06 	-0.000363025 	0.233095
0.0120903 	-5.88431e-06 	-0.000363025 	0.233095
0.0121906 	-6.04959e-06 	-0.000349074 	0.230651
0.0121906 	-6.04959e-06 	-0.000349074 	0.230651
0.0122408 	-6.1226e-06 	-0.00034162 	0.229355
0.012291 	-6.19406e-06 	-0.000334089 	0.228047
0.012291 	-6.19406e-06 	-0.000334089 	0.228047
0.0123411 	-6.25561e-06 	-0.000326074 	0.226657
0.0123913 	-6.31525e-06 	-0.000317968 	0.225251
0.0123913 	-6.31525e-06 	-0.000317968 	0.225251
0.0124415 	-6.36684e-06 	-0.000309478 	0.223775
0.0124415 	-6.36684e-06 	-0.000309478 	0.223775
0.0124916 	-6.41427e-06 	-0.000300795 	0.222261
0.0124916 	-6.41427e-06 	-0.000300795 	0.222261
0.0125418 	-6.45586e-06 	-0.000291844 	0.220694
0.012592 	-6.49073e-06 	-0.0002826 	0.219063
0.0126421 	-6.52229e-06 	-0.000273214 	0.2174
0.0126421 	-6.52229e-06 	-0.000273214 	0.2174
0.0126923 	-6.54428e-06 	-0.000263446 	0.21564
0.0127425 	-6.56308e-06 	-0.000253566 	0.213846
0.0127425 	-6.56308e-06 	-0.000253566 	0.213846
0.0127926 	-6.57455e-06 	-0.000243431 	0.211975
0.0128428 	-6.5798e-06 	-0.000233118 	0.210036
0.0128428 	-6.5798e-06 	-0.000233118 	0.210036
0.0129431 	-6.57245e-06 	-0.000212055 	0.205955
0.0129431 	-6.57245e-06 	-0.000212055 	0.205955
0.0129933 	-6.55961e-06 	-0.000201359 	0.203808
0.0130435 	-6.54052e-06 	-0.00019058 	0.201586
0.0130435 	-6.54052e-06 	-0.00019058 	0.201586
0.0131438 	-6.48045e-06 	-0.000168938 	0.196868
0.0131438 	-6.48045e-06 	-0.000168938 	0.196868
0.013194 	-6.44047e-06 	-0.000158145 	0.194382
0.0132441 	-6.39229e-06 	-0.000147448 	0.191785
0.0132441 	-6.39229e-06 	-0.000147448 	0.191785
0.0132943 	-6.3386e-06 	-0.000136841 	0.189113
0.0133445 	-6.27712e-06 	-0.000126386 	0.186332
0.0133445 	-6.27712e-06 	-0.000126386 	0.186332
0.0133946 	-6.2066e-06 	-0.000116174 	0.18342
0.0133946 	-6.2066e-06 	-0.000116174 	0.18342
0.0134448 	-6.12976e-06 	-0.000106158 	0.180413
0.0134448 	-6.12976e-06 	-0.000106158 	0.180413
0.013495 	-6.04599e-06 	-9.63704e-05 	0.177301
0.0135452 	-5.95088e-06 	-8.70125e-05 	0.174011
0.0135452 	-5.95088e-06 	-8.70125e-05 	0.174011
0.0135953 	-5.84831e-06 	-7.79631e-05 	0.170601
0.0135953 	-5.84831e-06 	-7.79631e-05 	0.170601
0.0136455 	-5.73785e-06 	-6.92491e-05 	0.167061
0.0136455 	-5.73785e-06 	-6.92491e-05 	0.167061
0.0136957 	-5.6176e-06 	-6.09685e-05 	0.163356
0.0136957 	-5.6176e-06 	-6.09685e-05 	0.163356
0.0137458 	-5.48584e-06 	-5.32324e-05 	0.159442
0.013796 	-5.34525e-06 	-4.59427e-05 	0.155356
0.013796 	-5.34525e-06 	-4.59427e-05 	0.155356
0.0138462 	-5.19558e-06 	-3.91296e-05 	0.151084
0.0138462 	-5.19558e-06 	-3.91296e-05 	0.151084
0.0138963 	-5.03659e-06 	-3.28236e-05 	0.146611
0.0139465 	-4.86511e-06 	-2.72147e-05 	0.141848
0.0139465 	-4.86511e-06 	-2.72147e-05 	0.141848
0.0139967 	-4.68384e-06 	-2.2161e-05 	0.136839
0.0139967 	-4.68384e-06 	-2.2161e-05 	0.136839
0.0140468 	-4.49287e-06 	-1.76615e-05 	0.131569
0.0140468 	-4.49287e-06 	-1.76615e-05 	0.131569
0.014097 	-4.29195e-06 	-1.37245e-05 	0.126018
0.0141472 	-4.08066e-06 	-1.03503e-05 	0.120161
0.0141472 	-4.08066e-06 	-1.03503e-05 	0.120161
0.0141973 	-3.85831e-06 	-7.52466e-06 	0.113973
0.0142475 	-3.62233e-06 	-5.29083e-06 	0.107353
0.0142977 	-3.37541e-06 	-3.51831e-06 	0.100319
0.0142977 	-3.37541e-06 	-3.51831e-06 	0.100319
0.0143478 	-3.12071e-06 	-2.16321e-06 	0.0928591
0.014398 	-2.86274e-06 	-1.1863e-06 	0.0849931
0.014398 	-2.86274e-06 	-1.1863e-06 	0.0849931
0.0144482 	-2.60663e-06 	-5.37995e-07 	0.0767789
0.0144983 	-2.35758e-06 	-1.57209e-07 	0.0683207
0.0144983 	-2.35758e-06 	-1.57209e-07 	0.0683207
0.0145485 	-2.12008e-06 	2.46243e-08 	0.0597688
0.0145485 	-2.12008e-06 	2.46243e-08 	0.0597688
0.0145987 	-1.89674e-06 	7.71565e-08 	0.0513035
0.0146488 	-1.68683e-06 	6.27712e-08 	0.043106
0.014699 	-1.48535e-06 	2.88014e-08 	0.0353248
0.014699 	-1.48535e-06 	2.88014e-08 	0.0353248
0.0147492 	-1.28193e-06 	3.91949e-09 	0.0280553
0.0147993 	-1.05728e-06 	-1.74365e-09 	0.0213424
0.0147993 	-1.05728e-06 	-1.74365e-09 	0.0213424
0.0148495 	-7.72614e-07 	1.10339e-08 	0.0151964
0.0148495 	-7.72614e-07 	1.10339e-08 	0.0151964
0.0148997 	-4.05128e-07 	2.14179e-08 	0.00960819
0.0148997 	-4.05128e-07 	2.14179e-08 	0.00960819
0.0149498 	-7.12599e-08 	1.96494e-08 	0.00455753
0.0149498 	-7.12599e-08 	1.96494e-08 	0.00455753
0.015 	0 	0 	0
0.015 	0 	0 	0
