/*--------------------------------*- C++ -*----------------------------------*\
| =========                 |                                                 |
| \\      /  F ield         | OpenFOAM: The Open Source CFD Toolbox           |
|  \\    /   O peration     | Version:  v1912                                 |
|   \\  /    A nd           | Website:  www.openfoam.com                      |
|    \\/     M anipulation  |                                                 |
\*---------------------------------------------------------------------------*/
FoamFile
{
    version     2.0;
    format      ascii;
    class       volScalarField;
    location    "198";
    object      k;
}
// * * * * * * * * * * * * * * * * * * * * * * * * * * * * * * * * * * * * * //

dimensions      [0 2 -2 0 0 0 0];


internalField   nonuniform List<scalar> 
40448
(
1.50045e-06
6.87453e-07
2.50836e-07
7.02564e-07
6.88149e-07
8.13455e-07
8.381e-07
8.71007e-07
8.68022e-07
8.6937e-07
8.34155e-07
8.08051e-07
6.8205e-07
6.97375e-07
2.48893e-07
6.82255e-07
4.52559e-07
3.01774e-07
4.1958e-07
4.49639e-07
4.46301e-07
4.64877e-07
4.71473e-07
4.81708e-07
4.8038e-07
4.8115e-07
4.70726e-07
4.64211e-07
4.45591e-07
4.49103e-07
4.20267e-07
3.01336e-07
1.74013e-06
1.31811e-06
2.60142e-06
2.38149e-06
2.37171e-06
2.37659e-06
2.3973e-06
2.43475e-06
2.4285e-06
2.43261e-06
2.39615e-06
2.37742e-06
2.37293e-06
2.38301e-06
2.60803e-06
1.32023e-06
6.45011e-06
4.40577e-06
8.94468e-06
8.19433e-06
8.15626e-06
8.15893e-06
8.22686e-06
8.35209e-06
8.33039e-06
8.34504e-06
8.22364e-06
8.16287e-06
8.16163e-06
8.20057e-06
8.96783e-06
4.41369e-06
1.76195e-05
1.07435e-05
2.18977e-05
2.02742e-05
2.01643e-05
2.01776e-05
2.03433e-05
2.06514e-05
2.05969e-05
2.06343e-05
2.03359e-05
2.0188e-05
2.01782e-05
2.02902e-05
2.19542e-05
1.07626e-05
3.95163e-05
2.15847e-05
4.36389e-05
4.1064e-05
4.08052e-05
4.08771e-05
4.12114e-05
4.18374e-05
4.1725e-05
4.18034e-05
4.11965e-05
4.08981e-05
4.08326e-05
4.10959e-05
4.37496e-05
2.16213e-05
7.75099e-05
3.80945e-05
7.53411e-05
7.26346e-05
7.20976e-05
7.23858e-05
7.29848e-05
7.41099e-05
7.39066e-05
7.40495e-05
7.29561e-05
7.2419e-05
7.21399e-05
7.26858e-05
7.55247e-05
3.81534e-05
0.000137292
6.09284e-05
0.000116081
0.000115774
0.000114752
0.000115643
0.000116629
0.000118481
0.000118147
0.000118383
0.000116575
0.000115682
0.0001148
0.000115839
0.000116347
6.10086e-05
0.000222764
8.96661e-05
0.000162372
0.000168975
0.000167172
0.000169348
0.000170858
0.000173685
0.000173181
0.000173537
0.000170758
0.000169374
0.000167202
0.000169034
0.000162714
8.97568e-05
0.000333501
0.000122631
0.000209242
0.000228508
0.000225567
0.00022992
0.000232081
0.000236116
0.000235406
0.000235907
0.000231914
0.000229905
0.000225545
0.000228533
0.000209643
0.000122712
0.000464669
0.000157386
0.000252142
0.000289824
0.000285369
0.000292845
0.000295757
0.000301193
0.000300248
0.000300914
0.0002955
0.000292759
0.000285258
0.000289782
0.000252584
0.000157436
0.000609882
0.00019169
0.000289157
0.00034915
0.000342841
0.000354266
0.000357988
0.000364947
0.00036375
0.000364595
0.000357626
0.000354084
0.000342608
0.000349013
0.000289628
0.000191696
0.000763703
0.000224884
0.000319299
0.000404619
0.000396257
0.000412014
0.000416541
0.000425042
0.000423586
0.000424618
0.00041607
0.000411728
0.000395893
0.000404378
0.000319789
0.000224833
0.00092242
0.000256337
0.000342202
0.000455289
0.000444628
0.000465389
0.000470773
0.000480946
0.00047921
0.000480445
0.000470179
0.00046498
0.000444112
0.000454926
0.000342701
0.000256221
0.00108499
0.000285702
0.000358111
0.000500209
0.000487071
0.000513373
0.000519643
0.000531579
0.000529549
0.000530999
0.000518917
0.000512828
0.00048639
0.000499708
0.000358613
0.000285516
0.00125256
0.000312873
0.000367706
0.000538867
0.000523168
0.000555383
0.000562532
0.000576268
0.000573935
0.000575608
0.000561671
0.000554693
0.000522315
0.000538221
0.000368205
0.000312615
0.00142493
0.00033792
0.000371927
0.000571161
0.000552915
0.000591255
0.000599246
0.000614764
0.000612128
0.000614028
0.000598251
0.000590419
0.000551889
0.000570366
0.000372421
0.000337591
0.00160032
0.000361007
0.000371843
0.000597306
0.00057662
0.000621166
0.000629934
0.00064717
0.000644237
0.000646363
0.000628814
0.000620187
0.000575423
0.000596362
0.000372327
0.000360611
0.00177648
0.000382321
0.000368531
0.000617774
0.000594831
0.000645566
0.000655024
0.00067388
0.000670661
0.000673008
0.000653789
0.00064445
0.000593468
0.000616683
0.000369002
0.000381861
0.0019512
0.000402014
0.000363004
0.000633258
0.000608288
0.00066515
0.000675196
0.000695559
0.000692064
0.00069463
0.000673859
0.000663906
0.000606762
0.000632024
0.00036346
0.000401495
0.0021195
0.000420164
0.000356154
0.000644659
0.000617901
0.000680842
0.000691363
0.000713097
0.000709342
0.000712122
0.000689941
0.00067948
0.000616215
0.000643283
0.000356593
0.000419593
0.00226903
0.000436769
0.000348723
0.000652614
0.000624498
0.000693237
0.000704184
0.000727234
0.00072323
0.000726224
0.000702684
0.000691769
0.00062266
0.000651107
0.000349143
0.000436153
0.00239397
0.000451782
0.000341291
0.000656648
0.000627947
0.000701665
0.000712858
0.000736863
0.000732692
0.000735845
0.000711316
0.000700118
0.000625987
0.000655046
0.000341691
0.000451127
0.00249314
0.00046516
0.000334282
0.000655489
0.000627497
0.000704081
0.000715268
0.000739775
0.00073552
0.000738761
0.000713732
0.000702511
0.000625491
0.000653865
0.00033466
0.000464473
0.0025669
0.000476884
0.000327978
0.000648261
0.000622197
0.000699443
0.00071039
0.000734991
0.000730714
0.000733995
0.000708908
0.000697906
0.00062023
0.000646688
0.000328334
0.00047617
0.0026165
0.000486976
0.000322542
0.000635021
0.000611866
0.000687842
0.000698354
0.000722683
0.000718448
0.000721717
0.000696965
0.000686388
0.000610014
0.000633564
0.000322876
0.000486238
0.00264298
0.000495577
0.000318039
0.000616412
0.000596936
0.000669997
0.000679909
0.000703643
0.000699503
0.000702722
0.000678647
0.000668665
0.00059526
0.000615125
0.00031835
0.00049482
0.0026474
0.000502671
0.000314458
0.000593349
0.000578155
0.000646907
0.000656088
0.000678933
0.000674934
0.00067807
0.000654979
0.000645735
0.000576705
0.000592276
0.000314747
0.000501903
0.0026309
0.000508275
0.000311735
0.000567032
0.000556397
0.000619684
0.000628029
0.000649722
0.000645909
0.000648926
0.000627096
0.0006187
0.000555213
0.000566201
0.000312002
0.000507506
0.00259479
0.000512457
0.000309758
0.000538916
0.000532746
0.000589758
0.000597189
0.000617427
0.000613849
0.000616707
0.000596445
0.000588982
0.000531843
0.000538335
0.000310001
0.000511696
0.00254048
0.000515336
0.000308404
0.000510191
0.000508352
0.000558695
0.000565183
0.000583735
0.000580434
0.000583096
0.000564632
0.000558133
0.000507727
0.000509866
0.000308624
0.000514594
0.00246946
0.000517101
0.000307562
0.000481734
0.000484089
0.000527636
0.000533209
0.000549979
0.000546981
0.000549425
0.000532847
0.000527289
0.000483738
0.00048166
0.000307759
0.000516382
0.00238349
0.000517938
0.000307117
0.000454317
0.000460632
0.000497475
0.000502186
0.000517117
0.000514442
0.000516647
0.000502007
0.000497336
0.00046054
0.000454483
0.00030729
0.000517246
0.00228646
0.00051803
0.000306964
0.000428575
0.000438529
0.000468999
0.000472938
0.000486029
0.00048369
0.000485643
0.000472926
0.000469053
0.000438676
0.000428959
0.000307113
0.000517364
0.00218293
0.000517495
0.000307013
0.000404981
0.000418188
0.000442831
0.000446122
0.00045744
0.00045544
0.000457135
0.000446256
0.000443055
0.000418549
0.000405556
0.000307138
0.000516852
0.00207602
0.000516438
0.000307189
0.000383849
0.000399886
0.000419395
0.000422191
0.000431871
0.000430204
0.000431641
0.000422444
0.00041976
0.000400429
0.000384582
0.000307289
0.000515814
0.00196906
0.000514946
0.000307432
0.000365348
0.000383787
0.000398918
0.000401378
0.000409609
0.000408258
0.000409446
0.000401723
0.000399391
0.000384483
0.000366205
0.000307506
0.000514337
0.00186519
0.00051308
0.000307681
0.000349522
0.000369988
0.000381445
0.000383719
0.000390713
0.000389653
0.000390606
0.000384127
0.000381994
0.000370809
0.000350472
0.00030773
0.00051248
0.00176449
0.000510866
0.000307904
0.000336348
0.000358562
0.000366897
0.000369108
0.000375065
0.000374268
0.000375005
0.000369556
0.000367496
0.000359491
0.000337363
0.000307926
0.000510271
0.00166627
0.000508359
0.000308066
0.000325798
0.000349667
0.00035515
0.000357389
0.000362452
0.000361893
0.000362428
0.000357863
0.000355782
0.000350677
0.000326859
0.000308061
0.000507763
0.00157126
0.000505598
0.00030814
0.000317971
0.000343258
0.000346298
0.000348649
0.000352809
0.000352505
0.000352822
0.000349144
0.000346959
0.000344307
0.000319054
0.000308106
0.000504998
0.00148002
0.000502613
0.000308106
0.000312656
0.000338928
0.000340303
0.000342858
0.000346182
0.000346139
0.000346229
0.000343361
0.000340975
0.000339977
0.000313733
0.000308044
0.000502006
0.00139295
0.000499425
0.000307955
0.000309334
0.000336195
0.000336704
0.000339548
0.000342225
0.000342418
0.000342298
0.000340041
0.000337366
0.00033721
0.000310374
0.000307864
0.000498807
0.00131039
0.000496045
0.000307683
0.000307518
0.000334634
0.000334951
0.000338144
0.000340377
0.00034077
0.000340467
0.000338611
0.000335583
0.000335588
0.000308497
0.000307562
0.000495415
0.00123261
0.000492482
0.000307286
0.000306769
0.000333867
0.000334518
0.000338098
0.000340072
0.000340629
0.000340169
0.000338528
0.000335102
0.000334742
0.000307669
0.000307136
0.000491839
0.00115979
0.000488735
0.000306762
0.00030671
0.000333577
0.000334942
0.000338931
0.0003408
0.000341489
0.000340897
0.000339315
0.000335468
0.00033436
0.000307521
0.000306584
0.000488078
0.00109203
0.000484796
0.000306111
0.000307027
0.000333503
0.000335837
0.000340243
0.000342134
0.000342926
0.000342223
0.000340576
0.000336297
0.000334187
0.000307742
0.000305905
0.000484126
0.00102937
0.000480651
0.000305327
0.000307468
0.000333435
0.000336894
0.000341716
0.000343726
0.000344598
0.000343804
0.000341995
0.000337282
0.000334018
0.000308085
0.000305094
0.000479969
0.000971726
0.000476281
0.000304405
0.000307834
0.000333211
0.000337874
0.000343106
0.000345305
0.000346239
0.000345368
0.000343329
0.000338188
0.000333693
0.000308354
0.000304147
0.00047559
0.000919072
0.00047167
0.000303336
0.000307974
0.000332707
0.000338598
0.000344227
0.000346664
0.000347645
0.000346708
0.000344393
0.000338838
0.00033309
0.0003084
0.000303055
0.000470973
0.000871258
0.000466804
0.000302106
0.000307776
0.000331834
0.000338932
0.000344938
0.000347641
0.000348658
0.000347666
0.000345048
0.000339099
0.000332122
0.000308112
0.000301803
0.000466104
0.000828017
0.000461676
0.000300699
0.000307162
0.000330529
0.000338781
0.00034514
0.000348124
0.000349168
0.000348128
0.000345197
0.000338877
0.000330727
0.000307413
0.000300376
0.000460975
0.000788996
0.00045629
0.000299098
0.000306085
0.000328755
0.000338082
0.000344767
0.000348034
0.000349098
0.000348017
0.000344772
0.00033811
0.000328869
0.000306256
0.000298756
0.000455591
0.000753807
0.000450671
0.000297286
0.000304521
0.000326494
0.0003368
0.00034378
0.000347321
0.000348401
0.000347284
0.000343737
0.000336764
0.00032653
0.000304619
0.000296928
0.000449975
0.000722071
0.000444838
0.00029525
0.000302466
0.000323745
0.00033492
0.000342164
0.000345965
0.000347056
0.000345907
0.000342076
0.000334826
0.000323711
0.000302498
0.000294879
0.000444147
0.000693246
0.000438799
0.000292985
0.000299935
0.000320523
0.000332449
0.000339922
0.000343961
0.00034506
0.000343884
0.000339791
0.0003323
0.000320424
0.000299907
0.000292603
0.000438116
0.00066674
0.000432555
0.000290495
0.000296951
0.000316848
0.000329402
0.000337067
0.00034132
0.000342424
0.000341225
0.000336899
0.000329204
0.000316692
0.00029687
0.000290104
0.00043188
0.000642212
0.00042611
0.000287791
0.000293552
0.000312752
0.000325808
0.000333627
0.000338065
0.00033917
0.000337952
0.000333425
0.000325566
0.000312547
0.000293424
0.000287395
0.000425445
0.000619488
0.000419468
0.000284895
0.000289781
0.000308275
0.000321705
0.000329638
0.000334228
0.000335333
0.0003341
0.000329406
0.000321426
0.000308027
0.000289614
0.000284496
0.000418814
0.000598432
0.000412634
0.00028183
0.000285692
0.000303464
0.000317142
0.000325145
0.000329852
0.000330954
0.000329711
0.000324887
0.00031683
0.000303181
0.000285491
0.000281431
0.000411994
0.000578883
0.000405616
0.000278623
0.000281341
0.00029837
0.000312171
0.000320199
0.000324987
0.000326082
0.000324835
0.000319919
0.000311832
0.000298059
0.000281113
0.000278226
0.000404991
0.00056055
0.000398422
0.000275301
0.000276788
0.000293053
0.000306853
0.000314859
0.000319689
0.000320775
0.000319527
0.000314561
0.000306493
0.00029272
0.00027654
0.000274911
0.000397814
0.000543139
0.000391063
0.000271896
0.000272098
0.000287572
0.000301253
0.000309187
0.00031402
0.000315092
0.000313851
0.000308876
0.000300878
0.000287224
0.000271837
0.000271515
0.000390474
0.000526475
0.000383557
0.000268439
0.000267336
0.000281992
0.00029544
0.00030325
0.000308045
0.000309099
0.000307871
0.00030293
0.000295054
0.000281636
0.000267067
0.000268071
0.000382988
0.000510429
0.000375924
0.000264964
0.000262568
0.000276382
0.000289485
0.000297119
0.000301836
0.000302867
0.000301659
0.000296795
0.000289095
0.000276023
0.000262298
0.000264612
0.000375377
0.000494901
0.000368188
0.000261506
0.000257865
0.00027081
0.000283464
0.000290869
0.000295467
0.00029647
0.000295289
0.000290545
0.000283077
0.000270456
0.000257599
0.000261174
0.000367665
0.000479813
0.000360378
0.000258102
0.000253293
0.000265351
0.000277458
0.000284578
0.000289017
0.000289985
0.000288841
0.000284259
0.000277077
0.000265006
0.000253038
0.000257792
0.000359881
0.000465105
0.000352526
0.000254791
0.000248925
0.00026008
0.000271548
0.000278331
0.000282568
0.000283496
0.000282396
0.00027802
0.00027118
0.00025975
0.000248684
0.000254507
0.000352056
0.000450736
0.000344671
0.000251616
0.000244827
0.000255073
0.00026582
0.000272212
0.00027621
0.000277091
0.000276043
0.000271913
0.000265469
0.000254763
0.000244607
0.00025136
0.000344229
0.00043668
0.000336853
0.00024862
0.000241071
0.000250407
0.00026036
0.000266311
0.000270032
0.000270859
0.000269874
0.000266029
0.000260031
0.000250123
0.000240875
0.000248396
0.000336442
0.000422922
0.000329123
0.00024585
0.000237721
0.00024616
0.000255258
0.000260721
0.000264131
0.000264897
0.000263983
0.000260459
0.000254956
0.000245904
0.000237554
0.00024566
0.000328743
0.000409461
0.000321532
0.000243355
0.000234844
0.000242407
0.000250603
0.000255534
0.000258601
0.0002593
0.000258465
0.000255296
0.000250331
0.000242184
0.000234709
0.000243201
0.000321186
0.000396305
0.000314139
0.000241189
0.000232502
0.000239222
0.000246481
0.000250844
0.00025354
0.000254166
0.000253418
0.000250632
0.000246243
0.000239035
0.000232402
0.000241073
0.000313828
0.000383479
0.000307011
0.000239406
0.000230758
0.000236679
0.00024298
0.000246743
0.000249043
0.000249591
0.000248937
0.00024656
0.000242779
0.000236529
0.000230695
0.00023933
0.000306736
0.000371033
0.000300216
0.000238066
0.000229671
0.000234847
0.000240184
0.000243323
0.000245208
0.000245672
0.000245118
0.000243171
0.000240021
0.000234737
0.000229647
0.000238031
0.000299979
0.000359054
0.000293834
0.000237231
0.000229301
0.000233795
0.000238173
0.000240672
0.000242128
0.000242505
0.000242055
0.000240552
0.00023805
0.000233725
0.000229316
0.000237239
0.000293636
0.000347631
0.000287945
0.00023697
0.000229702
0.000233587
0.000237025
0.000238877
0.000239893
0.000240181
0.000239839
0.00023879
0.000236943
0.000233559
0.000229758
0.000237021
0.000287788
0.000336839
0.000282641
0.000237351
0.000230932
0.000234287
0.000236813
0.000238019
0.000238592
0.00023879
0.000238557
0.000237966
0.000236773
0.0002343
0.000231029
0.000237445
0.000282525
0.000326755
0.000278018
0.000238448
0.000233045
0.000235952
0.000237609
0.000238175
0.000238307
0.000238415
0.000238291
0.000238156
0.000237609
0.000236006
0.000233182
0.000238586
0.000277945
1.65354e-06
1.03383e-06
6.68398e-07
6.68723e-07
6.96833e-07
7.11187e-07
7.1802e-07
7.23298e-07
7.24126e-07
7.2416e-07
7.19967e-07
7.13843e-07
6.9963e-07
6.71154e-07
6.70581e-07
1.03565e-06
2.01024e-06
5.34201e-07
4.74394e-07
5.97802e-07
6.03032e-07
6.49644e-07
6.64587e-07
6.82247e-07
6.81438e-07
6.8229e-07
6.64447e-07
6.49784e-07
6.02787e-07
5.97656e-07
4.75476e-07
5.34079e-07
1.17131e-05
2.57166e-06
2.58118e-06
3.4065e-06
3.40694e-06
3.7035e-06
3.79516e-06
3.90726e-06
3.90069e-06
3.90667e-06
3.79223e-06
3.70174e-06
3.40245e-06
3.40305e-06
2.58636e-06
2.56913e-06
3.89394e-05
8.60908e-06
8.85716e-06
1.1661e-05
1.16342e-05
1.26357e-05
1.29409e-05
1.33179e-05
1.32943e-05
1.33156e-05
1.29303e-05
1.26289e-05
1.16181e-05
1.16486e-05
8.87465e-06
8.60049e-06
9.18773e-05
2.07702e-05
2.17277e-05
2.84689e-05
2.83496e-05
3.07495e-05
3.14722e-05
3.23716e-05
3.23128e-05
3.23657e-05
3.14454e-05
3.07318e-05
2.83094e-05
2.84377e-05
2.177e-05
2.07502e-05
0.000174676
4.0932e-05
4.33478e-05
5.64996e-05
5.61742e-05
6.08395e-05
6.22305e-05
6.39701e-05
6.38524e-05
6.39573e-05
6.21755e-05
6.08018e-05
5.60927e-05
5.64361e-05
4.34302e-05
4.08944e-05
0.000283482
7.02387e-05
7.5007e-05
9.71743e-05
9.64789e-05
0.00010429
0.000106598
0.000109491
0.00010929
0.000109467
0.0001065
0.000104221
9.63356e-05
9.70626e-05
7.51444e-05
7.01777e-05
0.000406536
0.000108442
0.000116405
0.00014972
0.000148439
0.000160039
0.000163432
0.000167689
0.000167387
0.00016765
0.000163277
0.000159924
0.000148215
0.000149545
0.000116607
0.000108354
0.000530776
0.000153551
0.000165305
0.00021093
0.000208808
0.000224426
0.000228941
0.000234607
0.000234197
0.000234549
0.000228719
0.000224257
0.000208488
0.000210681
0.000165575
0.000153434
0.000647812
0.00020236
0.000218168
0.000276316
0.000273087
0.000292588
0.000298145
0.000305124
0.000304609
0.000305045
0.000297851
0.000292356
0.000272664
0.000275988
0.0002185
0.000202214
0.000754534
0.000251586
0.000271408
0.000341816
0.000337225
0.000360312
0.000366781
0.000374918
0.000374304
0.000374817
0.000366411
0.000360012
0.000336696
0.000341406
0.000271793
0.000251413
0.000850946
0.000298744
0.000322287
0.000404723
0.000398537
0.00042493
0.000432181
0.000441332
0.000440624
0.000441208
0.000431735
0.000424558
0.000397899
0.00040423
0.000322715
0.000298544
0.000938239
0.000342331
0.000369108
0.000463639
0.000455645
0.000485163
0.000493094
0.000503149
0.000502352
0.000503001
0.000492569
0.000484714
0.000454893
0.000463058
0.000369569
0.000342102
0.00101781
0.00038162
0.000410999
0.000518
0.000508007
0.000540586
0.000549126
0.000560019
0.000559133
0.000559845
0.000548518
0.000540053
0.000507134
0.000517325
0.000411485
0.000381361
0.00109087
0.000416393
0.000447672
0.000567597
0.000555437
0.000591137
0.000600249
0.000611956
0.00061098
0.000611754
0.000599552
0.00059051
0.000554433
0.00056682
0.000448175
0.0004161
0.00115833
0.000446784
0.000479304
0.000612368
0.000597899
0.000636844
0.000646511
0.000659035
0.000657966
0.000658802
0.000645719
0.000636113
0.000596753
0.000611479
0.00047982
0.000446462
0.0012208
0.000473044
0.000506072
0.000652292
0.000635403
0.000677748
0.000687964
0.000701321
0.000700156
0.000701054
0.000687069
0.000676901
0.000634104
0.000651283
0.000506595
0.000472693
0.00127859
0.000495294
0.000528092
0.000687375
0.000668006
0.000713876
0.000724642
0.000738852
0.00073759
0.000738548
0.000723636
0.000712901
0.000666547
0.000686239
0.000528618
0.000494912
0.00133181
0.000513679
0.000545576
0.000717687
0.000695845
0.000745277
0.000756586
0.000771652
0.000770292
0.000771309
0.000755465
0.000744167
0.000694223
0.000716422
0.000546101
0.000513269
0.00138037
0.000528394
0.00055884
0.000743382
0.000718985
0.000772064
0.000783888
0.00079978
0.000798323
0.000799396
0.000782651
0.000770817
0.000717189
0.000741976
0.000559361
0.000527961
0.00142401
0.000539678
0.000568286
0.00076433
0.000737353
0.000794261
0.000806621
0.000823392
0.000821844
0.000822968
0.000805259
0.000792863
0.000735375
0.000762774
0.000568801
0.000539227
0.00146243
0.000547803
0.000574376
0.000780492
0.000750987
0.000811762
0.000824651
0.000842337
0.000840696
0.00084187
0.000823159
0.000810203
0.000748826
0.000778783
0.000574883
0.000547342
0.00149523
0.000553069
0.000577598
0.000791954
0.000760048
0.00082455
0.000837926
0.000856514
0.000854779
0.000856002
0.000836306
0.000822829
0.000757712
0.000790096
0.000578095
0.000552607
0.00152203
0.000555771
0.000578454
0.000798933
0.000764804
0.000832754
0.000846542
0.000865975
0.000864148
0.000865419
0.000844801
0.000830875
0.000762307
0.000796935
0.000578941
0.000555319
0.00154248
0.00055623
0.000577427
0.000801765
0.000765618
0.000836646
0.000850755
0.000870945
0.000869029
0.000870347
0.000848904
0.000834619
0.000762974
0.000799638
0.000577904
0.000555795
0.0015563
0.000554726
0.000574961
0.000800897
0.000762937
0.000836643
0.000850973
0.000871814
0.000869813
0.000871178
0.000849024
0.000834477
0.000760163
0.000798653
0.000575427
0.000554317
0.00156337
0.000551519
0.000571452
0.000796861
0.00075728
0.000833263
0.000847718
0.000869098
0.000867017
0.000868429
0.000845682
0.000830971
0.000754392
0.000794513
0.000571908
0.000551144
0.00156367
0.000546849
0.00056724
0.000790089
0.000749118
0.000826841
0.000841302
0.000863099
0.000860944
0.0008624
0.000839198
0.00082444
0.000746137
0.000787653
0.000567685
0.000546517
0.0015573
0.000540941
0.000562604
0.000780596
0.000738613
0.000817041
0.000831298
0.000853287
0.000851075
0.000852562
0.00082916
0.000814572
0.000735572
0.000778107
0.000563039
0.000540658
0.00154451
0.000534001
0.000557759
0.000768155
0.000725658
0.000803254
0.000816999
0.000838821
0.000836581
0.00083808
0.000814878
0.000800776
0.000722613
0.000765664
0.000558184
0.000533773
0.00152567
0.000526223
0.000552857
0.00075269
0.000710198
0.000785211
0.0007981
0.000819326
0.000817092
0.000818582
0.00079605
0.000782789
0.000707214
0.000750254
0.000553272
0.000526053
0.00150119
0.000517786
0.000548
0.000734397
0.00069238
0.000763085
0.000774786
0.000794982
0.000792787
0.000794248
0.000772855
0.000760782
0.00068952
0.00073207
0.000548405
0.000517676
0.00147114
0.000508853
0.000543245
0.000713684
0.000672537
0.00073737
0.000747585
0.000766346
0.000764223
0.000765636
0.000745818
0.00073524
0.000669862
0.000711518
0.000543641
0.000508804
0.00143523
0.000499566
0.000538619
0.000691087
0.000651125
0.000708831
0.000717384
0.000734372
0.000732358
0.000733702
0.00071581
0.000706917
0.000648685
0.000689123
0.000539005
0.000499577
0.00139322
0.000490051
0.000534122
0.0006672
0.000628681
0.000678639
0.000685476
0.000700484
0.000698608
0.000699867
0.00068411
0.000676962
0.00062651
0.000665469
0.000534498
0.000490118
0.00134571
0.000480413
0.000529734
0.000642766
0.000605857
0.000647908
0.000653014
0.000665937
0.000664213
0.000665379
0.00065186
0.000646477
0.000603969
0.000641276
0.000530099
0.000480531
0.00129369
0.000470741
0.00052542
0.000618491
0.000583261
0.000617402
0.000620806
0.000631599
0.000630037
0.000631105
0.000619864
0.000616218
0.000581657
0.000617239
0.000525772
0.000470906
0.00123829
0.000461109
0.00052113
0.000594866
0.000561344
0.000587806
0.000589585
0.000598266
0.000596873
0.000597839
0.000588846
0.000586861
0.000560019
0.000593845
0.000521469
0.000461314
0.00118066
0.000451569
0.000516807
0.000572296
0.00054048
0.000559682
0.00055996
0.000566611
0.000565385
0.00056625
0.00055941
0.000558961
0.000539418
0.000571494
0.000517131
0.000451806
0.00112163
0.000442148
0.000512383
0.000551085
0.000520948
0.000533468
0.000532408
0.000537168
0.000536102
0.00053687
0.000532026
0.000532949
0.000520128
0.000550483
0.000512691
0.00044241
0.00106183
0.000432844
0.000507786
0.000531427
0.000502925
0.000509457
0.000507255
0.000510314
0.000509401
0.000510074
0.00050702
0.000509115
0.000502324
0.000531006
0.000508077
0.000433126
0.00100178
0.000423641
0.000502935
0.00051341
0.000486495
0.000487808
0.000484676
0.000486257
0.000485487
0.000486069
0.000484561
0.000487614
0.000486086
0.000513145
0.000503207
0.000423937
0.000941925
0.000414529
0.000497749
0.000497029
0.000471652
0.000468542
0.000464691
0.000465035
0.000464396
0.000464892
0.000464671
0.000468466
0.00047141
0.000496898
0.000498002
0.000414835
0.000882631
0.000405517
0.000492154
0.000482204
0.000458343
0.000451564
0.000447196
0.000446546
0.000446022
0.000446441
0.000447248
0.000451579
0.000458244
0.000482184
0.000492387
0.000405827
0.000824245
0.000396617
0.000486088
0.000468808
0.000446454
0.000436704
0.000432001
0.000430584
0.000430159
0.00043051
0.000432102
0.000436783
0.000446471
0.000468878
0.000486301
0.000396927
0.00076712
0.000387841
0.000479504
0.000456691
0.000435802
0.000423746
0.000418862
0.000416869
0.000416529
0.000416819
0.000418993
0.000423868
0.000435899
0.000456832
0.000479695
0.000388146
0.000711635
0.000379201
0.000472367
0.000445667
0.000426169
0.000412497
0.00040753
0.000405046
0.000404789
0.000405017
0.000407678
0.000412645
0.000426315
0.000445856
0.000472537
0.000379497
0.000658204
0.000370714
0.000464664
0.000435531
0.000417352
0.000402728
0.000397739
0.000394846
0.000394669
0.000394832
0.000397893
0.000402889
0.000417519
0.000435743
0.000464813
0.000370997
0.000607252
0.000362394
0.000456399
0.000426105
0.000409166
0.000394107
0.00038917
0.000386003
0.000385897
0.000386
0.000389319
0.000394266
0.000409334
0.000426321
0.000456526
0.000362661
0.000559197
0.000354249
0.000447598
0.000417246
0.00040145
0.000386311
0.000381495
0.000378189
0.000378138
0.00037819
0.000381629
0.000386455
0.000401601
0.000417452
0.000447704
0.000354498
0.00051442
0.000346286
0.000438316
0.000408836
0.000394036
0.000379085
0.000374439
0.000371104
0.000371094
0.000371104
0.000374551
0.000379205
0.000394162
0.000409019
0.000438402
0.000346515
0.000473239
0.000338508
0.000428666
0.000400739
0.000386772
0.000372223
0.000367781
0.0003645
0.00036452
0.000364496
0.000367866
0.000372312
0.000386867
0.000400896
0.000428733
0.000338715
0.000435889
0.000330914
0.000418784
0.000392812
0.000379555
0.000365567
0.00036135
0.000358184
0.000358224
0.000358173
0.000361404
0.000365621
0.000379615
0.00039294
0.000418833
0.000331099
0.000402513
0.000323504
0.000408817
0.000384957
0.000372329
0.000359003
0.000355017
0.000352009
0.000352062
0.000351989
0.00035504
0.00035902
0.000372352
0.000385054
0.000408848
0.000323666
0.000373154
0.000316277
0.000398911
0.000377131
0.000365065
0.000352454
0.000348699
0.000345874
0.000345935
0.000345844
0.00034869
0.000352434
0.00036505
0.000377197
0.000398927
0.000316416
0.00034771
0.000309233
0.000389169
0.00036931
0.000357749
0.000345872
0.000342339
0.00033971
0.000339775
0.00033967
0.0003423
0.000345815
0.000357698
0.000369344
0.000389171
0.00030935
0.000325885
0.000302371
0.000379599
0.000361462
0.000350363
0.000339212
0.000335889
0.000333461
0.000333525
0.00033341
0.000335821
0.000339121
0.000350277
0.000361467
0.000379588
0.000302466
0.000307337
0.000295695
0.000370122
0.000353575
0.0003429
0.000332452
0.000329323
0.000327096
0.000327156
0.000327034
0.00032923
0.00033233
0.000342783
0.000353553
0.000370101
0.000295769
0.000291702
0.000289217
0.000360701
0.000345649
0.000335369
0.000325588
0.000322638
0.000320604
0.000320659
0.000320533
0.000322522
0.000325439
0.000335224
0.000345603
0.00036067
0.000289272
0.000278604
0.000282953
0.000351365
0.000337699
0.000327788
0.000318632
0.000315844
0.000313995
0.000314043
0.000313915
0.000315709
0.00031846
0.00032762
0.000337632
0.000351325
0.00028299
0.000267678
0.000276925
0.000342146
0.000329748
0.000320187
0.00031161
0.000308969
0.000307293
0.000307333
0.000307207
0.000308818
0.000311419
0.000320001
0.000329664
0.000342099
0.000276945
0.000258583
0.000271157
0.000333079
0.00032183
0.000312603
0.000304557
0.000302051
0.000300536
0.000300568
0.000300444
0.000301888
0.000304352
0.000312402
0.000321732
0.000333027
0.000271162
0.000251032
0.000265679
0.000324205
0.000313985
0.000305078
0.000297522
0.000295138
0.000293773
0.000293796
0.000293677
0.000294967
0.000297306
0.000304868
0.000313876
0.000324148
0.000265672
0.000244837
0.000260524
0.000315564
0.000306261
0.000297664
0.000290556
0.000288287
0.00028706
0.000287076
0.000286962
0.000288111
0.000290335
0.000297448
0.000306144
0.000315503
0.000260505
0.00023993
0.000255727
0.000307202
0.000298707
0.000290413
0.000283719
0.00028156
0.000280461
0.00028047
0.000280363
0.000281382
0.000283498
0.000290196
0.000298586
0.000307139
0.000255699
0.000236193
0.000251326
0.000299168
0.000291379
0.000283384
0.000277076
0.000275023
0.000274045
0.000274047
0.000273948
0.000274848
0.000276857
0.00028317
0.000291258
0.000299103
0.00025129
0.000233464
0.000247361
0.000291516
0.000284336
0.000276638
0.000270693
0.000268747
0.000267882
0.000267881
0.000267788
0.000268577
0.000270481
0.00027643
0.000284216
0.00029145
0.000247318
0.000231621
0.000243872
0.0002843
0.000277639
0.000270238
0.000264641
0.000262803
0.000262047
0.000262043
0.000261958
0.000262642
0.000264439
0.00027004
0.000277522
0.000284235
0.000243822
0.000230574
0.000240897
0.000277578
0.00027135
0.000264248
0.000258989
0.000257266
0.000256614
0.00025661
0.000256531
0.000257116
0.000258801
0.000264063
0.00027124
0.000277514
0.000240842
0.000230256
0.000238476
0.000271408
0.000265535
0.000258736
0.000253811
0.000252209
0.000251659
0.000251658
0.000251584
0.000252073
0.000253639
0.000258566
0.000265433
0.000271345
0.000238417
0.000230621
0.000236647
0.000265845
0.000260259
0.000253769
0.000249177
0.000247705
0.000247256
0.000247259
0.000247189
0.000247585
0.000249024
0.000253617
0.000260166
0.000265784
0.000236583
0.000231633
0.000235445
0.000260947
0.000255586
0.000249414
0.000245159
0.000243826
0.000243478
0.000243489
0.000243421
0.000243723
0.000245027
0.000249282
0.000255505
0.000260889
0.000235377
0.000233271
0.000234903
0.000256771
0.000251583
0.000245738
0.000241825
0.000240643
0.000240397
0.000240417
0.000240351
0.000240559
0.000241716
0.000245627
0.000251513
0.000256715
0.000234832
0.00023552
0.000235054
0.000253373
0.000248313
0.000242805
0.000239244
0.000238222
0.000238079
0.000238111
0.000238044
0.000238158
0.000239159
0.000242716
0.000248256
0.00025332
0.00023498
0.000238375
0.000235928
0.000250807
0.00024584
0.000240679
0.00023748
0.000236628
0.00023659