-0.0075 	373
-0.00715932 	361.466
-0.00676191 	359.669
-0.00629832 	358.946
-0.00575752 	358.497
-0.00512667 	358.142
-0.00439077 	357.822
-0.00353231 	357.51
-0.00253089 	357.188
-0.00136271 	356.839
0 	356.452
0.00136271 	356.028
0.00253089 	355.583
0.00353231 	355.124
0.00439077 	354.637
0.00512667 	354.082
0.00575752 	353.378
0.00629832 	352.336
0.00676191 	350.091
0.00715932 	338.733
0.0075 	313
