-0.0075 	373
-0.00715932 	361.445
-0.00676191 	359.644
-0.00629832 	358.919
-0.00575752 	358.47
-0.00512667 	358.114
-0.00439077 	357.794
-0.00353231 	357.482
-0.00253089 	357.16
-0.00136271 	356.811
0 	356.424
0.00136271 	356
0.00253089 	355.555
0.00353231 	355.096
0.00439077 	354.609
0.00512667 	354.055
0.00575752 	353.351
0.00629832 	352.309
0.00676191 	350.065
0.00715932 	338.714
0.0075 	313
