/*--------------------------------*- C++ -*----------------------------------*\
| =========                 |                                                 |
| \\      /  F ield         | OpenFOAM: The Open Source CFD Toolbox           |
|  \\    /   O peration     | Version:  v1906                                 |
|   \\  /    A nd           | Web:      www.OpenFOAM.com                      |
|    \\/     M anipulation  |                                                 |
\*---------------------------------------------------------------------------*/
FoamFile
{
    version     2.0;
    format      ascii;
    class       volScalarField;
    location    "39.6";
    object      alphat;
}
// * * * * * * * * * * * * * * * * * * * * * * * * * * * * * * * * * * * * * //

dimensions      [1 -1 -1 0 0 0 0];


internalField   nonuniform List<scalar> 
2000
(
3.29357e-06
2.13344e-05
4.87832e-05
6.3758e-05
6.58471e-05
6.66678e-05
6.58464e-05
6.37622e-05
4.87973e-05
2.13564e-05
1.136e-05
0.000436129
0.000686328
0.000792796
0.000811446
0.000817975
0.000811429
0.000792799
0.000686389
0.000436298
8.2824e-05
0.00188883
0.00209101
0.00222641
0.00225701
0.00227078
0.00225698
0.00222637
0.00209107
0.00188898
0.000695502
0.00334358
0.00364323
0.00385879
0.00390948
0.00393195
0.00390942
0.00385871
0.00364339
0.00334379
0.00244806
0.00506207
0.00543324
0.00566202
0.0057323
0.00576443
0.0057322
0.0056619
0.00543348
0.00506243
0.00480808
0.00727906
0.00764242
0.00770015
0.00778081
0.00782024
0.00778064
0.00769992
0.00764254
0.0072794
0.0078262
0.0104722
0.00947482
0.00946308
0.00957769
0.00963151
0.0095774
0.00946257
0.00947456
0.0104723
0.0115728
0.0140042
0.0113834
0.0110521
0.011147
0.0112027
0.0111466
0.0110515
0.0113827
0.0140033
0.0162682
0.0167536
0.0136109
0.0131428
0.0132624
0.0133124
0.0132621
0.0131423
0.0136102
0.0167526
0.0210488
0.0188478
0.0165627
0.0165565
0.0167607
0.0167999
0.0167609
0.0165568
0.0165629
0.018847
1.39028e-05
6.62354e-05
9.75431e-05
0.000111094
0.000118438
0.000120852
0.000118443
0.000111104
9.75691e-05
6.62631e-05
5.75469e-05
0.000825034
0.000985329
0.00106247
0.00111543
0.00113024
0.00111545
0.00106252
0.000985462
0.000825199
0.000605776
0.00302001
0.00306653
0.00315303
0.00324245
0.00326963
0.00324251
0.00315312
0.00306664
0.00302007
0.00244625
0.00505155
0.00533228
0.00553066
0.00565657
0.00570134
0.00565667
0.00553084
0.00533249
0.00505177
0.00437435
0.00687639
0.00773637
0.00805344
0.00821657
0.0082792
0.00821674
0.00805372
0.0077368
0.00687692
0.00634692
0.00889755
0.0105127
0.0108662
0.0110574
0.0111323
0.0110577
0.0108666
0.0105133
0.00889836
0.00825611
0.0114232
0.0137112
0.0141001
0.0143258
0.0144051
0.0143261
0.0141006
0.013712
0.0114242
0.0101942
0.0143874
0.0172925
0.0176348
0.0179126
0.0179769
0.0179131
0.0176357
0.0172937
0.0143885
0.0127154
0.0162371
0.0194759
0.0200395
0.02031
0.0203651
0.0203106
0.0200405
0.0194767
0.0162379
0.013018
0.0166737
0.0192981
0.0197027
0.0198863
0.0199272
0.0198868
0.0197035
0.0192984
0.0166742
1.08329e-05
7.4438e-05
9.46195e-05
0.000100107
0.000103537
0.000104184
0.000103538
0.000100112
9.46328e-05
7.44711e-05
0.000258219
0.000778193
0.000837206
0.00084605
0.000857522
0.000858924
0.000857515
0.000846049
0.000837254
0.000778352
0.00229804
0.00282667
0.00256038
0.00255472
0.00257892
0.00258518
0.00257891
0.00255469
0.00256039
0.00282662
0.00515174
0.00506252
0.00445076
0.00444868
0.00449466
0.00451004
0.00449463
0.00444862
0.00445072
0.00506239
0.00748284
0.00690906
0.00621708
0.00622639
0.00629738
0.00632514
0.00629732
0.00622625
0.00621703
0.00690904
0.00953238
0.00877523
0.00803775
0.00798912
0.00807369
0.00811464
0.00807354
0.00798884
0.00803764
0.0087753
0.0116096
0.0112366
0.00979053
0.00967992
0.00975095
0.00980165
0.00975063
0.00967932
0.00979004
0.0112367
0.0140482
0.0145899
0.0115004
0.0110565
0.0111348
0.0111926
0.0111344
0.0110557
0.0114995
0.0145901
0.017387
0.0171155
0.0136479
0.0130698
0.0131672
0.0132238
0.0131669
0.0130693
0.0136472
0.0171144
0.021038
0.0188618
0.0164175
0.0163102
0.016523
0.0165774
0.0165231
0.0163105
0.0164176
0.0188611
5.53908e-05
9.01133e-05
0.000104405
0.000114897
0.000122701
0.00012513
0.000122704
0.000114905
0.000104423
9.01428e-05
0.000705523
0.000921835
0.000986646
0.00104666
0.00109456
0.00110881
0.00109456
0.0010467
0.000986735
0.000921998
0.00331313
0.00336266
0.00316143
0.00320016
0.00328402
0.00330781
0.00328405
0.00320024
0.00316147
0.00336274
0.00650206
0.00623797
0.00586707
0.00588816
0.00600941
0.00604823
0.00600951
0.00588833
0.00586706
0.00623792
0.00921325
0.00878345
0.00851212
0.00858702
0.00874748
0.00880536
0.00874766
0.00858731
0.00851221
0.00878353
0.0108482
0.0106334
0.0111022
0.0112954
0.0114983
0.0115733
0.0114985
0.0112958
0.0111026
0.0106339
0.0118686
0.0124932
0.0139847
0.0143938
0.0146445
0.0147334
0.0146448
0.0143943
0.0139854
0.0124942
0.0126422
0.0148199
0.0174679
0.0180509
0.0182494
0.0183131
0.0182499
0.0180517
0.017469
0.0148213
0.0129924
0.0166096
0.0197638
0.0203352
0.020536
0.0205883
0.0205367
0.0203362
0.0197646
0.0166108
0.0122175
0.0167215
0.0193328
0.0197813
0.0199249
0.019956
0.0199255
0.0197821
0.0193331
0.0167223
3.08039e-05
8.39982e-05
9.89989e-05
0.000101025
0.000102888
0.000102819
0.000102887
0.000101026
9.90055e-05
8.40282e-05
0.000418116
0.000733168
0.00082734
0.000831474
0.000839723
0.000839146
0.0008397
0.000831459
0.000827363
0.000733338
0.00272063
0.00255182
0.00249245
0.00248332
0.00249687
0.00249738
0.00249682
0.00248328
0.00249245
0.00255193
0.00623452
0.00502075
0.00456929
0.00449433
0.00451375
0.00451552
0.00451367
0.00449422
0.00456918
0.00502069
0.00985544
0.00764119
0.00669605
0.00653154
0.00656054
0.00656955
0.00656042
0.00653132
0.00669578
0.00764085
0.0126377
0.0102844
0.00852391
0.00840178
0.00843651
0.00846627
0.00843631
0.00840139
0.00852358
0.0102839
0.0147176
0.0128684
0.0102059
0.00990665
0.00993769
0.00997608
0.00993738
0.00990601
0.0102053
0.0128678
0.0168592
0.015512
0.0118299
0.0112209
0.0112452
0.0112876
0.0112448
0.0112201
0.0118289
0.0155111
0.0196867
0.0177009
0.0137618
0.0130318
0.0130844
0.0131273
0.0130841
0.0130312
0.013761
0.0176999
0.0217362
0.0190684
0.0163282
0.0161605
0.0163649
0.0164096
0.016365
0.0161607
0.0163284
0.0190678
0.000100371
9.54202e-05
0.000105093
0.000113716
0.000120523
0.000122763
0.000120525
0.000113721
0.000105106
9.54421e-05
0.0010623
0.000923647
0.000975174
0.00103552
0.00108464
0.00110068
0.00108464
0.00103555
0.000975243
0.000923741
0.00397387
0.00322989
0.00310216
0.00316569
0.00324984
0.00327804
0.00324987
0.00316575
0.00310218
0.00322978
0.00760533
0.00632409
0.00583498
0.00584646
0.00595945
0.00599652
0.00595953
0.00584658
0.00583489
0.00632379
0.0106171
0.00932206
0.00869521
0.00865992
0.00879826
0.00884376
0.00879841
0.00866015
0.00869509
0.00932191
0.012571
0.0117411
0.0114894
0.0115179
0.011687
0.011745
0.0116872
0.0115182
0.0114895
0.0117413
0.0134298
0.0138136
0.0144862
0.0147032
0.0149076
0.0149779
0.0149079
0.0147037
0.0144866
0.0138143
0.0132805
0.0155919
0.0179252
0.0182633
0.0184498
0.0185109
0.0184503
0.0182641
0.0179257
0.015593
0.0126585
0.0167417
0.0199913
0.020532
0.020713
0.0207646
0.0207136
0.020533
0.0199921
0.016743
0.0116844
0.0167954
0.0194801
0.0199319
0.0200406
0.0200717
0.0200412
0.0199327
0.0194805
0.0167962
3.36911e-05
9.15748e-05
0.000106454
0.000107262
0.00010829
0.000108082
0.000108288
0.000107259
0.000106455
9.15935e-05
0.000185513
0.000726028
0.000841888
0.000839575
0.000841919
0.000839777
0.000841892
0.000839543
0.000841888
0.000726145
0.00140502
0.00238339
0.00249627
0.00250067
0.00250804
0.0025074
0.00250799
0.0025006
0.00249627
0.00238346
0.00420229
0.00469698
0.00466892
0.00462512
0.0046343
0.00463407
0.00463421
0.00462496
0.00466892
0.00469698
0.00841679
0.00752576
0.00679702
0.00671197
0.00673931
0.00675176
0.00673918
0.00671173
0.00679686
0.00752534
0.0128334
0.0106627
0.00879412
0.00857493
0.00859838
0.00862041
0.00859818
0.00857451
0.00879369
0.0106618
0.0157844
0.0135726
0.0105244
0.010095
0.0101028
0.0101334
0.0101025
0.0100944
0.0105236
0.0135717
0.0181627
0.0160789
0.0120234
0.0113042
0.0112954
0.0113301
0.011295
0.0113034
0.0120223
0.0160779
0.0210832
0.0180339
0.0137268
0.0129322
0.0129664
0.0130035
0.0129661
0.0129316
0.0137259
0.018033
0.0228412
0.0191375
0.0161452
0.0159896
0.0161967
0.0162415
0.0161968
0.0159898
0.0161454
0.0191368
0.000118485
8.86934e-05
9.80389e-05
0.000105949
0.000112399
0.000114597
0.0001124
0.000105953
9.80514e-05
8.87141e-05
0.00132771
0.000893896
0.000940521
0.000994866
0.00104293
0.0010593
0.00104293
0.00099489
0.000940601
0.000894016
0.00435258
0.00293258
0.00289745
0.00298459
0.00307199
0.00310391
0.00307202
0.00298466
0.00289754
0.0029326
0.00819075
0.00558456
0.00541651
0.00550828
0.00562995
0.00567382
0.00563002
0.00550842
0.00541658
0.00558452
0.0114887
0.00861849
0.00828921
0.00833548
0.00848752
0.00853878
0.00848765
0.00833568
0.00828921
0.00861855
0.0129667
0.0113987
0.0114203
0.0114137
0.011589
0.0116444
0.0115892
0.011414
0.0114203
0.0113988
0.0128345
0.0136093
0.0148123
0.0148615
0.015053
0.0151105
0.0150533
0.0148618
0.0148124
0.0136098
0.0119177
0.0154813
0.0179585
0.018283
0.0184888
0.0185441
0.0184893
0.0182839
0.0179591
0.0154821
0.0115544
0.0168207
0.0201194
0.0206395
0.0208295
0.0208756
0.0208302
0.0206406
0.0201201
0.0168217
0.0112687
0.0170001
0.0197169
0.0201429
0.0202357
0.0202629
0.0202363
0.0201437
0.0197172
0.0170009
4.19232e-05
9.65997e-05
0.000113925
0.000116272
0.000118343
0.000118733
0.00011834
0.000116271
0.000113927
9.66161e-05
0.000164604
0.000739311
0.000882415
0.000885558
0.000886435
0.000885318
0.000886408
0.000885528
0.000882415
0.000739426
0.000657142
0.00239456
0.00268387
0.00270377
0.00272188
0.00272564
0.00272184
0.00270371
0.00268392
0.00239476
0.00213479
0.00470838
0.00479357
0.00480986
0.00484514
0.00485254
0.00484507
0.00480975
0.00479358
0.00470836
0.00612351
0.00760503
0.00695411
0.00688644
0.00692601
0.006941
0.0069259
0.00688622
0.00695395
0.00760446
0.0105329
0.0107129
0.0088826
0.00867817
0.00870719
0.00873103
0.00870701
0.00867778
0.00888218
0.0107118
0.0135666
0.0135331
0.0104523
0.0100588
0.0100704
0.0101037
0.0100701
0.0100582
0.0104516
0.0135321
0.0164763
0.0160111
0.0118091
0.0111636
0.0111621
0.0112012
0.0111617
0.0111629
0.0118081
0.0160097
0.0201606
0.0178016
0.0134735
0.0127785
0.01283
0.012872
0.0128297
0.0127779
0.0134727
0.0178004
0.0242028
0.0189589
0.015998
0.0158995
0.0161175
0.0161676
0.0161176
0.0158998
0.0159982
0.0189583
5.64389e-05
4.24737e-05
5.80768e-05
7.01635e-05
7.67469e-05
7.87844e-05
7.67471e-05
7.01671e-05
5.80918e-05
4.25002e-05
0.00124778
0.000591055
0.000625741
0.000688685
0.000739558
0.000755941
0.00073956
0.0006887
0.000625814
0.000591195
0.00340591
0.0020356
0.00219946
0.00235788
0.00245325
0.00248453
0.00245327
0.00235796
0.00219965
0.00203594
0.005643
0.00414306
0.00452658
0.004772
0.00493871
0.00499009
0.00493878
0.00477217
0.0045269
0.00414376
0.00933591
0.00741242
0.0076316
0.00775318
0.00796106
0.00802328
0.00796116
0.00775338
0.00763172
0.00741323
0.0123045
0.0105501
0.0108832
0.0109209
0.011163
0.0112318
0.0111632
0.0109212
0.0108832
0.0105509
0.0110016
0.0131862
0.0141525
0.0142399
0.0144944
0.0145643
0.0144948
0.0142404
0.0141525
0.013187
0.0100414
0.0154487
0.0171497
0.0174565
0.0177204
0.0177854
0.0177209
0.0174573
0.0171501
0.0154496
0.0102783
0.0168876
0.0193975
0.019958
0.0202084
0.0202617
0.0202091
0.0199591
0.0193983
0.0168883
0.0108059
0.0170456
0.0194898
0.0199715
0.0200987
0.0201282
0.0200993
0.0199723
0.0194903
0.0170462
0.0211608
0.019192
0.0188392
0.0194454
0.0197205
0.0197447
0.0197211
0.0194464
0.0188403
0.0191916
0.0178931
0.0175697
0.0185079
0.0190494
0.0192095
0.0191981
0.0192101
0.0190503
0.0185089
0.0175699
0.0145628
0.014844
0.0159912
0.0164945
0.0166005
0.0165808
0.0166006
0.0164948
0.0159921
0.0148445
0.0117574
0.0124158
0.0132162
0.013616
0.0136931
0.0136811
0.0136931
0.0136161
0.0132167
0.0124163
0.00951406
0.00991375
0.0103328
0.0105743
0.0105927
0.0105776
0.0105925
0.0105743
0.0103331
0.00991408
0.00709204
0.00715796
0.00728558
0.00740377
0.00739243
0.00738086
0.00739232
0.00740367
0.00728567
0.00715813
0.00437977
0.00423992
0.00421226
0.00424903
0.00422514
0.00421707
0.00422506
0.00424893
0.00421216
0.00423996
0.00183636
0.0016929
0.00162121
0.00162804
0.00161225
0.00160805
0.00161221
0.00162797
0.00162112
0.00169288
0.000117782
0.000102749
9.57947e-05
9.79192e-05
9.75814e-05
9.74862e-05
9.75788e-05
9.79152e-05
9.57889e-05
0.000102747
8.90154e-06
8.52158e-06
8.3508e-06
8.6154e-06
8.72401e-06
8.75574e-06
8.7241e-06
8.61565e-06
8.35109e-06
8.52186e-06
0.0133261
0.0155006
0.0163554
0.0164063
0.016443
0.0164619
0.016443
0.0164063
0.0163551
0.0155009
0.0136154
0.0140549
0.0136518
0.0135443
0.0135229
0.0135449
0.0135225
0.0135438
0.0136513
0.0140548
0.0132549
0.0124149
0.0119541
0.011965
0.0119776
0.0120163
0.0119772
0.0119645
0.0119538
0.0124153
0.011683
0.0108066
0.010529
0.0106153
0.0106582
0.0107102
0.0106579
0.0106151
0.0105288
0.010807
0.00947758
0.00878274
0.00870537
0.00882794
0.00887594
0.00892642
0.00887587
0.0088279
0.00870523
0.00878301
0.00675461
0.00641501
0.00647057
0.00660397
0.00665986
0.00670989
0.00665992
0.00660406
0.00647051
0.00641522
0.003887
0.00367162
0.00380165
0.00391689
0.0039635
0.00400237
0.00396362
0.00391703
0.00380165
0.00367174
0.00163532
0.00159078
0.00168344
0.00173651
0.00176496
0.00178063
0.00176501
0.00173657
0.00168346
0.00159082
0.000101593
9.52117e-05
0.000113976
0.000124795
0.000131515
0.000134969
0.000131528
0.000124814
0.000113981
9.52156e-05
4.78243e-06
4.58422e-06
5.13789e-06
5.59171e-06
5.87451e-06
5.99822e-06
5.87507e-06
5.5925e-06
5.13842e-06
4.58452e-06
0.0212158
0.0190732
0.0187828
0.0192954
0.0195691
0.0196061
0.0195696
0.0192963
0.0187838
0.0190729
0.0182443
0.0173193
0.0183219
0.018905
0.0191082
0.0191148
0.0191087
0.0189058
0.0183229
0.0173197
0.0145708
0.0146873
0.0158951
0.0164283
0.0165781
0.0165767
0.0165783
0.0164287
0.0158959
0.0146876
0.0114976
0.0120293
0.0129532
0.0133677
0.0134845
0.013485
0.0134846
0.0133679
0.0129538
0.0120297
0.00882959
0.00920115
0.00982578
0.0101006
0.0101751
0.0101847
0.0101751
0.0101006
0.00982618
0.00920151
0.00618837
0.00622803
0.00673413
0.00690567
0.00693823
0.00693406
0.00693812
0.00690561
0.0067342
0.00622812
0.00338948
0.00338355
0.00364892
0.00372647
0.00376191
0.00377059
0.00376187
0.00372647
0.00364888
0.00338354
0.0015593
0.00151209
0.00154177
0.00154361
0.00154798
0.0015475
0.00154791
0.00154354
0.0015417
0.00151204
9.17435e-05
8.54664e-05
9.26309e-05
9.31722e-05
9.50037e-05
9.56246e-05
9.49994e-05
9.31692e-05
9.26233e-05
8.54606e-05
3.08006e-06
2.83218e-06
3.20022e-06
3.36455e-06
3.49648e-06
3.5579e-06
3.49653e-06
3.36466e-06
3.20008e-06
2.83205e-06
0.0125187
0.0152457
0.0162635
0.0162976
0.0163029
0.0163138
0.0163029
0.0162975
0.0162632
0.015246
0.0131671
0.0134139
0.0133137
0.0132466
0.0132448
0.0132705
0.0132444
0.0132462
0.0133133
0.0134137
0.0124387
0.0117199
0.0114102
0.0114455
0.0115045
0.0115522
0.011504
0.0114451
0.01141
0.0117202
0.0105395
0.00985242
0.00973886
0.00983814
0.00993825
0.00999694
0.00993798
0.00983795
0.00973865
0.00985279
0.00811114
0.00777244
0.00794549
0.00809333
0.00821547
0.00826714
0.00821537
0.00809334
0.00794544
0.00777268
0.00548592
0.00532294
0.00553892
0.00566134
0.00576759
0.00580539
0.00576759
0.00566147
0.00553899
0.00532316
0.00342129
0.0033848
0.00350563
0.00357938
0.00364927
0.00367171
0.00364929
0.00357947
0.00350571
0.00338491
0.00175981
0.00176676
0.00180549
0.00184229
0.00187305
0.00188161
0.00187306
0.00184233
0.00180554
0.0017668
0.000117439
0.000120893
0.000134136
0.000142508
0.000151006
0.00015306
0.000151013
0.000142523
0.000134151
0.0001209
3.18797e-06
3.23979e-06
3.75886e-06
4.07877e-06
4.37949e-06
4.47072e-06
4.37981e-06
4.07938e-06
3.75936e-06
3.23998e-06
0.0212726
0.0189972
0.0186288
0.01912
0.0194224
0.0194605
0.0194229
0.0191209
0.0186298
0.0189971
0.0180422
0.017086
0.0180468
0.018669
0.0189279
0.0189427
0.0189284
0.0186698
0.0180478
0.0170865
0.0140195
0.014309
0.0155979
0.0161646
0.0163663
0.0163744
0.0163666
0.0161651
0.0155987
0.0143094
0.0109884
0.0115487
0.0123007
0.0126311
0.0127552
0.0127735
0.0127553
0.0126314
0.0123011
0.011549
0.00831975
0.0084609
0.00914024
0.0093906
0.00949132
0.0095075
0.00949135
0.00939073
0.00914048
0.00846106
0.00567273
0.0059275
0.00635603
0.00649161
0.00655861
0.00656767
0.00655856
0.00649161
0.00635615
0.00592758
0.00362221
0.00377994
0.00392493
0.00397792
0.00400596
0.00400576
0.00400586
0.00397781
0.00392497
0.00377995
0.00179911
0.00183706
0.00184616
0.00185801
0.00186132
0.00185829
0.00186123
0.00185789
0.00184613
0.00183706
0.000115468
0.000115139
0.000116347
0.00011731
0.000118661
0.00011858
0.000118653
0.0001173
0.000116342
0.000115135
2.80643e-06
2.70489e-06
2.87095e-06
2.92968e-06
3.01351e-06
3.03544e-06
3.01342e-06
2.92962e-06
2.87088e-06
2.70481e-06
0.0119925
0.0152063
0.016233
0.0162691
0.0162462
0.0162573
0.0162462
0.0162691
0.0162327
0.0152066
0.0126357
0.0131559
0.0131335
0.0131022
0.0130982
0.0131272
0.0130979
0.0131018
0.0131332
0.0131562
0.011904
0.0114643
0.0112718
0.0113489
0.0114233
0.011475
0.0114229
0.0113485
0.0112716
0.0114646
0.0101543
0.00978979
0.00968619
0.00980507
0.00992099
0.00998032
0.00992069
0.00980483
0.0096861
0.00979011
0.0077473
0.00761519
0.00775783
0.00790013
0.00803248
0.00807625
0.00803238
0.00790015
0.00775792
0.00761552
0.00554318
0.00554045
0.00562667
0.00576401
0.00587088
0.00589787
0.00587083
0.00576404
0.00562681
0.00554071
0.00362144
0.0036659
0.00369882
0.00380413
0.00387207
0.00388804
0.00387206
0.00380414
0.00369893
0.00366606
0.00181434
0.00184047
0.00186794
0.0019236
0.00195701
0.00196611
0.00195702
0.00192361
0.00186799
0.00184053
0.000122232
0.000129463
0.000139215
0.000151538
0.000159998
0.000161966
0.000160004
0.000151548
0.00013923
0.000129471
3.29173e-06
3.47706e-06
3.84048e-06
4.18699e-06
4.46438e-06
4.53019e-06
4.46462e-06
4.1874e-06
3.841e-06
3.47726e-06
0.0216553
0.0188985
0.0184286
0.0189701
0.019303
0.0193473
0.0193035
0.018971
0.0184297
0.0188984
0.0179248
0.0169663
0.01785
0.0185369
0.0188326
0.0188563
0.0188331
0.0185377
0.0178511
0.0169665
0.0137897
0.0142319
0.0151556
0.0154824
0.0156696
0.0156924
0.0156697
0.0154827
0.015156
0.0142322
0.0108044
0.0110017
0.0115824
0.0119262
0.0120634
0.0120742
0.0120635
0.0119263
0.0115828
0.0110018
0.00790096
0.00821612
0.00875538
0.00901295
0.00910081
0.0091039
0.00910078
0.00901298
0.00875565
0.00821632
0.00576723
0.00609699
0.00641168
0.00656502
0.00660997
0.00661068
0.00660988
0.00656491
0.00641179
0.0060971
0.00387877
0.00406429
0.00419115
0.00426875
0.00428667
0.00428777
0.00428658
0.00426861
0.00419116
0.0040643
0.00190466
0.00195683
0.00199239
0.00202337
0.00203035
0.00203138
0.00203028
0.0020233
0.00199238
0.00195681
0.000121095
0.000121939
0.000123635
0.000126244
0.000127251
0.000127358
0.000127243
0.000126234
0.00012363
0.000121933
2.73898e-06
2.6805e-06
2.75897e-06
2.84516e-06
2.90615e-06
2.91681e-06
2.90601e-06
2.84499e-06
2.75886e-06
2.68039e-06
0.011614
0.015333
0.0163689
0.0163845
0.0163309
0.0163361
0.0163309
0.0163845
0.0163686
0.0153333
0.0121863
0.0131505
0.0131408
0.0130608
0.0130176
0.013042
0.0130172
0.0130604
0.0131404
0.0131507
0.0116084
0.011444
0.0113785
0.0114387
0.0114829
0.0115387
0.0114824
0.0114383
0.0113783
0.0114445
0.0102414
0.0101019
0.0100873
0.0102668
0.0103829
0.0104401
0.0103826
0.0102666
0.0100873
0.0101021
0.00812044
0.00813085
0.00823706
0.00840203
0.00852787
0.00856872
0.00852777
0.00840197
0.0082372
0.00813117
0.00613755
0.00623747
0.00628738
0.00644858
0.00655556
0.00658573
0.00655551
0.00644856
0.00628755
0.00623773
0.00396357
0.0040507
0.00406577
0.00419509
0.00427115
0.00429225
0.00427114
0.00419511
0.0040659
0.00405086
0.00183255
0.0018636
0.00188702
0.00195183
0.00199023
0.00200191
0.00199024
0.00195187
0.00188709
0.00186366
0.000124733
0.000133211
0.000141649
0.000154761
0.000163355
0.000165587
0.000163361
0.000154772
0.000141665
0.00013322
3.56233e-06
3.83555e-06
4.17853e-06
4.58978e-06
4.88918e-06
4.96787e-06
4.88941e-06
4.59018e-06
4.17906e-06
3.83574e-06
0.0222657
0.0188712
0.0183336
0.0189265
0.0192689
0.019319
0.0192694
0.0189274
0.0183347
0.0188711
0.0180548
0.0170095
0.017857
0.0185771
0.0188724
0.0188998
0.0188729
0.018578
0.0178582
0.0170097
0.013818
0.0143624
0.0151686
0.0155249
0.0157089
0.0157304
0.0157089
0.0155251
0.015169
0.0143628
0.0108895
0.0113302
0.0117902
0.0121572
0.0122858
0.0122892
0.0122858
0.0121573
0.0117907
0.0113303
0.00811717
0.0084552
0.0088734
0.00914905
0.00922108
0.0092156
0.00922101
0.00914903
0.00887369
0.00845542
0.00573803
0.00602661
0.00628001
0.00645801
0.00649079
0.00649022
0.0064907
0.00645793
0.0062801
0.00602677
0.00371908
0.00385157
0.00397999
0.00407037
0.00407948
0.00408349
0.0040794
0.00407027
0.00397997
0.00385162
0.00183409
0.00186807
0.00191674
0.00194133
0.00194169
0.0019442
0.00194165
0.00194127
0.00191671
0.00186806
0.000115174
0.000114002
0.000116029
0.000117589
0.000117231
0.000117397
0.000117224
0.000117579
0.00011602
0.000113998
2.41169e-06
2.3415e-06
2.39847e-06
2.52417e-06
2.58051e-06
2.5967e-06
2.58037e-06
2.52402e-06
2.39832e-06
2.34146e-06
0.011246
0.015408
0.0165615
0.0166319
0.0165885
0.0165876
0.0165885
0.0166319
0.0165612
0.0154083
0.0123544
0.0140651
0.0139763
0.0136991
0.013576
0.0135777
0.0135756
0.0136986
0.0139757
0.0140655
0.0119031
0.0123056
0.0121261
0.0120183
0.0119781
0.0120024
0.0119777
0.0120178
0.0121257
0.012306
0.0106409
0.0105419
0.0104995
0.0105928
0.0106814
0.0107299
0.0106813
0.0105927
0.0104994
0.0105421
0.0087378
0.00875674
0.00888575
0.0090818
0.00920577
0.00926164
0.00920573
0.00908178
0.00888588
0.00875702
0.00717408
0.00736522
0.00752046
0.00768125
0.00777915
0.0078244
0.00777913
0.00768124
0.00752063
0.00736548
0.00539256
0.00560141
0.00564677
0.00568354
0.00572111
0.00573927
0.00572109
0.00568348
0.00564689
0.00560154
0.00282406
0.00287231
0.00283245
0.00285837
0.00288636
0.00289807
0.00288638
0.00285839
0.00283253
0.00287235
0.000290698
0.000301213
0.000298018
0.000305492
0.000313281
0.00031583
0.000313286
0.000305497
0.00029804
0.000301211
1.19752e-05
1.29288e-05
1.37634e-05
1.4342e-05
1.4829e-05
1.49957e-05
1.48295e-05
1.43427e-05
1.37645e-05
1.2929e-05
)
;

boundaryField
{
    leftWall
    {
        type            compressible::alphatWallFunction;
        Prt             0.85;
        value           uniform 0;
    }
    rightWall
    {
        type            compressible::alphatWallFunction;
        Prt             0.85;
        value           uniform 0;
    }
    leftSides_periodic0
    {
        type            cyclic;
    }
    leftSides_periodic1
    {
        type            cyclic;
    }
    rightSides_periodic0
    {
        type            cyclic;
    }
    rightSides_periodic1
    {
        type            cyclic;
    }
    leftInOut_periodic0
    {
        type            cyclic;
    }
    leftInOut_periodic1
    {
        type            cyclic;
    }
    rightInOut_periodic0
    {
        type            cyclic;
    }
    rightInOut_periodic1
    {
        type            cyclic;
    }
}


// ************************************************************************* //
