/*--------------------------------*- C++ -*----------------------------------*\
| =========                 |                                                 |
| \\      /  F ield         | OpenFOAM: The Open Source CFD Toolbox           |
|  \\    /   O peration     | Version:  v1906                                 |
|   \\  /    A nd           | Web:      www.OpenFOAM.com                      |
|    \\/     M anipulation  |                                                 |
\*---------------------------------------------------------------------------*/
FoamFile
{
    version     2.0;
    format      ascii;
    class       volScalarField;
    location    "39.6";
    object      heatTransferCoeff(T);
}
// * * * * * * * * * * * * * * * * * * * * * * * * * * * * * * * * * * * * * //

dimensions      [1 0 -3 -1 0 0 0];


internalField   uniform 0;

boundaryField
{
    leftWall
    {
        type            calculated;
        value           nonuniform List<scalar> 
100
(
6.94793
-67.6863
23.758
-151.355
-21.3831
-181.83
-45.6126
-192.702
-79.2984
-185.479
-80.9715
-158.725
-175.912
-211.679
-188.024
-217.949
-192.562
-216.873
-194.371
-189.305
-208.874
-227.626
-247.067
-237.935
-249.936
-236.088
-253.864
-230.682
-258.435
-206.002
-263.197
-255.303
-276.705
-254.235
-277.228
-249.198
-281.351
-240.388
-288.024
-217.643
-276.273
-267.702
-288.317
-265.968
-288.572
-260.652
-292.322
-251.466
-299.065
-230.677
-280.379
-272.478
-291.264
-270.236
-291.03
-264.867
-294.735
-255.656
-301.736
-235.395
-276.286
-267.717
-288.33
-265.982
-288.583
-260.665
-292.333
-251.479
-299.076
-230.688
-263.231
-255.331
-276.736
-254.261
-277.258
-249.221
-281.378
-240.408
-288.053
-217.662
-208.948
-227.685
-247.128
-237.978
-249.991
-236.126
-253.914
-230.716
-258.486
-206.038
-81.1238
-158.791
-176.045
-211.749
-188.147
-218.015
-192.666
-216.932
-194.467
-189.36
)
;
    }
    rightWall
    {
        type            calculated;
        value           nonuniform List<scalar> 
100
(
-573.055
-432.078
-373.468
-380.528
-410.714
-417.051
-410.131
-468.741
-351.246
-740.769
-543.714
-408.116
-340.729
-383.561
-392.74
-432.203
-393.028
-488.153
-326.898
-742.824
-507.144
-442.829
-364.402
-416.67
-382.814
-445.286
-370.878
-496.684
-298.671
-731.303
-494.585
-453.292
-353.016
-419.432
-363.136
-454.334
-356.283
-506.542
-288.622
-712.32
-484.535
-455.726
-352.283
-428.885
-359.472
-461.485
-349.94
-511.76
-282.073
-702.555
-480.392
-458.329
-353.672
-430.021
-356.778
-460.74
-346.305
-510.872
-279.453
-699.343
-484.52
-455.747
-352.286
-428.896
-359.457
-461.487
-349.922
-511.758
-282.056
-702.54
-494.563
-453.318
-353.023
-419.461
-363.119
-454.341
-356.251
-506.542
-288.597
-712.296
-507.123
-442.827
-364.363
-416.687
-382.78
-445.304
-370.838
-496.698
-298.629
-731.281
-543.695
-408.117
-340.703
-383.561
-392.719
-432.203
-393.004
-488.148
-326.89
-742.798
)
;
    }
    leftSides_periodic0
    {
        type            cyclic;
    }
    leftSides_periodic1
    {
        type            cyclic;
    }
    rightSides_periodic0
    {
        type            cyclic;
    }
    rightSides_periodic1
    {
        type            cyclic;
    }
    leftInOut_periodic0
    {
        type            cyclic;
    }
    leftInOut_periodic1
    {
        type            cyclic;
    }
    rightInOut_periodic0
    {
        type            cyclic;
    }
    rightInOut_periodic1
    {
        type            cyclic;
    }
}


// ************************************************************************* //
