/*--------------------------------*- C++ -*----------------------------------*\
| =========                 |                                                 |
| \\      /  F ield         | OpenFOAM: The Open Source CFD Toolbox           |
|  \\    /   O peration     | Version:  v1906                                 |
|   \\  /    A nd           | Web:      www.OpenFOAM.com                      |
|    \\/     M anipulation  |                                                 |
\*---------------------------------------------------------------------------*/
FoamFile
{
    version     2.0;
    format      ascii;
    class       volScalarField;
    location    "39.6";
    object      k;
}
// * * * * * * * * * * * * * * * * * * * * * * * * * * * * * * * * * * * * * //

dimensions      [0 2 -2 0 0 0 0];


internalField   nonuniform List<scalar> 
2000
(
8.56734e-06
5.54639e-05
0.000126734
0.000165657
0.000171056
0.000173183
0.000171054
0.000165668
0.000126771
5.55209e-05
1.24032e-05
0.000286254
0.000474194
0.000549683
0.000567251
0.000572244
0.000567238
0.000549685
0.000474246
0.000286386
3.97944e-05
0.000801223
0.000847128
0.000866813
0.000884447
0.000889514
0.000884433
0.000866794
0.000847131
0.00080128
0.000206814
0.000945342
0.000877841
0.000880428
0.000892992
0.000897679
0.000892981
0.000880402
0.000877831
0.000945299
0.000732793
0.000898966
0.000782853
0.000790215
0.000799634
0.000804533
0.000799627
0.000790196
0.000782845
0.000898886
0.00129914
0.000840449
0.000671984
0.000677738
0.000685854
0.000690802
0.000685847
0.000677721
0.000671969
0.00084035
0.00152652
0.000784159
0.000568936
0.000562967
0.000568509
0.000572873
0.000568501
0.000562946
0.000568902
0.000784045
0.00139673
0.000716362
0.00048027
0.000457741
0.000459838
0.000463034
0.00045983
0.000457718
0.000480218
0.000716236
0.00112398
0.000631041
0.000417106
0.000390214
0.000391335
0.00039327
0.000391334
0.000390203
0.000417062
0.000630926
0.000853861
0.000539125
0.000405194
0.000396426
0.0004008
0.000401969
0.000400812
0.000396442
0.000405189
0.000539052
3.61242e-05
0.000172765
0.00025488
0.000290532
0.000309906
0.00031627
0.000309918
0.000290559
0.000254948
0.000172837
3.29367e-05
0.000504927
0.000647162
0.000720112
0.000762461
0.000774922
0.000762474
0.000720152
0.000647272
0.000505073
0.000170016
0.00097921
0.00102647
0.00107256
0.00111354
0.00112561
0.00111355
0.00107258
0.00102652
0.000979292
0.000518141
0.00113432
0.00110061
0.00112294
0.00115768
0.00116844
0.0011577
0.00112297
0.00110062
0.00113431
0.000931198
0.00112471
0.00106
0.00107008
0.00109779
0.00110691
0.00109781
0.00107011
0.00105999
0.00112466
0.00121747
0.0010315
0.000969427
0.000974109
0.000995086
0.00100265
0.000995116
0.000974153
0.000969417
0.00103144
0.00124352
0.000899344
0.000856061
0.000857665
0.000872947
0.000878979
0.000872982
0.000857715
0.000856055
0.000899297
0.00103016
0.000753634
0.000732162
0.000731078
0.000741267
0.000745575
0.000741304
0.000731127
0.000732157
0.000753594
0.000757342
0.000606933
0.000601184
0.000599956
0.000606313
0.000608945
0.000606346
0.000599997
0.00060118
0.0006069
0.000524896
0.000471146
0.000475999
0.000476845
0.000480701
0.000481997
0.000480724
0.000476874
0.000475998
0.000471127
2.82233e-05
0.000194257
0.000246981
0.000261228
0.000270192
0.000271876
0.000270195
0.00026124
0.000247015
0.000194343
0.000127601
0.000489641
0.000563496
0.000579689
0.00058948
0.000591238
0.000589474
0.000579689
0.00056354
0.000489781
0.000543698
0.00084527
0.000859196
0.000878058
0.000889095
0.00089275
0.000889085
0.000878047
0.00085922
0.000845327
0.000961691
0.000956721
0.000879218
0.000893368
0.000906466
0.000911144
0.000906456
0.000893353
0.000879216
0.000956679
0.00132493
0.00096337
0.000798822
0.000806091
0.000819254
0.000824183
0.000819245
0.000806072
0.000798799
0.000963251
0.0015759
0.000904975
0.000683146
0.000682031
0.000693205
0.000697983
0.000693197
0.00068201
0.000683107
0.000904821
0.00161985
0.000814426
0.000567026
0.000554275
0.000562066
0.000566321
0.000562058
0.000554252
0.000566974
0.00081427
0.00144578
0.00071745
0.000469881
0.000443262
0.000447636
0.000451046
0.000447629
0.000443239
0.000469822
0.000717307
0.00115142
0.00061578
0.000406736
0.000377766
0.000380504
0.000382888
0.000380504
0.000377756
0.000406691
0.000615663
0.000859312
0.000523441
0.000398822
0.000388573
0.000393386
0.000394987
0.000393397
0.000388587
0.000398816
0.000523373
0.000144308
0.000235363
0.000272959
0.000300639
0.000321259
0.000327676
0.000321266
0.000300661
0.000273006
0.000235441
0.000405402
0.000593031
0.000669337
0.000725019
0.000764381
0.000776939
0.000764389
0.000725052
0.000669416
0.00059317
0.00083975
0.000978155
0.00102188
0.00106681
0.00110269
0.00111466
0.0011027
0.00106684
0.00102193
0.00097823
0.00108527
0.00110836
0.0011008
0.00113172
0.00116274
0.00117321
0.00116275
0.00113175
0.00110082
0.00110836
0.00125099
0.00113097
0.00107286
0.00109079
0.00111718
0.00112599
0.0011172
0.00109083
0.00107286
0.00113091
0.00131694
0.00106231
0.000985091
0.000993632
0.00101517
0.00102236
0.0010152
0.000993677
0.000985077
0.00106222
0.00123686
0.000925705
0.000861585
0.000865829
0.000882403
0.000888088
0.000882438
0.000865878
0.000861573
0.000925624
0.00100585
0.000758854
0.000728312
0.000730747
0.000742154
0.000746198
0.000742191
0.000730796
0.000728307
0.0007588
0.000717332
0.000596596
0.000596228
0.000598217
0.000605033
0.000607454
0.000605066
0.000598259
0.000596227
0.000596564
0.000481591
0.000458605
0.000473424
0.000475899
0.000479041
0.000480069
0.000479064
0.000475927
0.000473424
0.000458591
8.03448e-05
0.000219392
0.000258536
0.000263651
0.000268474
0.00026827
0.00026847
0.000263654
0.000258553
0.00021947
0.000229057
0.000482953
0.000570142
0.000578885
0.000586908
0.000587495
0.000586892
0.000578876
0.000570167
0.000483092
0.000665099
0.000766763
0.000837548
0.000857863
0.000867856
0.000871372
0.000867841
0.000857853
0.000837578
0.000766849
0.000969208
0.00084831
0.000849399
0.00087088
0.00088124
0.000885769
0.000881228
0.000870867
0.000849414
0.000848314
0.00121657
0.000884685
0.000783838
0.000796392
0.000806223
0.000810645
0.000806213
0.000796373
0.000783828
0.000884607
0.00140108
0.000886205
0.000686901
0.000686468
0.000694876
0.000698908
0.000694867
0.000686444
0.000686864
0.000886067
0.00147671
0.000838019
0.000577415
0.000560693
0.000566735
0.000570147
0.000566727
0.000560666
0.000577358
0.000837853
0.00139057
0.000744522
0.000473701
0.000443424
0.000446765
0.000449389
0.000446758
0.000443399
0.000473639
0.000744363
0.001152
0.000627333
0.000403157
0.000372311
0.000374611
0.000376416
0.00037461
0.000372299
0.000403113
0.000627211
0.000859702
0.000521579
0.00039384
0.000383027
0.000387847
0.000389174
0.000387857
0.00038304
0.000393836
0.000521515
0.00026278
0.000249346
0.000274802
0.000297554
0.000315525
0.000321436
0.000315529
0.000297568
0.000274836
0.000249403
0.000663602
0.000612366
0.000668177
0.000718595
0.000758242
0.000771261
0.000758248
0.000718619
0.000668238
0.000612461
0.0010548
0.000986088
0.00102484
0.00106954
0.00110712
0.00112014
0.00110713
0.00106957
0.00102488
0.000986125
0.0011947
0.00108968
0.00109831
0.00113497
0.00116718
0.00117876
0.0011672
0.00113501
0.00109833
0.00108966
0.00122722
0.00108446
0.00106389
0.00109152
0.00111803
0.00112765
0.00111806
0.00109156
0.00106389
0.0010844
0.00118023
0.00101257
0.000974053
0.000993178
0.00101448
0.00102213
0.00101452
0.000993226
0.000974047
0.0010125
0.00105227
0.000893436
0.000854847
0.000867066
0.000883618
0.000889437
0.000883653
0.000867117
0.00085484
0.000893362
0.000850813
0.000745886
0.000725159
0.000732438
0.000744161
0.000748246
0.000744198
0.000732488
0.000725155
0.000745829
0.000624154
0.000592198
0.000594647
0.000599409
0.000606364
0.000608805
0.000606398
0.000599451
0.000594646
0.000592163
0.000434468
0.000456215
0.000473191
0.000476878
0.000479544
0.000480574
0.000479567
0.000476906
0.000473192
0.000456201
8.78368e-05
0.000239383
0.00027824
0.000280117
0.000282734
0.000282161
0.000282728
0.000280111
0.000278243
0.000239432
0.000110322
0.000489584
0.000585714
0.000588486
0.000592042
0.000591188
0.000592023
0.000588466
0.000585722
0.000489686
0.000373985
0.000721247
0.000826382
0.000848491
0.000856816
0.000859195
0.000856802
0.000848481
0.000826417
0.000721341
0.000629799
0.000781174
0.000834495
0.000860522
0.000871092
0.000875236
0.000871081
0.000860511
0.000834527
0.00078121
0.000903511
0.000827154
0.000776299
0.000793745
0.000803951
0.00080859
0.000803941
0.000793729
0.000776301
0.000827106
0.0011469
0.000853116
0.000689742
0.000690684
0.000698491
0.00070269
0.000698482
0.000690662
0.00068971
0.000852998
0.00130226
0.000828816
0.000582187
0.000565065
0.000569835
0.000573263
0.000569826
0.000565038
0.00058213
0.000828659
0.00130492
0.000746482
0.000473601
0.0004428
0.000444994
0.000447542
0.000444987
0.000442774
0.000473537
0.000746324
0.00112406
0.00062688
0.00039704
0.000366874
0.00036879
0.000370534
0.000368789
0.000366862
0.000396996
0.000626758
0.000847853
0.000515486
0.000386556
0.000377272
0.000382402
0.000383728
0.000382412
0.000377284
0.000386554
0.000515425
0.000310829
0.00023157
0.000256165
0.00027703
0.000294034
0.000299828
0.000294036
0.00027704
0.000256198
0.000231625
0.000874233
0.000608732
0.000651836
0.000695528
0.000733927
0.000746733
0.000733931
0.000695547
0.000651899
0.000608834
0.00130727
0.000986425
0.00100935
0.00105121
0.0010891
0.00110244
0.00108911
0.00105124
0.0010094
0.000986473
0.00137185
0.00104486
0.00106586
0.00110806
0.00114114
0.00115335
0.00114116
0.0011081
0.00106589
0.00104486
0.00126161
0.000995585
0.00101906
0.00105898
0.00108699
0.00109743
0.00108701
0.00105903
0.00101908
0.000995567
0.00107187
0.000912351
0.000936619
0.000969111
0.000992081
0.00100049
0.000992112
0.000969165
0.000936635
0.000912321
0.000857712
0.000815919
0.000835741
0.000857969
0.000875757
0.000882118
0.000875792
0.000858023
0.000835746
0.000815882
0.000662902
0.000706303
0.000719661
0.000732818
0.000745268
0.000749666
0.000745304
0.000732869
0.000719661
0.000706263
0.000512211
0.000582318
0.000595372
0.00060281
0.000610055
0.000612623
0.000610089
0.000602854
0.000595373
0.000582284
0.000389139
0.000457392
0.000476188
0.000480778
0.000483311
0.000484314
0.000483335
0.000480808
0.00047619
0.000457375
0.000109294
0.000252671
0.000298013
0.000303937
0.000309318
0.000310325
0.000309312
0.000303934
0.000298019
0.000252713
0.000103479
0.000501562
0.000614077
0.000619698
0.000621697
0.000621059
0.000621677
0.000619678
0.000614083
0.000501654
0.000171196
0.000722151
0.000856395
0.000879784
0.000889014
0.000890715
0.000889
0.000879773
0.000856431
0.000722256
0.00030789
0.000795607
0.000866287
0.000891201
0.000903409
0.000907099
0.0009034
0.000891192
0.000866317
0.000795645
0.0006286
0.000838552
0.000802005
0.000818494
0.000829516
0.000834221
0.000829509
0.000818481
0.000802009
0.0008385
0.000974661
0.000845328
0.000696929
0.00070024
0.000708062
0.000712711
0.000708056
0.000700221
0.000696904
0.000845206
0.00121701
0.000803779
0.000575552
0.000563116
0.000567551
0.000571513
0.000567543
0.000563091
0.000575505
0.000803626
0.00125607
0.000717111
0.000463592
0.000437802
0.000439793
0.000442796
0.000439785
0.000437777
0.000463535
0.000716962
0.00108497
0.000605267
0.000389244
0.000362981
0.000365038
0.000367093
0.000365035
0.000362968
0.000389203
0.000605152
0.000828715
0.000505454
0.000381361
0.000374381
0.000379905
0.000381402
0.000379915
0.000374394
0.00038136
0.000505396
0.000146888
0.000110324
0.000151078
0.000182738
0.000199969
0.0002053
0.00019997
0.000182748
0.000151117
0.000110393
0.000855376
0.000449508
0.000477888
0.000523025
0.000564546
0.000578024
0.000564548
0.000523037
0.000477946
0.000449621
0.00135173
0.000852078
0.000876096
0.000921852
0.00095839
0.000971066
0.0009584
0.00092188
0.000876156
0.000852181
0.00152212
0.000918503
0.000967632
0.00101801
0.00105095
0.00106222
0.00105097
0.00101806
0.000967691
0.000918596
0.00135563
0.000901601
0.000963939
0.00100984
0.00103935
0.00104921
0.00103937
0.00100989
0.000963986
0.000901666
0.00105845
0.000852858
0.000916487
0.000952589
0.00097728
0.000985568
0.000977311
0.000952644
0.000916515
0.000852886
0.000762409
0.000787379
0.000834816
0.000858438
0.000876895
0.000883311
0.00087693
0.000858492
0.000834826
0.000787367
0.000564612
0.000699528
0.000724158
0.000737573
0.000749916
0.000754342
0.000749953
0.000737624
0.000724159
0.000699491
0.000457422
0.000585066
0.000599594
0.000607207
0.000614305
0.000616831
0.000614339
0.000607251
0.000599595
0.000585026
0.000369987
0.00046103
0.000480005
0.000484675
0.000487296
0.000488215
0.000487321
0.000484706
0.000480008
0.000461008
0.000636932
0.000482356
0.000462167
0.000481041
0.000490675
0.000491899
0.000490697
0.000481078
0.000462206
0.000482344
0.000520376
0.000503934
0.000568674
0.000606261
0.000620188
0.000622008
0.000620211
0.000606304
0.000568738
0.000503974
0.000521233
0.00059351
0.000697664
0.000745464
0.000762489
0.00076515
0.000762507
0.000745503
0.00069774
0.000593579
0.00061418
0.000722899
0.000830926
0.000881061
0.000898963
0.000902319
0.000898973
0.00088109
0.000831
0.000722973
0.000744206
0.000841686
0.000929697
0.000974091
0.000989551
0.000992919
0.000989551
0.000974107
0.000929756
0.000841747
0.000837281
0.000894239
0.000950208
0.000983862
0.000994742
0.000997603
0.000994735
0.000983861
0.000950239
0.000894276
0.000838633
0.000846194
0.000868334
0.000888729
0.000893733
0.000895609
0.000893718
0.00088871
0.000868327
0.000846203
0.000699001
0.000662391
0.000648191
0.000655552
0.000654344
0.000654503
0.000654324
0.00065552
0.000648155
0.000662377
0.000130122
0.000114762
0.000107317
0.000109811
0.000109749
0.000109744
0.000109745
0.000109806
0.000107312
0.000114759
6.29829e-05
6.02422e-05
5.89718e-05
6.08189e-05
6.1568e-05
6.17845e-05
6.15685e-05
6.08206e-05
5.89738e-05
6.02441e-05
0.000394457
0.000387408
0.00039853
0.000402883
0.000405716
0.000406635
0.000405722
0.000402892
0.000398531
0.000387412
0.000394467
0.00040453
0.000418321
0.000428391
0.000432921
0.000435028
0.000432911
0.000428384
0.000418328
0.000404564
0.000489778
0.000503723
0.000521248
0.000539039
0.000547217
0.000551374
0.000547203
0.000539031
0.000521261
0.000503779
0.00062924
0.000640997
0.000660472
0.000683757
0.000695124
0.000701356
0.000695115
0.000683756
0.000660485
0.000641057
0.00076623
0.000767829
0.000788153
0.000814603
0.000828465
0.000836452
0.000828464
0.00081461
0.000788163
0.000767882
0.000859358
0.000853432
0.000876923
0.000906504
0.000923695
0.000933289
0.000923702
0.00090652
0.000876932
0.000853475
0.000880934
0.0008714
0.000902806
0.000937185
0.000958153
0.000968636
0.000958169
0.000937211
0.000902824
0.000871435
0.000755017
0.000748617
0.000794083
0.000831514
0.000855174
0.000865034
0.000855199
0.000831554
0.000794114
0.000748646
0.000116585
0.000109813
0.000130541
0.000143806
0.00015214
0.000156217
0.000152156
0.000143827
0.000130549
0.000109819
3.36935e-05
3.22743e-05
3.62098e-05
3.94209e-05
4.14181e-05
4.22937e-05
4.14221e-05
3.94265e-05
3.62135e-05
3.22764e-05
0.000637146
0.000479761
0.000462271
0.00048017
0.000489271
0.000490655
0.000489292
0.000480205
0.000462308
0.000479756
0.000530002
0.000516435
0.000574985
0.000611939
0.000624585
0.000626234
0.000624609
0.000611981
0.000575048
0.000516479
0.000539789
0.000609957
0.000702271
0.000748075
0.000763045
0.000765284
0.000763065
0.000748115
0.000702343
0.000610023
0.000620564
0.000720469
0.000816194
0.00086279
0.000878702
0.00088147
0.000878716
0.000862819
0.000816262
0.000720536
0.000717598
0.000808707
0.000889791
0.000931147
0.000946224
0.000948988
0.000946225
0.00093116
0.000889848
0.000808762
0.000798382
0.000860248
0.000918756
0.000951408
0.000963649
0.000965073
0.000963633
0.000951399
0.000918794
0.000860281
0.000828962
0.000854432
0.000887425
0.000909329
0.000918854
0.000919394
0.000918825
0.000909304
0.000887437
0.000854441
0.000737475
0.000716312
0.000722703
0.000728319
0.000731816
0.000731836
0.000731778
0.000728277
0.000722677
0.00071629
0.000102768
9.53122e-05
0.000102915
0.000104115
0.000106225
0.000106976
0.00010622
0.000104111
0.000102907
9.5306e-05
2.16612e-05
1.98986e-05
2.25004e-05
2.36481e-05
2.4575e-05
2.50077e-05
2.45753e-05
2.36488e-05
2.24993e-05
1.98977e-05
0.000368506
0.000380928
0.000397626
0.000401856
0.000403179
0.000403781
0.000403184
0.000401864
0.000397628
0.000380937
0.000387549
0.000400011
0.000413999
0.000423187
0.000426247
0.000428071
0.000426236
0.000423181
0.000414006
0.000400047
0.000481262
0.000488352
0.000501192
0.000516726
0.000523688
0.000527438
0.000523672
0.000516717
0.000501203
0.000488405
0.000600711
0.000602551
0.000614437
0.000634188
0.000644717
0.000650018
0.000644703
0.000634182
0.000614448
0.000602606
0.000724797
0.000723167
0.00073469
0.00075736
0.000770718
0.000776905
0.000770707
0.000757357
0.000734702
0.000723218
0.000847202
0.00084631
0.000857708
0.000883535
0.000899852
0.000906617
0.000899845
0.000883536
0.000857726
0.000846355
0.000941389
0.000947774
0.000963646
0.000994775
0.00101502
0.00102248
0.00101502
0.000994784
0.000963676
0.000947812
0.000867094
0.000876304
0.000911038
0.000947917
0.000973322
0.000981114
0.000973335
0.000947947
0.000911083
0.000876333
0.000130484
0.000134165
0.000150094
0.00016098
0.000171414
0.000174123
0.000171422
0.000160998
0.000150112
0.000134173
2.24248e-05
2.27914e-05
2.64691e-05
2.87246e-05
3.08513e-05
3.14951e-05
3.08535e-05
2.87289e-05
2.64726e-05
2.27927e-05
0.00063419
0.000476824
0.000460358
0.000477755
0.00048687
0.000488244
0.00048689
0.000477789
0.000460396
0.000476823
0.000532118
0.000515448
0.000573022
0.000608873
0.00062111
0.000622794
0.000621134
0.000608915
0.000573084
0.000515494
0.000541859
0.000607138
0.000696843
0.000740674
0.000754592
0.000756707
0.000754613
0.000740713
0.000696912
0.000607204
0.000628044
0.000724945
0.000817502
0.000862009
0.000876436
0.000878965
0.000876449
0.000862036
0.000817567
0.000725009
0.000754383
0.000848655
0.000927149
0.000968912
0.000983126
0.000985786
0.000983127
0.00096892
0.000927206
0.000848707
0.000877645
0.000957281
0.00101018
0.00104692
0.00105988
0.00106243
0.00105987
0.0010469
0.00101023
0.000957315
0.000944577
0.000990801
0.00101806
0.0010477
0.00105813
0.00106015
0.0010581
0.00104767
0.00101808
0.000990814
0.00081717
0.000821081
0.000831536
0.000846393
0.000852536
0.000853532
0.0008525
0.000846345
0.000831524
0.00082107
0.000124072
0.000123166
0.000125459
0.000127181
0.00012898
0.000129095
0.000128972
0.00012717
0.000125454
0.000123162
1.9758e-05
1.90331e-05
2.01959e-05
2.05972e-05
2.11844e-05
2.13369e-05
2.11838e-05
2.05968e-05
2.01954e-05
1.90325e-05
0.000347141
0.000378542
0.000397527
0.000401514
0.000401828
0.000402398
0.000401834
0.000401522
0.000397529
0.000378553
0.000378213
0.000395957
0.000412021
0.000420241
0.000422392
0.000424197
0.000422382
0.000420235
0.000412028
0.000395993
0.000479511
0.000487328
0.000501779
0.000516393
0.000522893
0.000526598
0.000522876
0.000516384
0.000501791
0.00048738
0.000611444
0.000616644
0.00062731
0.000646768
0.000657235
0.000662395
0.000657218
0.00064676
0.000627324
0.000616702
0.00075332
0.000757534
0.000763902
0.000788397
0.000802262
0.000808358
0.00080225
0.000788391
0.000763917
0.000757591
0.000887775
0.000893801
0.000899183
0.000930066
0.000947381
0.000954429
0.000947375
0.000930065
0.000899204
0.000893854
0.000968771
0.000979335
0.000995746
0.00103426
0.00105657
0.00106508
0.00105658
0.00103427
0.000995775
0.000979379
0.000858105
0.000875444
0.000912168
0.000955474
0.000983295
0.000992305
0.000983313
0.000955503
0.000912212
0.000875476
0.000133706
0.000141664
0.000153984
0.000168724
0.000179156
0.000181727
0.000179163
0.000168736
0.000154002
0.000141672
2.31794e-05
2.44955e-05
2.70664e-05
2.95168e-05
3.14793e-05
3.19427e-05
3.14809e-05
2.95197e-05
2.70701e-05
2.44969e-05
0.000629562
0.000472833
0.000456976
0.000475124
0.000484828
0.000486253
0.000484848
0.000475158
0.000457016
0.000472835
0.000537203
0.000517415
0.000573581
0.000608493
0.000621183
0.000622861
0.000621206
0.000608534
0.000573642
0.000517461
0.000554572
0.000616367
0.000701426
0.000742563
0.000756328
0.000758276
0.000756348
0.0007426
0.000701492
0.000616431
0.000652587
0.000746233
0.000833631
0.000876509
0.000890367
0.00089275
0.000890379
0.000876533
0.000833693
0.000746297
0.000797251
0.000894516
0.000972232
0.00101382
0.00102727
0.00103046
0.00102728
0.00101383
0.000972285
0.000894568
0.000946403
0.00102691
0.00108762
0.00112625
0.00113918
0.00114342
0.00113917
0.00112624
0.00108766
0.00102695
0.00100897
0.00105783
0.00110105
0.00113353
0.00114526
0.00114983
0.00114525
0.00113351
0.00110107
0.00105783
0.000842042
0.000853636
0.000874937
0.000894207
0.000901816
0.000904544
0.000901785
0.000894172
0.00087493
0.000853621
0.00012872
0.000129335
0.000131978
0.000135374
0.000136851
0.000137145
0.000136843
0.000135363
0.000131972
0.000129329
1.92827e-05
1.88616e-05
1.94013e-05
1.9999e-05
2.04239e-05
2.04967e-05
2.04229e-05
1.99977e-05
1.94005e-05
1.88608e-05
0.000326695
0.000380371
0.00040102
0.000403989
0.000403559
0.000403925
0.000403565
0.000403998
0.000401022
0.000380381
0.000369694
0.000399425
0.000416235
0.000421565
0.00042252
0.000424081
0.00042251
0.000421558
0.000416238
0.000399461
0.00048805
0.000502403
0.000518716
0.00053129
0.000536956
0.00054064
0.000536939
0.00053128
0.000518726
0.000502458
0.00064767
0.000659591
0.000675498
0.000696273
0.000707018
0.000712472
0.000707004
0.000696267
0.000675516
0.000659653
0.000813745
0.000825306
0.000837998
0.000865626
0.000880857
0.000887742
0.000880848
0.000865626
0.000838023
0.000825368
0.000940351
0.000950304
0.000960852
0.000995096
0.00101475
0.00102302
0.00101475
0.000995105
0.00096088
0.00095036
0.000974291
0.000985475
0.00100314
0.00104388
0.00106858
0.00107804
0.00106859
0.00104391
0.00100317
0.000985524
0.000827735
0.000846035
0.000877095
0.000920672
0.000948854
0.000958157
0.000948873
0.000920708
0.00087714
0.000846071
0.000135757
0.000145308
0.000156019
0.000171663
0.000182236
0.000185072
0.000182243
0.000171676
0.000156038
0.000145317
2.5123e-05
2.70654e-05
2.94934e-05
3.2406e-05
3.45257e-05
3.50805e-05
3.45273e-05
3.24088e-05
2.94971e-05
2.70668e-05
0.000627553
0.000470338
0.000454693
0.000474015
0.000484304
0.000485849
0.000484324
0.000474048
0.000454733
0.000470342
0.000547537
0.000522491
0.000578903
0.000614694
0.000628288
0.000630128
0.00062831
0.000614734
0.000578966
0.000522538
0.000576288
0.000634099
0.000719223
0.000761298
0.000776043
0.000778128
0.000776062
0.000761333
0.000719292
0.000634166
0.000678474
0.000768941
0.000854592
0.000898295
0.000912779
0.000915277
0.000912791
0.000898319
0.000854657
0.000769005
0.000806139
0.000894408
0.000971265
0.00101319
0.00102665
0.0010301
0.00102665
0.0010132
0.000971318
0.000894459
0.00092594
0.000995884
0.00106231
0.0011004
0.00111243
0.00111713
0.00111243
0.0011004
0.00106235
0.000995916
0.000990373
0.00103346
0.00108698
0.00111647
0.00112547
0.0011303
0.00112546
0.00111645
0.00108699
0.00103347
0.000853482
0.000865584
0.000891111
0.000904217
0.000906796
0.000908978
0.000906767
0.000904179
0.000891093
0.000865562
0.000122437
0.000121321
0.000124192
0.000126483
0.000126476
0.000126756
0.000126469
0.000126473
0.000124183
0.000121317
1.69492e-05
1.64441e-05
1.68304e-05
1.77074e-05
1.80992e-05
1.82113e-05
1.80982e-05
1.77063e-05
1.68293e-05
1.64438e-05
0.000313882
0.000382385
0.000404969
0.000407448
0.000407111
0.000407338
0.000407118
0.000407457
0.00040497
0.000382393
0.000358975
0.000403727
0.000421402
0.000424952
0.000425491
0.00042681
0.000425481
0.000424943
0.000421403
0.000403764
0.000481528
0.000507903
0.000525129
0.000536278
0.000541509
0.000545116
0.000541494
0.000536267
0.000525135
0.000507959
0.000649753
0.000670221
0.000693353
0.000715073
0.000726515
0.000732763
0.000726505
0.000715072
0.00069337
0.000670286
0.000842276
0.000867812
0.000897143
0.000926986
0.000943988
0.000952468
0.000943986
0.000926994
0.000897171
0.000867877
0.00102244
0.00105382
0.00108223
0.00111502
0.00113571
0.00114508
0.00113571
0.00111503
0.00108227
0.00105387
0.00111345
0.0011439
0.00116452
0.00119707
0.00121982
0.00122863
0.00121982
0.00119708
0.00116457
0.00114394
0.00100388
0.00102281
0.001034
0.00106846
0.00109353
0.00110185
0.00109355
0.00106849
0.00103405
0.00102283
0.000285348
0.000298435
0.000301078
0.000313575
0.000324682
0.000328293
0.00032469
0.000313585
0.000301105
0.000298436
8.51543e-05
9.19446e-05
9.78514e-05
0.000101912
0.000105345
0.00010652
0.000105349
0.000101917
9.78593e-05
9.19464e-05
)
;

boundaryField
{
    leftWall
    {
        type            kqRWallFunction;
        value           nonuniform List<scalar> 
100
(
8.56734e-06
3.61242e-05
2.82233e-05
0.000144308
8.03448e-05
0.00026278
8.78368e-05
0.000310829
0.000109294
0.000146888
5.54639e-05
0.000172765
0.000194257
0.000235363
0.000219392
0.000249346
0.000239383
0.00023157
0.000252671
0.000110324
0.000126734
0.00025488
0.000246981
0.000272959
0.000258536
0.000274802
0.00027824
0.000256165
0.000298013
0.000151078
0.000165657
0.000290532
0.000261228
0.000300639
0.000263651
0.000297554
0.000280117
0.00027703
0.000303937
0.000182738
0.000171056
0.000309906
0.000270192
0.000321259
0.000268474
0.000315525
0.000282734
0.000294034
0.000309318
0.000199969
0.000173183
0.00031627
0.000271876
0.000327676
0.00026827
0.000321436
0.000282161
0.000299828
0.000310325
0.0002053
0.000171054
0.000309918
0.000270195
0.000321266
0.00026847
0.000315529
0.000282728
0.000294036
0.000309312
0.00019997
0.000165668
0.000290559
0.00026124
0.000300661
0.000263654
0.000297568
0.000280111
0.00027704
0.000303934
0.000182748
0.000126771
0.000254948
0.000247015
0.000273006
0.000258553
0.000274836
0.000278243
0.000256198
0.000298019
0.000151117
5.55209e-05
0.000172837
0.000194343
0.000235441
0.00021947
0.000249403
0.000239432
0.000231625
0.000252713
0.000110393
)
;
    }
    rightWall
    {
        type            kqRWallFunction;
        value           nonuniform List<scalar> 
100
(
6.29829e-05
3.36935e-05
2.16612e-05
2.24248e-05
1.9758e-05
2.31794e-05
1.92827e-05
2.5123e-05
1.69492e-05
8.51543e-05
6.02422e-05
3.22743e-05
1.98986e-05
2.27914e-05
1.90331e-05
2.44955e-05
1.88616e-05
2.70654e-05
1.64441e-05
9.19446e-05
5.89718e-05
3.62098e-05
2.25004e-05
2.64691e-05
2.01959e-05
2.70664e-05
1.94013e-05
2.94934e-05
1.68304e-05
9.78514e-05
6.08189e-05
3.94209e-05
2.36481e-05
2.87246e-05
2.05972e-05
2.95168e-05
1.9999e-05
3.2406e-05
1.77074e-05
0.000101912
6.1568e-05
4.14181e-05
2.4575e-05
3.08513e-05
2.11844e-05
3.14793e-05
2.04239e-05
3.45257e-05
1.80992e-05
0.000105345
6.17845e-05
4.22937e-05
2.50077e-05
3.14951e-05
2.13369e-05
3.19427e-05
2.04967e-05
3.50805e-05
1.82113e-05
0.00010652
6.15685e-05
4.14221e-05
2.45753e-05
3.08535e-05
2.11838e-05
3.14809e-05
2.04229e-05
3.45273e-05
1.80982e-05
0.000105349
6.08206e-05
3.94265e-05
2.36488e-05
2.87289e-05
2.05968e-05
2.95197e-05
1.99977e-05
3.24088e-05
1.77063e-05
0.000101917
5.89738e-05
3.62135e-05
2.24993e-05
2.64726e-05
2.01954e-05
2.70701e-05
1.94005e-05
2.94971e-05
1.68293e-05
9.78593e-05
6.02441e-05
3.22764e-05
1.98977e-05
2.27927e-05
1.90325e-05
2.44969e-05
1.88608e-05
2.70668e-05
1.64438e-05
9.19464e-05
)
;
    }
    leftSides_periodic0
    {
        type            cyclic;
    }
    leftSides_periodic1
    {
        type            cyclic;
    }
    rightSides_periodic0
    {
        type            cyclic;
    }
    rightSides_periodic1
    {
        type            cyclic;
    }
    leftInOut_periodic0
    {
        type            cyclic;
    }
    leftInOut_periodic1
    {
        type            cyclic;
    }
    rightInOut_periodic0
    {
        type            cyclic;
    }
    rightInOut_periodic1
    {
        type            cyclic;
    }
}


// ************************************************************************* //
