/*--------------------------------*- C++ -*----------------------------------*\
| =========                 |                                                 |
| \\      /  F ield         | OpenFOAM: The Open Source CFD Toolbox           |
|  \\    /   O peration     | Version:  v1906                                 |
|   \\  /    A nd           | Web:      www.OpenFOAM.com                      |
|    \\/     M anipulation  |                                                 |
\*---------------------------------------------------------------------------*/
FoamFile
{
    version     2.0;
    format      ascii;
    class       volScalarField;
    location    "39.6";
    object      pPrime2Mean;
}
// * * * * * * * * * * * * * * * * * * * * * * * * * * * * * * * * * * * * * //

dimensions      [2 -2 -4 0 0 0 0];


internalField   nonuniform List<scalar> 
2000
(
-2.28882e-05
0.131531
0.15214
0.185871
0.20927
0.21756
0.208866
0.185356
0.151735
0.13131
0.0111275
0.13159
0.151438
0.184898
0.208467
0.216734
0.208075
0.18441
0.150877
0.131449
0.00908852
0.136492
0.152412
0.186102
0.209656
0.218096
0.209412
0.185511
0.151852
0.136133
0.0579281
0.132799
0.155176
0.189245
0.21303
0.22154
0.212711
0.188768
0.154839
0.132605
0.0308781
0.13578
0.160639
0.194319
0.218271
0.226892
0.217943
0.193933
0.159986
0.135607
0.0454063
0.142529
0.168009
0.201365
0.225266
0.233973
0.224905
0.200966
0.167614
0.142357
0.0709648
0.151775
0.178036
0.210787
0.234346
0.24309
0.234129
0.210331
0.177608
0.151518
0.0975647
0.163425
0.191216
0.222414
0.245937
0.254536
0.245594
0.222004
0.190802
0.163311
0.12447
0.179459
0.207901
0.237309
0.25993
0.268478
0.259718
0.236998
0.207449
0.179197
0.157305
0.199917
0.22765
0.254803
0.2759
0.284222
0.275654
0.254408
0.227339
0.199768
0.290569
0.170811
0.0985489
0.0925426
0.10008
0.104404
0.100046
0.0924034
0.0984478
0.170679
0.290571
0.169353
0.0969429
0.0909691
0.0984859
0.102711
0.0981483
0.0907249
0.0966377
0.169224
0.287294
0.166878
0.0954971
0.089756
0.0971661
0.101606
0.0971584
0.0895424
0.0953064
0.166769
0.270092
0.163698
0.0944958
0.0891228
0.0969067
0.101259
0.0968666
0.0890427
0.0943089
0.163544
0.26288
0.15946
0.0934772
0.0888481
0.0969505
0.10141
0.0968056
0.0886326
0.0932026
0.159403
0.260553
0.152452
0.0920734
0.0883961
0.0969238
0.10145
0.0969391
0.0881805
0.0918217
0.152468
0.245363
0.142555
0.0904198
0.0878277
0.0969696
0.101648
0.0969925
0.0877094
0.0902996
0.142467
0.212681
0.130518
0.0885086
0.0874958
0.0973225
0.102068
0.0971336
0.0872402
0.0883789
0.130367
0.17433
0.117611
0.0867043
0.0873585
0.0977516
0.102781
0.0976505
0.0872192
0.0865231
0.117613
0.139395
0.105526
0.0851154
0.0877132
0.0982437
0.103283
0.0982571
0.0874996
0.084959
0.105572
0.360523
0.363464
0.353832
0.355837
0.360302
0.360744
0.360178
0.355671
0.353689
0.363264
0.354332
0.35737
0.347837
0.349827
0.354372
0.354744
0.354214
0.349554
0.347713
0.357336
0.349176
0.352261
0.342737
0.344755
0.349251
0.349598
0.349167
0.344526
0.342646
0.352131
0.345901
0.350288
0.340797
0.342909
0.347397
0.347795
0.34734
0.34269
0.340605
0.350061
0.345007
0.350372
0.341276
0.3433
0.347912
0.348257
0.347773
0.343193
0.34103
0.350275
0.343182
0.349453
0.340925
0.343033
0.347778
0.348143
0.347546
0.342918
0.340872
0.349358
0.340668
0.347673
0.340523
0.342319
0.347036
0.347485
0.346958
0.342115
0.340368
0.347586
0.337524
0.345228
0.33989
0.341433
0.346283
0.346832
0.346146
0.341377
0.339836
0.345112
0.334324
0.342501
0.339371
0.340904
0.345619
0.346338
0.345524
0.340614
0.339172
0.342335
0.331881
0.339903
0.339067
0.340473
0.345472
0.34623
0.345247
0.340267
0.339104
0.339825
0.792027
0.822601
0.800528
0.805193
0.80913
0.80785
0.809006
0.805128
0.800663
0.822714
0.782463
0.813021
0.790892
0.795635
0.799513
0.798372
0.799557
0.795675
0.791082
0.813175
0.775322
0.80525
0.783436
0.787962
0.792017
0.790735
0.792004
0.788157
0.783403
0.805393
0.774317
0.802759
0.781248
0.785934
0.78997
0.78862
0.789902
0.785866
0.781382
0.80275
0.777929
0.80382
0.783113
0.787512
0.791681
0.790398
0.791708
0.787579
0.783182
0.803907
0.780539
0.803366
0.783939
0.787979
0.792431
0.791178
0.79249
0.788004
0.784164
0.803633
0.781694
0.801939
0.784395
0.787628
0.792425
0.791191
0.792484
0.787735
0.784435
0.802069
0.781651
0.799318
0.78413
0.786701
0.792017
0.790747
0.791935
0.786741
0.784126
0.799273
0.780664
0.795595
0.783421
0.785416
0.791019
0.790228
0.791012
0.785427
0.78347
0.795708
0.779095
0.791271
0.782755
0.784269
0.790186
0.789566
0.790201
0.784363
0.782822
0.791367
1.64532
1.66776
1.63157
1.6273
1.61906
1.61287
1.61909
1.62754
1.63177
1.66792
1.6316
1.65377
1.61733
1.61345
1.60525
1.59903
1.60523
1.61354
1.61747
1.6539
1.62008
1.64222
1.60597
1.60239
1.59416
1.58819
1.59411
1.60251
1.60608
1.64226
1.61545
1.63822
1.60244
1.59927
1.5912
1.585
1.59124
1.59936
1.60257
1.63832
1.61661
1.63999
1.60482
1.60173
1.59394
1.58759
1.59382
1.60182
1.60487
1.64012
1.61754
1.64034
1.60596
1.60275
1.59506
1.58877
1.59502
1.60284
1.60601
1.64053
1.61864
1.63971
1.60646
1.60266
1.59546
1.58907
1.59544
1.60278
1.60658
1.63979
1.61856
1.63761
1.60655
1.60175
1.59513
1.58865
1.5952
1.60187
1.6066
1.63782
1.6175
1.6342
1.60641
1.60026
1.59424
1.5876
1.59424
1.60034
1.60641
1.63437
1.61589
1.62943
1.60575
1.59812
1.59258
1.58622
1.59275
1.59805
1.60587
1.62955
2.83113
2.80028
2.79773
2.81773
2.8227
2.82548
2.82283
2.81798
2.79797
2.80039
2.81183
2.7816
2.77884
2.79879
2.8037
2.80663
2.80368
2.79893
2.77903
2.78181
2.79587
2.76705
2.76401
2.784
2.78881
2.7918
2.78893
2.78419
2.7642
2.76713
2.79027
2.76345
2.76018
2.78028
2.78511
2.7881
2.78525
2.7806
2.76037
2.76361
2.79135
2.76773
2.76391
2.7846
2.78962
2.79247
2.78979
2.78483
2.76417
2.76782
2.79008
2.76984
2.7657
2.78714
2.79235
2.79512
2.79251
2.78733
2.76581
2.76988
2.78786
2.77046
2.76633
2.78852
2.79419
2.79689
2.79431
2.78861
2.76651
2.77072
2.78396
2.77014
2.7663
2.78919
2.7956
2.7981
2.79557
2.78926
2.76649
2.77042
2.77853
2.76925
2.76601
2.78945
2.79675
2.79909
2.79681
2.78951
2.76616
2.76932
2.77228
2.76762
2.76572
2.78896
2.79771
2.79982
2.79777
2.78909
2.7658
2.7675
4.20927
4.26931
4.23995
4.21611
4.19288
4.18319
4.19284
4.21629
4.23986
4.26915
4.1858
4.2441
4.21461
4.1913
4.16774
4.15838
4.16794
4.19132
4.21465
4.24407
4.16868
4.22426
4.1943
4.17112
4.14782
4.13826
4.14783
4.17134
4.19429
4.22419
4.16781
4.21811
4.18815
4.16494
4.14159
4.13207
4.14156
4.16494
4.18803
4.218
4.17901
4.22264
4.19227
4.16901
4.14546
4.13586
4.14552
4.16902
4.19239
4.22264
4.18785
4.225
4.19445
4.17016
4.14663
4.13698
4.14667
4.1701
4.19435
4.22489
4.1953
4.22526
4.19538
4.16946
4.14595
4.13606
4.14611
4.16943
4.19531
4.22522
4.20174
4.22492
4.19559
4.16767
4.14402
4.13374
4.14404
4.16772
4.19561
4.22487
4.20806
4.2245
4.19575
4.16503
4.1411
4.13041
4.14114
4.16504
4.19568
4.22438
4.21392
4.22362
4.19549
4.1617
4.1372
4.12614
4.13717
4.16173
4.19537
4.22365
6.27872
6.13679
6.11218
6.12505
6.12507
6.12967
6.12528
6.1253
6.11266
6.13714
6.24446
6.10557
6.08103
6.09364
6.09373
6.09842
6.09404
6.09396
6.08138
6.10589
6.21607
6.08055
6.05652
6.06948
6.0697
6.07461
6.06994
6.06984
6.05691
6.08087
6.20304
6.07192
6.04902
6.06304
6.06396
6.06889
6.06426
6.06355
6.04939
6.0723
6.19655
6.07434
6.05338
6.06923
6.07103
6.07606
6.07126
6.06957
6.05375
6.0746
6.18103
6.07184
6.05347
6.07192
6.07498
6.08007
6.07517
6.07206
6.05387
6.07211
6.15581
6.06571
6.05035
6.07217
6.07708
6.08227
6.07717
6.07239
6.05077
6.06593
6.12451
6.05656
6.04445
6.07023
6.07771
6.08287
6.07799
6.07046
6.04495
6.05672
6.09126
6.04481
6.03698
6.06685
6.07776
6.0828
6.07794
6.06703
6.03725
6.04488
6.05796
6.03132
6.02948
6.06273
6.07771
6.08258
6.07786
6.06313
6.02969
6.03161
8.49338
8.85635
8.82689
8.6606
8.52998
8.48239
8.52984
8.66014
8.82655
8.85643
8.45755
8.81049
8.78122
8.61465
8.48387
8.43612
8.48356
8.61413
8.78098
8.81053
8.43774
8.77851
8.74616
8.57808
8.44633
8.39852
8.44608
8.57755
8.74578
8.77847
8.46541
8.78221
8.74195
8.57116
8.43752
8.38952
8.43736
8.57067
8.7417
8.78218
8.55289
8.81253
8.76209
8.5847
8.44912
8.40013
8.44861
8.58417
8.76172
8.81237
8.63714
8.8437
8.77729
8.59253
8.45326
8.40373
8.453
8.59196
8.77703
8.84356
8.72512
8.87515
8.78888
8.59465
8.45083
8.40023
8.45058
8.5942
8.78837
8.87508
8.81081
8.9067
8.79623
8.59073
8.44119
8.38908
8.44087
8.59039
8.79569
8.90658
8.88896
8.93335
8.79656
8.57947
8.42321
8.36949
8.42284
8.57895
8.7961
8.93308
8.95105
8.94501
8.78497
8.55727
8.3951
8.3394
8.39461
8.55667
8.78448
8.94465
13.0805
12.2829
11.6159
11.1714
10.9071
10.8232
10.9062
11.1698
11.6143
12.2821
13.0768
12.2401
11.5689
11.1256
10.8617
10.778
10.8608
11.1242
11.5673
12.2395
13.1105
12.1917
11.5231
11.0844
10.8221
10.7387
10.8211
11.0829
11.5215
12.191
12.9996
12.1579
11.4957
11.0645
10.8049
10.7223
10.8041
11.0632
11.4942
12.157
12.9262
12.1319
11.4785
11.0577
10.8021
10.7205
10.8011
11.0561
11.4769
12.1312
12.8357
12.0819
11.4457
11.0373
10.7869
10.7063
10.7861
11.0359
11.4442
12.0812
12.6642
12.0061
11.399
11.0047
10.7606
10.6812
10.7598
11.0032
11.3976
12.0053
12.4399
11.9078
11.34
10.9605
10.7241
10.646
10.7232
10.9591
11.3387
11.9069
12.2061
11.7944
11.2714
10.9066
10.6792
10.6029
10.6784
10.9051
11.2699
11.7935
11.9808
11.6738
11.1969
10.8479
10.6315
10.5574
10.6308
10.8466
11.1957
11.6729
0.192347
0.222063
0.247702
0.271902
0.29183
0.299891
0.291481
0.271549
0.247454
0.221861
0.221533
0.241041
0.26388
0.285887
0.304371
0.312147
0.304073
0.285439
0.263592
0.240917
0.243649
0.25602
0.275265
0.295439
0.31286
0.32025
0.312687
0.29501
0.274881
0.255848
0.260386
0.267092
0.283264
0.30204
0.318539
0.32575
0.318199
0.301603
0.282925
0.266895
0.27244
0.27519
0.288712
0.306385
0.322105
0.329161
0.321789
0.306049
0.288399
0.274881
0.280867
0.280796
0.292448
0.309446
0.324677
0.331566
0.324389
0.309015
0.29211
0.28051
0.286539
0.284594
0.294827
0.311426
0.326378
0.333258
0.326176
0.311069
0.294546
0.28437
0.289406
0.286367
0.295885
0.312428
0.327286
0.333803
0.326941
0.312056
0.295574
0.286095
0.29003
0.286451
0.295868
0.312325
0.327003
0.333712
0.326805
0.311874
0.295475
0.286226
0.290108
0.286339
0.295643
0.31218
0.327021
0.333509
0.326628
0.311817
0.295389
0.286066
0.114122
0.0958843
0.0841961
0.0878277
0.0981636
0.103239
0.0982285
0.0875854
0.0838127
0.095787
0.0991058
0.0895367
0.0831394
0.0877609
0.0976753
0.10239
0.0975342
0.0876675
0.0829754
0.089407
0.0910072
0.0855637
0.082449
0.0874577
0.0968609
0.1014
0.0967522
0.0873318
0.0823002
0.0855618
0.0864964
0.0831318
0.0818176
0.0871201
0.0959969
0.100302
0.095932
0.0867844
0.081665
0.0830841
0.083683
0.081604
0.0812702
0.0868282
0.0953732
0.0995293
0.0952244
0.086689
0.0810509
0.0815468
0.0820312
0.080719
0.0809517
0.0865269
0.0950165
0.0990696
0.0948048
0.0863113
0.0806561
0.0805359
0.081068
0.0800171
0.0806847
0.0863876
0.0947437
0.0987396
0.0947361
0.0863457
0.0805779
0.0800323
0.0800648
0.0793953
0.0801067
0.0859337
0.094223
0.0982285
0.0940132
0.085659
0.0800362
0.0791931
0.0790024
0.0783081
0.0791092
0.0848446
0.0931053
0.0971222
0.0929337
0.0847664
0.07901
0.0782738
0.0782909
0.0777473
0.07831
0.0841446
0.0923233
0.0963249
0.0922527
0.0838928
0.0782127
0.077507
0.330782
0.33783
0.33942
0.340704
0.345491
0.346533
0.34549
0.340549
0.339144
0.337805
0.331299
0.336908
0.339907
0.341265
0.34605
0.347189
0.34598
0.341154
0.33963
0.336895
0.332315
0.336645
0.340784
0.342295
0.346973
0.348289
0.346827
0.342127
0.340631
0.336617
0.333736
0.336981
0.341896
0.343464
0.3482
0.349533
0.34794
0.34347
0.341621
0.336903
0.335165
0.337662
0.343084
0.345013
0.349617
0.350937
0.349413
0.344725
0.342852
0.337473
0.336679
0.338634
0.344503
0.346626
0.351032
0.352619
0.350925
0.346399
0.344313
0.338535
0.338631
0.340012
0.346237
0.348534
0.352936
0.354609
0.352837
0.348131
0.346039
0.339905
0.337528
0.338799
0.345285
0.347534
0.352018
0.353756
0.35186
0.347355
0.344973
0.338707
0.333061
0.334255
0.340784
0.34314
0.347626
0.349257
0.347366
0.342945
0.340555
0.334026
0.327482
0.328575
0.335144
0.33746
0.341888
0.343546
0.341803
0.337303
0.334833
0.328327
0.777617
0.78689
0.78224
0.783638
0.789608
0.789682
0.789631
0.783697
0.782207
0.786938
0.776224
0.783457
0.78183
0.783453
0.789377
0.789906
0.789318
0.78348
0.78175
0.783413
0.77533
0.780939
0.781454
0.783495
0.789356
0.790173
0.789339
0.783539
0.781435
0.780815
0.774446
0.77894
0.781069
0.783644
0.789351
0.79052
0.789371
0.783695
0.781134
0.778898
0.773842
0.777691
0.781216
0.783926
0.789761
0.791025
0.78974
0.783895
0.781172
0.777752
0.773991
0.777391
0.781757
0.784739
0.790537
0.791897
0.790535
0.784584
0.781681
0.777395
0.774998
0.777864
0.783087
0.78591
0.791988
0.793428
0.79191
0.786053
0.783165
0.777933
0.771597
0.774439
0.780102
0.783028
0.789177
0.790632
0.789164
0.783049
0.780214
0.774424
0.763226
0.765963
0.772038
0.775036
0.781124
0.782614
0.781069
0.774942
0.772091
0.765865
0.753807
0.756701
0.762781
0.76564
0.771856
0.77331
0.771856
0.765678
0.762774
0.756615
1.61334
1.62389
1.60461
1.59548
1.59059
1.58425
1.59056
1.59547
1.6047
1.62397
1.61044
1.61869
1.60327
1.59272
1.58852
1.58225
1.58846
1.59281
1.60336
1.61873
1.60803
1.61428
1.60196
1.59053
1.58682
1.58055
1.58672
1.59055
1.60222
1.61442
1.60682
1.61117
1.60115
1.58886
1.58551
1.57953
1.58549
1.58892
1.60119
1.6112
1.60634
1.60922
1.601
1.58801
1.58513
1.57918
1.58515
1.58815
1.60096
1.60934
1.60703
1.60875
1.60166
1.58845
1.58567
1.57998
1.58575
1.5885
1.60176
1.60868
1.60916
1.61008
1.60388
1.5901
1.58764
1.58201
1.58769
1.59018
1.60389
1.61015
1.60545
1.60618
1.60022
1.58641
1.58395
1.57828
1.58391
1.58644
1.60023
1.60604
1.59421
1.5948
1.58892
1.57497
1.57254
1.56704
1.57261
1.57494
1.58886
1.59487
1.58095
1.58158
1.57565
1.56163
1.55927
1.55369
1.55921
1.56162
1.57551
1.58162
2.766
2.76556
2.76551
2.78801
2.79818
2.80009
2.79826
2.78814
2.76565
2.76549
2.76109
2.76361
2.76538
2.78683
2.79809
2.79976
2.79818
2.78703
2.76555
2.76359
2.75772
2.76222
2.76549
2.78576
2.79797
2.7994
2.79802
2.78583
2.76582
2.76222
2.75546
2.76149
2.76604
2.7852
2.79813
2.79942
2.79816
2.78549
2.76605
2.76155
2.75447
2.76167
2.76724
2.78563
2.79877
2.80007
2.79889
2.78571
2.76727
2.76175
2.75493
2.76296
2.76908
2.78683
2.8002
2.80155
2.80046
2.78701
2.76918
2.76304
2.75723
2.76578
2.77223
2.78962
2.80328
2.80459
2.80331
2.78973
2.77231
2.76581
2.75169
2.76074
2.76713
2.78431
2.79814
2.7995
2.79824
2.78447
2.76735
2.76075
2.73601
2.74535
2.75171
2.76888
2.78263
2.78386
2.78261
2.76908
2.75186
2.74546
2.71771
2.72718
2.73362
2.75083
2.76468
2.7659
2.76461
2.75099
2.7336
2.72726
4.21739
4.2219
4.1941
4.15766
4.13239
4.12096
4.13253
4.15762
4.19407
4.22187
4.21889
4.21921
4.19187
4.15359
4.12789
4.11607
4.12798
4.15364
4.19184
4.21923
4.21987
4.21673
4.1894
4.15054
4.12477
4.11244
4.12477
4.1506
4.18951
4.21675
4.22087
4.21527
4.1875
4.1487
4.123
4.11043
4.12302
4.14879
4.18757
4.21513
4.2226
4.21499
4.18704
4.14849
4.12251
4.10985
4.12267
4.14838
4.18708
4.21486
4.2255
4.21623
4.18807
4.14974
4.12398
4.11114
4.124
4.14984
4.1881
4.21624
4.23089
4.22037
4.19158
4.15355
4.12768
4.1148
4.1278
4.15367
4.19172
4.22037
4.2265
4.21514
4.18613
4.14823
4.12232
4.10933
4.12243
4.14831
4.18598
4.21516
4.20795
4.19638
4.16674
4.12927
4.10334
4.09037
4.1034
4.12938
4.16686
4.19634
4.18491
4.17323
4.14356
4.10617
4.08025
4.06719
4.08036
4.10623
4.14353
4.17318
6.03048
6.02025
6.02423
6.06004
6.07822
6.08335
6.07844
6.06032
6.02441
6.02043
6.01094
6.01416
6.02173
6.05884
6.0794
6.08457
6.07962
6.05925
6.02207
6.01443
5.99845
6.01218
6.0208
6.05838
6.08008
6.08518
6.08025
6.05859
6.02115
6.01216
5.9908
6.01199
6.0205
6.05788
6.08016
6.08529
6.08039
6.05807
6.02096
6.01209
5.98631
6.01285
6.02118
6.05809
6.08067
6.08565
6.08088
6.05841
6.02155
6.013
5.98502
6.01556
6.02361
6.06018
6.08273
6.08789
6.08288
6.06058
6.02396
6.01567
5.98786
6.02109
6.02925
6.06546
6.0878
6.093
6.08811
6.06575
6.02948
6.02125
5.97889
6.01386
6.02178
6.05775
6.08018
6.08531
6.08041
6.058
6.02215
6.01399
5.95305
5.98889
5.99671
6.03276
6.05527
6.06041
6.05542
6.03308
5.99694
5.98915
5.92238
5.95855
5.96611
6.00231
6.02488
6.02994
6.02508
6.00256
5.96638
5.95868
8.98145
8.9367
8.75717
8.52298
8.35688
8.29986
8.35665
8.52242
8.75657
8.93652
8.98279
8.90941
8.71835
8.48319
8.31591
8.25777
8.31558
8.48256
8.71786
8.90907
8.96836
8.87681
8.67878
8.44565
8.27882
8.22059
8.27863
8.44506
8.67831
8.87669
8.9478
8.84528
8.64348
8.41348
8.2486
8.19016
8.24821
8.41289
8.6429
8.845
8.92846
8.81925
8.61666
8.38999
8.22678
8.16843
8.22642
8.38941
8.61611
8.81888
8.91489
8.80158
8.59895
8.37504
8.21314
8.15506
8.21276
8.37448
8.59844
8.80124
8.90975
8.79373
8.5914
8.36954
8.20889
8.15117
8.20856
8.36893
8.59082
8.79348
8.88936
8.77139
8.56937
8.34911
8.18959
8.13207
8.18923
8.34867
8.56891
8.77103
8.84537
8.72643
8.52472
8.30533
8.14627
8.08879
8.14588
8.30479
8.52405
8.72616
8.795
8.6756
8.47391
8.25502
8.0958
8.03853
8.09554
8.25439
8.47352
8.67533
11.7902
11.5592
11.1284
10.7999
10.5952
10.5239
10.5946
10.7986
11.1271
11.5585
11.6528
11.4702
11.0824
10.7744
10.5798
10.5114
10.5789
10.773
11.0811
11.4693
11.5653
11.4134
11.0598
10.7668
10.579
10.5128
10.5782
10.7654
11.0584
11.4125
11.5155
11.3821
11.0521
10.7688
10.5857
10.5207
10.5848
10.7675
11.0507
11.3812
11.4914
11.3689
11.0534
10.7764
10.596
10.5319
10.5951
10.775
11.0521
11.368
11.4845
11.369
11.0621
10.7885
10.6097
10.5459
10.6087
10.7872
11.0609
11.368
11.4937
11.383
11.0807
10.8081
10.6294
10.5658
10.6284
10.8068
11.0792
11.3821
11.4929
11.3863
11.0847
10.8113
10.6321
10.5684
10.631
10.8098
11.0835
11.3852
11.4668
11.3631
11.0609
10.7857
10.6057
10.5419
10.6047
10.7844
11.0595
11.3622
11.4248
11.3229
11.0199
10.7436
10.5632
10.4993
10.5623
10.7423
11.0185
11.3219
)
;

boundaryField
{
    leftWall
    {
        type            calculated;
        value           nonuniform List<scalar> 
100
(
-2.28882e-05
0.290569
0.360523
0.792027
1.64532
2.83113
4.20927
6.27872
8.49338
13.0805
0.131531
0.170811
0.363466
0.822605
1.66776
2.80028
4.26931
6.13679
8.85635
12.2829
0.15214
0.0985508
0.353832
0.800533
1.63157
2.79773
4.23995
6.11218
8.82689
11.6159
0.185869
0.0925426
0.355837
0.805195
1.6273
2.81773
4.21611
6.12505
8.66059
11.1714
0.20927
0.10008
0.360302
0.809132
1.61907
2.8227
4.19288
6.12507
8.52998
10.9071
0.21756
0.104404
0.360744
0.807846
1.61287
2.82547
4.18319
6.12967
8.48239
10.8232
0.208866
0.100046
0.360178
0.809006
1.61909
2.82283
4.19284
6.12528
8.52984
10.9062
0.185356
0.0924072
0.355667
0.805132
1.62755
2.81798
4.21629
6.1253
8.66014
11.1698
0.151735
0.0984497
0.353689
0.800663
1.63177
2.79797
4.23985
6.11266
8.82655
11.6143
0.13131
0.170679
0.363264
0.822716
1.66792
2.80039
4.26915
6.13714
8.85644
12.2821
)
;
    }
    rightWall
    {
        type            calculated;
        value           nonuniform List<scalar> 
100
(
0.290106
0.078289
0.327482
0.753807
1.58095
2.71771
4.18491
5.92238
8.795
11.4248
0.286337
0.0777454
0.328575
0.756695
1.58158
2.72718
4.17322
5.95855
8.6756
11.3229
0.295643
0.0783081
0.335144
0.762783
1.57565
2.73362
4.14356
5.9661
8.47391
11.0199
0.31218
0.0841446
0.337461
0.76564
1.56163
2.75083
4.10617
6.00231
8.25502
10.7436
0.327021
0.092329
0.341888
0.771854
1.55927
2.76468
4.08024
6.02488
8.0958
10.5632
0.333509
0.0963268
0.343546
0.77331
1.55369
2.7659
4.06719
6.02994
8.03853
10.4993
0.326628
0.0922527
0.341801
0.771851
1.55921
2.76461
4.08036
6.02508
8.09554
10.5623
0.311817
0.0838928
0.337303
0.765676
1.56162
2.75099
4.10623
6.00256
8.25439
10.7423
0.295391
0.0782146
0.334833
0.762774
1.57551
2.7336
4.14353
5.96638
8.47351
11.0185
0.286066
0.077507
0.328327
0.756613
1.58162
2.72726
4.17318
5.95868
8.67533
11.3219
)
;
    }
    leftSides_periodic0
    {
        type            cyclic;
    }
    leftSides_periodic1
    {
        type            cyclic;
    }
    rightSides_periodic0
    {
        type            cyclic;
    }
    rightSides_periodic1
    {
        type            cyclic;
    }
    leftInOut_periodic0
    {
        type            cyclic;
    }
    leftInOut_periodic1
    {
        type            cyclic;
    }
    rightInOut_periodic0
    {
        type            cyclic;
    }
    rightInOut_periodic1
    {
        type            cyclic;
    }
}


// ************************************************************************* //
