/*--------------------------------*- C++ -*----------------------------------*\
| =========                 |                                                 |
| \\      /  F ield         | OpenFOAM: The Open Source CFD Toolbox           |
|  \\    /   O peration     | Version:  v1912                                 |
|   \\  /    A nd           | Website:  www.openfoam.com                      |
|    \\/     M anipulation  |                                                 |
\*---------------------------------------------------------------------------*/
FoamFile
{
    version     2.0;
    format      ascii;
    class       volScalarField;
    location    "97.2";
    object      nut;
}
// * * * * * * * * * * * * * * * * * * * * * * * * * * * * * * * * * * * * * //

dimensions      [0 2 -1 0 0 0 0];


internalField   nonuniform List<scalar> 
2528
(
4.05152e-12
7.41243e-12
4.99982e-12
4.07244e-12
9.91346e-12
1.71952e-11
1.24614e-11
8.53874e-12
1.34751e-10
2.20886e-10
1.67424e-10
1.03955e-10
9.81456e-10
1.56722e-09
1.1943e-09
7.45976e-10
4.25056e-09
6.58477e-09
5.04803e-09
3.21173e-09
1.31933e-08
1.97216e-08
1.52608e-08
9.96742e-09
3.2444e-08
4.66415e-08
3.65388e-08
2.4658e-08
6.70215e-08
9.26166e-08
7.35731e-08
5.15416e-08
1.20876e-07
1.60875e-07
1.29613e-07
9.45033e-08
1.95753e-07
2.51839e-07
2.05569e-07
1.5607e-07
2.90951e-07
3.63506e-07
3.00043e-07
2.3688e-07
4.0388e-07
4.92468e-07
4.10063e-07
3.35801e-07
5.30933e-07
6.33677e-07
5.31954e-07
4.50498e-07
6.68651e-07
7.70291e-07
6.52133e-07
5.78099e-07
7.98764e-07
9.12274e-07
7.70105e-07
7.01372e-07
9.32591e-07
1.05925e-06
8.92234e-07
8.27669e-07
1.07086e-06
1.21102e-06
1.01758e-06
9.58232e-07
1.2124e-06
1.36661e-06
1.14513e-06
1.0932e-06
1.35639e-06
1.52513e-06
1.27406e-06
1.23213e-06
1.50214e-06
1.6856e-06
1.4036e-06
1.37458e-06
1.64933e-06
1.8471e-06
1.53314e-06
1.52005e-06
1.79811e-06
2.00892e-06
1.66222e-06
1.66813e-06
1.94905e-06
2.17073e-06
1.79059e-06
1.81879e-06
2.10257e-06
2.33249e-06
1.91832e-06
1.97248e-06
2.25656e-06
2.4942e-06
2.04579e-06
2.1297e-06
2.40982e-06
2.65493e-06
2.17334e-06
2.2885e-06
2.56268e-06
2.81479e-06
2.30008e-06
2.44593e-06
2.71453e-06
2.97319e-06
2.42267e-06
2.60154e-06
2.86496e-06
3.12846e-06
2.54132e-06
2.75426e-06
3.01388e-06
3.27865e-06
2.65446e-06
2.90521e-06
3.16132e-06
3.42395e-06
2.76032e-06
3.05868e-06
3.30747e-06
3.56744e-06
2.85752e-06
3.21949e-06
3.45332e-06
3.71215e-06
2.94731e-06
3.38861e-06
3.60219e-06
3.86053e-06
3.03738e-06
3.56228e-06
3.76157e-06
4.01806e-06
3.13975e-06
3.73453e-06
3.9445e-06
4.19679e-06
3.25722e-06
3.89859e-06
4.16531e-06
4.4126e-06
3.37502e-06
4.04622e-06
4.42305e-06
4.67479e-06
3.4764e-06
4.16772e-06
4.67612e-06
4.96671e-06
3.5595e-06
4.25627e-06
4.84477e-06
5.18536e-06
3.63172e-06
4.32009e-06
4.89973e-06
5.31943e-06
3.69927e-06
4.39302e-06
4.89932e-06
5.34202e-06
3.7669e-06
4.51612e-06
4.91045e-06
5.29263e-06
3.83983e-06
4.69734e-06
4.96293e-06
5.28312e-06
3.92634e-06
4.91127e-06
5.05943e-06
5.33007e-06
4.04094e-06
5.13039e-06
5.18597e-06
5.41932e-06
4.19901e-06
5.33746e-06
5.32404e-06
5.53921e-06
4.40422e-06
5.52382e-06
5.46218e-06
5.68573e-06
4.62655e-06
5.68598e-06
5.5962e-06
5.84597e-06
4.7519e-06
5.82313e-06
5.72591e-06
5.98068e-06
4.78875e-06
5.93606e-06
5.85227e-06
6.02158e-06
4.82491e-06
6.0288e-06
5.97576e-06
5.90375e-06
4.86328e-06
6.11001e-06
6.09639e-06
5.60522e-06
4.90669e-06
6.19407e-06
6.21524e-06
5.14635e-06
4.95744e-06
6.30276e-06
6.33673e-06
4.60216e-06
5.01731e-06
6.46736e-06
6.46994e-06
4.15865e-06
5.08759e-06
6.73586e-06
6.62606e-06
4.07428e-06
5.17021e-06
7.1591e-06
6.80884e-06
4.48564e-06
5.26695e-06
7.73246e-06
6.99758e-06
5.24517e-06
5.37356e-06
8.05356e-06
7.13065e-06
5.85812e-06
5.48585e-06
8.11297e-06
7.10933e-06
5.82662e-06
5.60498e-06
8.1482e-06
6.84326e-06
5.79829e-06
5.73236e-06
7.3626e-06
6.32393e-06
5.77694e-06
5.8691e-06
6.70322e-06
5.65137e-06
5.76477e-06
6.01765e-06
6.50902e-06
4.99246e-06
5.76566e-06
6.17989e-06
6.64112e-06
4.54123e-06
5.77857e-06
6.35653e-06
6.94878e-06
4.48662e-06
5.80518e-06
6.545e-06
7.37616e-06
4.88067e-06
5.84694e-06
6.74131e-06
7.89792e-06
5.59349e-06
5.90569e-06
6.94063e-06
8.33137e-06
6.38289e-06
5.98263e-06
7.13842e-06
8.32175e-06
6.87622e-06
6.07927e-06
7.3295e-06
8.28214e-06
6.84791e-06
6.19696e-06
7.51337e-06
8.20858e-06
6.81592e-06
6.33437e-06
7.69626e-06
8.09836e-06
6.76485e-06
6.48915e-06
7.88214e-06
7.95028e-06
6.69515e-06
6.65914e-06
8.07095e-06
7.76854e-06
6.60766e-06
6.84022e-06
8.26283e-06
7.56551e-06
6.50369e-06
7.02981e-06
8.45914e-06
7.34106e-06
6.38488e-06
7.22109e-06
8.66174e-06
7.09574e-06
6.25349e-06
7.40943e-06
8.87567e-06
6.83111e-06
6.64235e-12
9.39026e-12
9.29129e-12
1.126e-11
1.29855e-11
1.89978e-11
1.67809e-11
2.1149e-11
1.47255e-10
2.22002e-10
1.80614e-10
2.30954e-10
1.04148e-09
1.56863e-09
1.26867e-09
1.60587e-09
4.42413e-09
6.60109e-09
5.35814e-09
6.66643e-09
1.3476e-08
1.98309e-08
1.62035e-08
1.97616e-08
3.2558e-08
4.71137e-08
3.88153e-08
4.63815e-08
6.62664e-08
9.41064e-08
7.82622e-08
9.16955e-08
1.18215e-07
1.64589e-07
1.3824e-07
1.59062e-07
1.90128e-07
2.59533e-07
2.2014e-07
2.49295e-07
2.81684e-07
3.77329e-07
3.23047e-07
3.60961e-07
3.91056e-07
5.11253e-07
4.44474e-07
4.91318e-07
5.15677e-07
6.42678e-07
5.77564e-07
6.23743e-07
6.41311e-07
7.86554e-07
7.10981e-07
7.65244e-07
7.75597e-07
9.40422e-07
8.53847e-07
9.19699e-07
9.22499e-07
1.10362e-06
1.00515e-06
1.08682e-06
1.08183e-06
1.27618e-06
1.16466e-06
1.26609e-06
1.25279e-06
1.45677e-06
1.33184e-06
1.45678e-06
1.43402e-06
1.64306e-06
1.50621e-06
1.65799e-06
1.6236e-06
1.83679e-06
1.68765e-06
1.86856e-06
1.81941e-06
2.05035e-06
1.87706e-06
2.08702e-06
2.02003e-06
2.29005e-06
2.07587e-06
2.3116e-06
2.22535e-06
2.54172e-06
2.28233e-06
2.54014e-06
2.41911e-06
2.79042e-06
2.48994e-06
2.7702e-06
2.61161e-06
3.0414e-06
2.69347e-06
2.99911e-06
2.80456e-06
3.31399e-06
2.89257e-06
3.22248e-06
2.99795e-06
3.5275e-06
3.08171e-06
3.43407e-06
3.19138e-06
3.62021e-06
3.26052e-06
3.6445e-06
3.38429e-06
3.5091e-06
3.43637e-06
3.85335e-06
3.57595e-06
3.63795e-06
3.60867e-06
4.06028e-06
3.7653e-06
4.12412e-06
3.77659e-06
4.26508e-06
3.95079e-06
4.63725e-06
3.93901e-06
4.4676e-06
4.13032e-06
4.83907e-06
4.09452e-06
4.66781e-06
4.30108e-06
5.0283e-06
4.2436e-06
4.8657e-06
4.45955e-06
5.19988e-06
4.31546e-06
5.06133e-06
4.60226e-06
5.34865e-06
3.52708e-06
5.25474e-06
4.72931e-06
5.47024e-06
3.35575e-06
5.44601e-06
4.84629e-06
5.56277e-06
3.96095e-06
5.63518e-06
2.85901e-06
5.53808e-06
4.98683e-06
5.8222e-06
2.52358e-06
3.00472e-06
5.2738e-06
6.00684e-06
3.43813e-06
2.54021e-06
5.43837e-06
6.18894e-06
5.21706e-06
3.44082e-06
5.60106e-06
6.36912e-06
5.92904e-06
5.53913e-06
5.76041e-06
6.54824e-06
6.15798e-06
6.44801e-06
5.91377e-06
6.72655e-06
6.39389e-06
6.64647e-06
6.05774e-06
6.90434e-06
6.63294e-06
6.85366e-06
6.18944e-06
7.08203e-06
6.87214e-06
7.06937e-06
6.30518e-06
7.26025e-06
7.10967e-06
7.29382e-06
6.40093e-06
7.43985e-06
7.34409e-06
7.52057e-06
6.47317e-06
7.62197e-06
7.57488e-06
7.73202e-06
6.52068e-06
7.80759e-06
7.80179e-06
7.91818e-06
6.54537e-06
7.9947e-06
8.02469e-06
8.08085e-06
3.92064e-06
8.17458e-06
8.24344e-06
8.2246e-06
2.67018e-06
8.33632e-06
8.45782e-06
8.35384e-06
3.45118e-06
8.47082e-06
8.66757e-06
8.47268e-06
6.20532e-06
8.5659e-06
8.87236e-06
8.5848e-06
7.09352e-06
8.61404e-06
9.07192e-06
8.69291e-06
7.27111e-06
8.60633e-06
9.26607e-06
8.79848e-06
7.47457e-06
8.54474e-06
9.45498e-06
8.90189e-06
7.70783e-06
8.42362e-06
9.64049e-06
9.00208e-06
7.98132e-06
3.82947e-06
9.82572e-06
9.09818e-06
8.29195e-06
2.56467e-06
1.00115e-05
9.18976e-06
8.61065e-06
3.40766e-06
1.01981e-05
9.27695e-06
8.91951e-06
6.24828e-06
1.03875e-05
9.3603e-06
9.2146e-06
9.05509e-06
1.05768e-05
9.44016e-06
9.49343e-06
9.303e-06
1.0752e-05
9.51657e-06
9.75431e-06
9.57525e-06
1.09205e-05
9.58341e-06
9.99761e-06
9.86439e-06
9.85195e-06
9.64147e-06
1.02237e-05
1.01683e-05
9.05285e-06
9.69117e-06
1.04324e-05
1.04939e-05
1.03933e-05
9.73271e-06
1.0624e-05
1.08623e-05
1.14826e-05
9.76601e-06
1.08022e-05
1.12359e-05
1.1576e-05
9.7927e-06
1.09651e-05
1.1569e-05
1.16563e-05
9.81324e-06
1.11137e-05
1.18723e-05
1.17508e-05
9.82635e-06
1.12485e-05
1.21563e-05
1.18578e-05
9.83292e-06
1.13703e-05
1.2429e-05
1.19747e-05
9.83344e-06
1.14799e-05
1.26965e-05
1.20985e-05
9.8287e-06
1.15775e-05
1.29618e-05
1.22258e-05
9.81902e-06
1.16633e-05
1.32229e-05
1.23529e-05
9.80448e-06
1.17367e-05
1.34796e-05
1.23048e-11
1.20638e-11
1.08317e-11
1.15198e-11
2.35133e-11
1.79798e-11
1.67902e-11
1.66075e-11
2.35078e-10
1.57977e-10
1.3336e-10
1.24919e-10
1.58318e-09
1.08993e-09
8.84736e-10
8.33203e-10
6.44961e-09
4.58382e-09
3.63943e-09
3.45314e-09
1.88823e-08
1.37897e-08
1.0807e-08
1.02977e-08
4.38819e-08
3.282e-08
2.5565e-08
2.43807e-08
8.59574e-08
6.57556e-08
5.11849e-08
4.8709e-08
1.47805e-07
1.15597e-07
9.02922e-08
8.55392e-08
2.29838e-07
1.83655e-07
1.44376e-07
1.35937e-07
3.30591e-07
2.69566e-07
2.13687e-07
1.9976e-07
4.43325e-07
3.71753e-07
2.97466e-07
2.75956e-07
5.58256e-07
4.88003e-07
3.94337e-07
3.62971e-07
6.82851e-07
6.04538e-07
4.99202e-07
4.59125e-07
8.17214e-07
7.28454e-07
6.07371e-07
5.56855e-07
9.61551e-07
8.62092e-07
7.24149e-07
6.60483e-07
1.11575e-06
1.00519e-06
8.49913e-07
7.7206e-07
1.27978e-06
1.15736e-06
9.85138e-07
8.91745e-07
1.45356e-06
1.31827e-06
1.13032e-06
1.0198e-06
1.63704e-06
1.4876e-06
1.28639e-06
1.15659e-06
1.83012e-06
1.66504e-06
1.45344e-06
1.30188e-06
2.03243e-06
1.85019e-06
1.62902e-06
1.44965e-06
2.24299e-06
2.04243e-06
1.81019e-06
1.5916e-06
2.46005e-06
2.24094e-06
1.99581e-06
1.73601e-06
2.68155e-06
2.44476e-06
2.17659e-06
1.88272e-06
2.90628e-06
2.65271e-06
2.35592e-06
2.03141e-06
3.13664e-06
2.86316e-06
2.5375e-06
2.18178e-06
3.3758e-06
3.07642e-06
2.7207e-06
2.33351e-06
3.61983e-06
3.29315e-06
2.90489e-06
2.48636e-06
3.8594e-06
3.51411e-06
3.08944e-06
2.64011e-06
4.06804e-06
3.73772e-06
3.27378e-06
2.79453e-06
4.26707e-06
3.95923e-06
3.45737e-06
2.94929e-06
4.45995e-06
4.17382e-06
3.63975e-06
3.1039e-06
4.6452e-06
4.37734e-06
3.82052e-06
3.25783e-06
4.82122e-06
4.56294e-06
3.99929e-06
3.4106e-06
4.98648e-06
4.71855e-06
4.1755e-06
3.56182e-06
5.13973e-06
4.83281e-06
4.34828e-06
3.71123e-06
5.28841e-06
4.90696e-06
4.51641e-06
3.85879e-06
5.42485e-06
4.96536e-06
4.67927e-06
4.00468e-06
5.37006e-06
5.05983e-06
4.83639e-06
4.14936e-06
5.45109e-06
5.25427e-06
4.98735e-06
4.29342e-06
5.70852e-06
5.56326e-06
5.13168e-06
4.43693e-06
6.03701e-06
5.9092e-06
5.26884e-06
4.57899e-06
6.17034e-06
6.20313e-06
5.39829e-06
4.71826e-06
6.28762e-06
6.37357e-06
5.52048e-06
4.8535e-06
6.38809e-06
6.53503e-06
5.63462e-06
4.98348e-06
6.47104e-06
6.69005e-06
5.74008e-06
5.10677e-06
6.53599e-06
6.83727e-06
5.83652e-06
5.22155e-06
6.58233e-06
6.97434e-06
5.92418e-06
5.32538e-06
6.60934e-06
7.09733e-06
6.00415e-06
5.4148e-06
6.61625e-06
7.20469e-06
6.07877e-06
5.48756e-06
6.60228e-06
7.29594e-06
6.15185e-06
5.5458e-06
6.56656e-06
7.37103e-06
6.22902e-06
5.5924e-06
6.50828e-06
7.43025e-06
6.31315e-06
5.62624e-06
6.42646e-06
7.47421e-06
6.39911e-06
5.64663e-06
6.31872e-06
7.50309e-06
6.48285e-06
5.65335e-06
6.18372e-06
7.51636e-06
6.56607e-06
5.64674e-06
6.02174e-06
7.51443e-06
6.65185e-06
5.62873e-06
5.83355e-06
7.49879e-06
6.74363e-06
5.60326e-06
5.62062e-06
7.47144e-06
6.84506e-06
5.57743e-06
5.38518e-06
7.43493e-06
6.96088e-06
5.56357e-06
5.13031e-06
7.39235e-06
7.08511e-06
5.56767e-06
4.8603e-06
7.34679e-06
7.20687e-06
5.58274e-06
4.58124e-06
7.30159e-06
7.32128e-06
5.60333e-06
4.30211e-06
7.26065e-06
7.42768e-06
5.62577e-06
4.03635e-06
7.22579e-06
7.52579e-06
5.64647e-06
3.80293e-06
7.19598e-06
7.61547e-06
5.65991e-06
3.61822e-06
7.17178e-06
7.69626e-06
5.65946e-06
3.482e-06
7.15508e-06
7.76869e-06
5.64166e-06
3.38628e-06
7.14905e-06
7.83037e-06
5.60378e-06
3.32165e-06
7.15744e-06
7.87974e-06
5.54303e-06
3.27881e-06
7.181e-06
7.91592e-06
5.45729e-06
3.24954e-06
7.22007e-06
7.93795e-06
5.34563e-06
3.22728e-06
7.27383e-06
7.94583e-06
5.20769e-06
3.20682e-06
7.34009e-06
7.9401e-06
5.043e-06
3.18386e-06
7.41606e-06
7.92232e-06
4.85251e-06
3.15466e-06
7.49858e-06
7.89574e-06
4.63753e-06
3.11563e-06
7.58519e-06
7.8658e-06
4.40009e-06
3.06315e-06
7.67437e-06
7.84168e-06
4.14309e-06
5.24427e-12
6.16218e-12
6.51425e-12
8.65427e-12
8.58254e-12
1.04224e-11
1.02438e-11
1.9162e-11
8.96765e-11
1.08759e-10
1.00834e-10
2.44266e-10
6.43592e-10
7.68726e-10
7.15676e-10
1.74656e-09
2.78243e-09
3.26624e-09
3.0641e-09
7.3659e-09
8.60224e-09
9.92632e-09
9.34997e-09
2.20067e-08
2.10164e-08
2.38684e-08
2.24739e-08
5.15731e-08
4.30852e-08
4.82498e-08
4.524e-08
1.00914e-07
7.71537e-08
8.53866e-08
7.95058e-08
1.72125e-07
1.2425e-07
1.36195e-07
1.2572e-07
2.64219e-07
1.83974e-07
2.00148e-07
1.82981e-07
3.7396e-07
2.54785e-07
2.75612e-07
2.49426e-07
4.96935e-07
3.34592e-07
3.60407e-07
3.1419e-07
6.13356e-07
4.10001e-07
4.41364e-07
3.8073e-07
7.37324e-07
4.90322e-07
5.26535e-07
4.51335e-07
8.67995e-07
5.75924e-07
6.16792e-07
5.25437e-07
1.00429e-06
6.6647e-07
7.11592e-07
6.0257e-07
1.14538e-06
7.61497e-07
8.10465e-07
6.82419e-07
1.29058e-06
8.59377e-07
9.12942e-07
7.64764e-07
1.43921e-06
9.56617e-07
1.01858e-06
8.49387e-07
1.59014e-06
1.04971e-06
1.12758e-06
9.35691e-07
1.74141e-06
1.14066e-06
1.24209e-06
1.02223e-06
1.89133e-06
1.24202e-06
1.36661e-06
1.10719e-06
2.04334e-06
1.37441e-06
1.50377e-06
1.19168e-06
2.21278e-06
1.55278e-06
1.64352e-06
1.28474e-06
2.42203e-06
1.7652e-06
1.75722e-06
1.40442e-06
2.6813e-06
1.95864e-06
1.82138e-06
1.56554e-06
2.92922e-06
2.10786e-06
1.85966e-06
1.75474e-06
3.04135e-06
2.26091e-06
1.94369e-06
1.91735e-06
2.97723e-06
2.41807e-06
2.1448e-06
2.02764e-06
2.87814e-06
2.57943e-06
2.46682e-06
2.13522e-06
2.96997e-06
2.74482e-06
2.7469e-06
2.12183e-06
3.39231e-06
2.91394e-06
2.89991e-06
1.92222e-06
3.99209e-06
3.0864e-06
3.05395e-06
1.7052e-06
4.15972e-06
3.26191e-06
3.20835e-06
1.72228e-06
4.31807e-06
3.44021e-06
3.35702e-06
2.11811e-06
4.46837e-06
3.62103e-06
3.51533e-06
2.74855e-06
4.60777e-06
3.8043e-06
3.67234e-06
2.85838e-06
4.73373e-06
3.99004e-06
3.83e-06
2.96736e-06
4.04414e-06
4.17824e-06
3.9902e-06
3.07787e-06
3.0707e-06
4.36881e-06
4.15492e-06
3.18901e-06
2.63227e-06
4.56148e-06
4.32449e-06
3.30075e-06
3.22227e-06
4.7558e-06
4.49114e-06
3.4131e-06
5.25569e-06
4.95116e-06
4.65018e-06
3.52596e-06
5.35912e-06
5.14694e-06
4.80786e-06
3.63919e-06
5.4614e-06
5.34249e-06
4.96379e-06
3.75266e-06
5.57121e-06
5.53712e-06
5.11756e-06
3.86624e-06
5.68356e-06
5.73012e-06
5.26887e-06
3.97978e-06
5.79153e-06
5.92074e-06
5.41782e-06
4.09322e-06
5.88973e-06
6.10955e-06
5.56669e-06
4.20666e-06
5.9706e-06
6.29781e-06
5.71412e-06
4.32026e-06
6.0365e-06
6.48574e-06
5.85936e-06
4.4343e-06
6.09774e-06
6.67323e-06
6.0022e-06
4.54913e-06
6.15626e-06
6.85984e-06
6.1434e-06
4.66512e-06
6.21299e-06
7.04451e-06
6.28408e-06
4.78264e-06
6.26821e-06
7.22512e-06
6.42437e-06
4.90204e-06
6.32148e-06
7.39814e-06
6.56373e-06
5.02368e-06
6.37176e-06
7.55826e-06
6.70097e-06
5.14782e-06
6.41804e-06
7.69831e-06
6.83456e-06
5.27445e-06
6.46034e-06
7.811e-06
6.963e-06
5.40305e-06
6.49966e-06
7.8873e-06
7.08501e-06
5.53195e-06
4.68757e-06
7.92541e-06
7.19865e-06
5.66628e-06
2.95392e-06
7.93241e-06
7.29989e-06
5.80668e-06
3.28198e-06
7.92868e-06
7.38834e-06
5.95023e-06
6.64008e-06
4.74335e-06
7.18738e-06
6.09441e-06
6.7122e-06
2.7933e-06
7.23387e-06
6.23675e-06
6.80567e-06
3.02492e-06
7.55867e-06
6.37357e-06
6.94284e-06
7.5752e-06
7.58157e-06
6.50195e-06
7.12252e-06
8.09891e-06
7.5892e-06
6.6169e-06
7.3316e-06
8.21267e-06
7.58076e-06
6.71466e-06
7.56774e-06
8.34103e-06
7.55454e-06
6.79059e-06
7.8292e-06
8.48005e-06
7.51009e-06
6.85012e-06
8.11412e-06
8.62868e-06
7.44611e-06
6.90376e-06
8.41747e-06
8.78639e-06
7.36183e-06
6.94813e-06
8.73065e-06
8.95207e-06
7.25826e-06
6.98088e-06
9.04033e-06
9.12827e-06
7.13871e-06
7.00307e-06
9.31842e-06
9.32553e-06
7.00642e-06
7.01881e-06
9.55995e-06
9.5281e-06
6.87094e-06
6.71402e-06
9.77457e-06
9.7119e-06
6.73745e-06
2.75561e-06
9.97001e-06
6.11459e-06
7.59008e-06
8.86702e-06
6.55395e-06
5.97382e-06
7.75846e-06
9.34324e-06
6.27712e-06
5.83583e-06
7.90913e-06
9.60449e-06
6.01181e-06
5.70429e-06
8.04273e-06
9.80631e-06
5.76735e-06
5.58226e-06
8.16472e-06
9.9723e-06
5.55226e-06
5.47221e-06
8.27238e-06
1.00988e-05
5.37354e-06
5.37744e-06
8.36393e-06
1.0185e-05
5.23587e-06
5.30025e-06
8.43806e-06
1.02326e-05
5.14093e-06
5.24508e-06
8.494e-06
1.0245e-05
5.08683e-06
5.21398e-06
8.53089e-06
1.02268e-05
5.06865e-06
5.20818e-06
8.56002e-06
1.01831e-05
5.07981e-06
5.23194e-06
8.58369e-06
1.01191e-05
5.10688e-06
5.28562e-06
8.22167e-06
1.00399e-05
5.13759e-06
5.36288e-06
7.06788e-06
9.95067e-06
5.16692e-06
5.45885e-06
6.46043e-06
9.85659e-06
5.19186e-06
5.56603e-06
6.8926e-06
9.76442e-06
5.21035e-06
5.67707e-06
8.06639e-06
9.68185e-06
5.22228e-06
5.7877e-06
8.9765e-06
9.60506e-06
5.22772e-06
5.89458e-06
9.05267e-06
9.52441e-06
5.22682e-06
5.99619e-06
9.10916e-06
9.43372e-06
5.21973e-06
6.09332e-06
9.14173e-06
9.32915e-06
5.20666e-06
6.18628e-06
9.14817e-06
9.20856e-06
5.18795e-06
6.27294e-06
9.12129e-06
9.07105e-06
5.16418e-06
6.35072e-06
9.06348e-06
8.9167e-06
5.13631e-06
6.41709e-06
8.9783e-06
8.74615e-06
5.10583e-06
6.46983e-06
8.86748e-06
8.56031e-06
5.07468e-06
6.5072e-06
8.73429e-06
8.36008e-06
5.04487e-06
6.52799e-06
8.58186e-06
8.14774e-06
5.01784e-06
6.53159e-06
8.41324e-06
7.9254e-06
4.99315e-06
6.34353e-06
8.23144e-06
7.69491e-06
4.91698e-06
6.02848e-06
8.04037e-06
7.45686e-06
4.61285e-06
5.7394e-06
7.84101e-06
7.21116e-06
4.40828e-06
5.53781e-06
7.63425e-06
6.95834e-06
4.34983e-06
5.45104e-06
7.42089e-06
6.69937e-06
4.39431e-06
5.4744e-06
7.20156e-06
6.43672e-06
4.47141e-06
5.56343e-06
6.97693e-06
6.17291e-06
4.5096e-06
5.63959e-06
6.7528e-06
5.90944e-06
4.47849e-06
5.6404e-06
6.52478e-06
5.64671e-06
4.39307e-06
5.5582e-06
6.29071e-06
5.38471e-06
4.27999e-06
5.42116e-06
6.0508e-06
5.12351e-06
4.15374e-06
5.25933e-06
5.80571e-06
4.86333e-06
4.01872e-06
5.09373e-06
5.55638e-06
4.60459e-06
3.87303e-06
4.93596e-06
5.30395e-06
4.34784e-06
3.70796e-06
4.78033e-06
5.04963e-06
4.09376e-06
3.52243e-06
4.60308e-06
4.7946e-06
3.84314e-06
3.33016e-06
4.38594e-06
4.5399e-06
3.59669e-06
3.14518e-06
4.13703e-06
4.28632e-06
3.35506e-06
2.97162e-06
3.87834e-06
4.03448e-06
3.11876e-06
2.80665e-06
3.6257e-06
3.78501e-06
2.88823e-06
2.64654e-06
3.38461e-06
3.53679e-06
2.66389e-06
2.48898e-06
3.15429e-06
3.28224e-06
2.44606e-06
2.3315e-06
2.93184e-06
3.00087e-06
2.23484e-06
2.16746e-06
2.71463e-06
2.72523e-06
2.02915e-06
1.99564e-06
2.50111e-06
2.46085e-06
1.82863e-06
1.82819e-06
2.28923e-06
2.21028e-06
1.61965e-06
1.66722e-06
2.07956e-06
1.97383e-06
1.41562e-06
1.51259e-06
1.87673e-06
1.75151e-06
1.22855e-06
1.36366e-06
1.68183e-06
1.54317e-06
1.05899e-06
1.21997e-06
1.49518e-06
1.34861e-06
9.05449e-07
1.08147e-06
1.31706e-06
1.16756e-06
7.66534e-07
9.48396e-07
1.14784e-06
9.99772e-07
6.40752e-07
8.21218e-07
9.87947e-07
8.4506e-07
5.23006e-07
7.00609e-07
8.37899e-07
7.03207e-07
4.10136e-07
5.8718e-07
6.98227e-07
5.72994e-07
3.10866e-07
4.77136e-07
5.69388e-07
4.3973e-07
2.26277e-07
3.65498e-07
4.51011e-07
3.22553e-07
1.57058e-07
2.67012e-07
3.27626e-07
2.23951e-07
1.03199e-07
1.84289e-07
2.22584e-07
1.45603e-07
6.37415e-08
1.18966e-07
1.39112e-07
8.77021e-08
3.67632e-08
7.11225e-08
7.85336e-08
4.84793e-08
1.96655e-08
3.90254e-08
3.93167e-08
2.43983e-08
9.67456e-09
1.94881e-08
1.71386e-08
1.10834e-08
4.32206e-09
8.7663e-09
6.3793e-09
4.47835e-09
1.71776e-09
3.49247e-09
1.97398e-09
1.56238e-09
5.8712e-10
1.19453e-09
4.85641e-10
4.43905e-10
1.63043e-10
3.31267e-10
8.75279e-11
9.20994e-11
3.34081e-11
6.71969e-11
1.00769e-11
1.17153e-11
4.46914e-12
8.53355e-12
1.14786e-12
1.22935e-12
7.2389e-13
1.03632e-12
1.00922e-12
7.39343e-13
5.81043e-13
7.17095e-13
1.24761e-05
9.78423e-06
1.17953e-05
1.372e-05
1.25909e-05
9.76015e-06
1.18353e-05
1.39316e-05
1.26934e-05
9.73725e-06
1.18543e-05
1.41055e-05
1.27806e-05
9.71609e-06
1.18518e-05
1.42382e-05
1.28505e-05
9.6964e-06
1.18276e-05
1.43307e-05
1.28923e-05
9.67759e-06
1.17825e-05
1.19614e-05
1.28968e-05
9.65915e-06
1.17182e-05
1.21519e-05
1.28699e-05
9.64082e-06
1.16361e-05
1.4451e-05
1.28229e-05
9.62269e-06
1.15376e-05
1.44495e-05
1.27613e-05
9.60508e-06
1.14239e-05
1.44245e-05
1.26856e-05
9.57459e-06
1.12959e-05
1.43805e-05
1.25964e-05
9.5318e-06
1.11544e-05
1.43183e-05
1.24937e-05
9.47693e-06
1.1e-05
1.42357e-05
1.23769e-05
9.41009e-06
1.08332e-05
1.41299e-05
1.22447e-05
9.33145e-06
1.06544e-05
1.39981e-05
1.20959e-05
9.24084e-06
1.04641e-05
1.3833e-05
1.19294e-05
9.13734e-06
1.02625e-05
1.36227e-05
1.17447e-05
9.02002e-06
1.00501e-05
1.33678e-05
1.15419e-05
8.88841e-06
9.82705e-06
1.30685e-05
1.13214e-05
8.7425e-06
9.59378e-06
1.27268e-05
1.10868e-05
8.58271e-06
9.35086e-06
1.23556e-05
1.08403e-05
8.41016e-06
9.09902e-06
1.19739e-05
1.05841e-05
8.23365e-06
8.83905e-06
1.15879e-05
1.032e-05
8.05349e-06
8.57181e-06
1.11943e-05
1.00499e-05
7.86965e-06
8.29826e-06
9.89723e-06
9.7754e-06
7.68253e-06
8.0197e-06
6.598e-06
9.49827e-06
7.49277e-06
7.73554e-06
4.41006e-06
9.22027e-06
7.30105e-06
7.44506e-06
4.0668e-06
8.94283e-06
7.10803e-06
7.15011e-06
5.68785e-06
8.66629e-06
6.91407e-06
6.8533e-06
9.28086e-06
8.39044e-06
6.71753e-06
6.55839e-06
9.16087e-06
8.11527e-06
6.51932e-06
6.27077e-06
9.01313e-06
7.841e-06
6.31918e-06
5.89272e-06
8.8217e-06
7.56772e-06
6.11733e-06
3.8673e-06
8.5918e-06
7.29559e-06
5.9148e-06
2.65308e-06
8.33102e-06
7.02468e-06
5.71308e-06
2.46178e-06
8.04702e-06
6.75464e-06
5.51262e-06
3.34359e-06
7.74661e-06
6.48541e-06
5.31334e-06
4.65212e-06
7.43524e-06
6.21785e-06
5.1134e-06
4.4715e-06
7.11721e-06
5.94898e-06
4.90913e-06
4.28125e-06
6.79576e-06
5.67966e-06
4.7014e-06
4.07231e-06
5.74399e-06
5.4109e-06
4.44093e-06
3.85259e-06
4.6356e-06
4.35183e-06
3.60949e-06
3.60847e-06
4.13089e-06
3.35692e-06
2.90727e-06
3.01743e-06
4.32108e-06
2.94878e-06
2.69376e-06
2.55363e-06
4.84028e-06
3.23432e-06
2.954e-06
2.37575e-06
4.83062e-06
3.94347e-06
3.36579e-06
2.41426e-06
4.5637e-06
3.8274e-06
3.24434e-06
2.43253e-06
4.27714e-06
3.61103e-06
3.06531e-06
2.26625e-06
3.8476e-06
3.38698e-06
2.86334e-06
1.98322e-06
3.43748e-06
3.04295e-06
2.56974e-06
1.72324e-06
3.09955e-06
2.71744e-06
2.29527e-06
1.53535e-06
2.86871e-06
2.41614e-06
2.06009e-06
1.39504e-06
2.6959e-06
2.1836e-06
1.8761e-06
1.27286e-06
2.51647e-06
1.99843e-06
1.72222e-06
1.1548e-06
2.30425e-06
1.82585e-06
1.57611e-06
1.03874e-06
2.07128e-06
1.65343e-06
1.42938e-06
9.26343e-07
1.84827e-06
1.48434e-06
1.28349e-06
8.18966e-07
1.64327e-06
1.32258e-06
1.14188e-06
7.17129e-07
1.45341e-06
1.16884e-06
1.00634e-06
6.20853e-07
1.27457e-06
1.02245e-06
8.77267e-07
5.30032e-07
1.10479e-06
8.82986e-07
7.54669e-07
4.44392e-07
9.43742e-07
7.50508e-07
6.38583e-07
3.55451e-07
7.91352e-07
6.25139e-07
5.28908e-07
2.68305e-07
6.48052e-07
5.07237e-07
4.20432e-07
1.9357e-07
4.99199e-07
3.83303e-07
3.09391e-07
1.32641e-07
3.6484e-07
2.70691e-07
2.14486e-07
8.58224e-08
2.51495e-07
1.78381e-07
1.38574e-07
5.21636e-08
1.61733e-07
1.08375e-07
8.25917e-08
2.96422e-08
9.6022e-08
6.00455e-08
4.50152e-08
1.5663e-08
5.2152e-08
3.00531e-08
2.22624e-08
7.6338e-09
2.56987e-08
1.34497e-08
9.89359e-09
3.38636e-09
1.13732e-08
5.2946e-09
3.88477e-09
1.33775e-09
4.44325e-09
1.7785e-09
1.30635e-09
4.54149e-10
1.4851e-09
4.8201e-10
3.55581e-10
1.24862e-10
4.01358e-10
9.5082e-11
7.06863e-11
2.5073e-11
7.91209e-11
1.13203e-11
8.51696e-12
3.08854e-12
9.40798e-12
8.38823e-13
6.46917e-13
2.88362e-13
6.58128e-13
4.26442e-13
3.35543e-13
1.89784e-13
3.07102e-13
2.99424e-06
7.76414e-06
7.83596e-06
3.87227e-06
2.90738e-06
7.84719e-06
7.85048e-06
3.59633e-06
2.80152e-06
7.9152e-06
7.87395e-06
3.3213e-06
2.6751e-06
7.96614e-06
7.89499e-06
3.04945e-06
2.52694e-06
8.00019e-06
7.51093e-06
2.78157e-06
2.36275e-06
8.01813e-06
6.80741e-06
2.51867e-06
2.18539e-06
8.02121e-06
6.36108e-06
2.26649e-06
1.99641e-06
8.01103e-06
6.16606e-06
2.03649e-06
1.79622e-06
7.98967e-06
6.1186e-06
1.84531e-06
1.591e-06
7.95978e-06
6.15705e-06
1.71784e-06
1.3914e-06
7.92465e-06
6.27063e-06
1.68369e-06
1.2115e-06
7.88841e-06
6.47672e-06
1.74302e-06
1.06932e-06
7.85579e-06
6.77941e-06
1.86497e-06
9.86063e-07
7.83157e-06
7.09906e-06
2.0209e-06
9.8704e-07
7.82103e-06
6.97984e-06
2.19071e-06
1.07894e-06
7.82871e-06
6.84245e-06
2.36372e-06
1.24032e-06
7.85628e-06
6.71377e-06
2.53465e-06
1.44534e-06
7.898e-06
6.38927e-06
2.69758e-06
1.67604e-06
7.94223e-06
5.83918e-06
2.84959e-06
1.92127e-06
7.98044e-06
5.44059e-06
2.98957e-06
2.16999e-06
8.00666e-06
5.19847e-06
3.11752e-06
2.41273e-06
8.01132e-06
5.0497e-06
3.23415e-06
2.64546e-06
7.99196e-06
4.94711e-06
3.3404e-06
2.86457e-06
7.95144e-06
4.86611e-06
3.43703e-06
3.06808e-06
7.87872e-06
4.7947e-06
3.52452e-06
3.25499e-06
7.67199e-06
4.7273e-06
3.60291e-06
3.42479e-06
7.34323e-06
4.66148e-06
3.67186e-06
3.57729e-06
6.98554e-06
4.5967e-06
3.73186e-06
3.69077e-06
6.71195e-06
4.5298e-06
3.78877e-06
3.7509e-06
6.57208e-06
4.4511e-06
3.84785e-06
3.80936e-06
6.5451e-06
4.34856e-06
3.90956e-06
3.8627e-06
6.57356e-06
4.20958e-06
3.97162e-06
3.88763e-06
6.59896e-06
4.02711e-06
4.02975e-06
3.86275e-06
6.57531e-06
3.81643e-06
4.07979e-06
3.78461e-06
6.46178e-06
3.61679e-06
4.1188e-06
3.68549e-06
6.22626e-06
3.4662e-06
4.14454e-06
3.61712e-06
5.88345e-06
3.37092e-06
4.15513e-06
3.60535e-06
5.5091e-06
3.30654e-06
4.14965e-06
3.63672e-06
5.17436e-06
3.24418e-06
4.12813e-06
3.67855e-06
4.90084e-06
3.16766e-06
4.0726e-06
3.69966e-06
4.67635e-06
3.07383e-06
3.97757e-06
3.67848e-06
4.48121e-06
2.96568e-06
3.88218e-06
3.60671e-06
4.30114e-06
2.84777e-06
3.79347e-06
3.49491e-06
4.13155e-06
2.72439e-06
3.70516e-06
3.36866e-06
3.97254e-06
2.60003e-06
3.60211e-06
3.24994e-06
3.8194e-06
2.47832e-06
3.47605e-06
3.14293e-06
3.66209e-06
2.35955e-06
3.33281e-06
3.04008e-06
3.49387e-06
2.23989e-06
3.18323e-06
2.93359e-06
3.31556e-06
2.10916e-06
3.03363e-06
2.81963e-06
3.13153e-06
1.96608e-06
2.88485e-06
2.69782e-06
2.9453e-06
1.8267e-06
2.73553e-06
2.56955e-06
2.75859e-06
1.69318e-06
2.58394e-06
2.43662e-06
2.57193e-06
1.56474e-06
2.42824e-06
2.30002e-06
2.3842e-06
1.44008e-06
2.26494e-06
2.15832e-06
2.18989e-06
1.3181e-06
2.09624e-06
2.0023e-06
1.99963e-06
1.19823e-06
1.9283e-06
1.845e-06
1.81446e-06
1.08036e-06
1.76228e-06
1.689e-06
1.63381e-06
9.64741e-07
1.59844e-06
1.53441e-06
1.45752e-06
8.51863e-07
1.43716e-06
1.38117e-06
1.28591e-06
7.41493e-07
1.27909e-06
1.22952e-06
1.11963e-06
6.26345e-07
1.12515e-06
1.08017e-06
9.58732e-07
5.0669e-07
9.76361e-07
9.34197e-07
8.03224e-07
3.96382e-07
8.33715e-07
7.92964e-07
6.39358e-07
2.98131e-07
6.98028e-07
6.57043e-07
4.87799e-07
2.14252e-07
5.6946e-07
5.16862e-07
3.54467e-07
1.46203e-07
4.35806e-07
3.7978e-07
2.42933e-07
9.4184e-08
3.13202e-07
2.61101e-07
1.55428e-07
5.69852e-08
2.10387e-07
1.65427e-07
9.19367e-08
3.22312e-08
1.30266e-07
9.50618e-08
4.98487e-08
1.69525e-08
7.3327e-08
4.88038e-08
2.45747e-08
8.2278e-09
3.70564e-08
2.2075e-08
1.09007e-08
3.63805e-09
1.66108e-08
8.65479e-09
4.27387e-09
1.43453e-09
6.50022e-09
2.86229e-09
1.43438e-09
4.86902e-10
2.1587e-09
7.58146e-10
3.89137e-10
1.34017e-10
5.7667e-10
1.45531e-10
7.6886e-11
2.69081e-11
1.11962e-10
1.67252e-11
9.09155e-12
3.22806e-12
1.30429e-11
1.06858e-12
5.59397e-13
1.89797e-13
8.4801e-13
4.48781e-13
2.03473e-13
5.87889e-14
3.5697e-13
9.87444e-06
6.61206e-06
2.66862e-06
1.01372e-05
1.00136e-05
6.49889e-06
4.5962e-06
1.02651e-05
1.01247e-05
6.39775e-06
8.00619e-06
1.03519e-05
1.02013e-05
6.30327e-06
8.12806e-06
1.0402e-05
1.02419e-05
6.20492e-06
8.20489e-06
1.04223e-05
1.02282e-05
6.11452e-06
8.23827e-06
1.04207e-05
1.01579e-05
6.0393e-06
8.23483e-06
1.04061e-05
1.00551e-05
5.97313e-06
8.20135e-06
1.03928e-05
9.95854e-06
5.91768e-06
8.14412e-06
9.53016e-06
9.86745e-06
5.87664e-06
8.07735e-06
3.84217e-06
9.78194e-06
5.85143e-06
8.01508e-06
3.55545e-06
9.71212e-06
5.84339e-06
7.95532e-06
6.11195e-06
9.66149e-06
5.85512e-06
7.89645e-06
1.16202e-05
4.20507e-06
4.69464e-06
7.84251e-06
1.17815e-05
3.43223e-06
2.4376e-06
5.52573e-06
1.18673e-05
5.5412e-06
2.35321e-06
3.08553e-06
1.18749e-05
1.01374e-05
3.70188e-06
3.09584e-06
1.18136e-05
1.01422e-05
6.60241e-06
4.90818e-06
1.16902e-05
1.00979e-05
6.79082e-06
7.83537e-06
1.15163e-05
7.16917e-06
6.86662e-06
8.31285e-06
1.13027e-05
5.24509e-06
6.91579e-06
8.34852e-06
1.10591e-05
6.56548e-06
6.9398e-06
8.35573e-06
1.07924e-05
9.78724e-06
6.94121e-06
8.33363e-06
1.05086e-05
9.76611e-06
6.91904e-06
8.28327e-06
1.02122e-05
9.68426e-06
6.87456e-06
8.20775e-06
9.90875e-06
9.58528e-06
6.8122e-06
8.11e-06
9.61788e-06
9.46727e-06
6.73471e-06
7.99269e-06
9.3566e-06
9.32932e-06
6.6439e-06
7.85795e-06
9.11523e-06
9.17129e-06
6.54091e-06
7.70775e-06
7.62375e-06
8.99725e-06
6.42646e-06
7.54427e-06
4.6264e-06
8.8086e-06
6.30189e-06
6.91439e-06
4.02895e-06
8.60823e-06
6.17206e-06
5.50743e-06
5.0588e-06
8.38867e-06
6.04879e-06
5.03145e-06
6.94532e-06
6.20394e-06
5.93355e-06
5.48812e-06
7.84594e-06
4.71172e-06
4.75661e-06
6.17777e-06
7.64179e-06
4.83406e-06
3.27575e-06
6.44214e-06
7.41374e-06
6.04352e-06
3.18443e-06
6.26118e-06
7.16655e-06
7.0598e-06
4.03637e-06
6.06632e-06
6.9049e-06
7.10801e-06
5.11703e-06
5.8642e-06
6.63307e-06
6.89915e-06
5.23757e-06
5.65598e-06
6.35416e-06
6.67963e-06
5.10061e-06
5.44565e-06
6.06959e-06
6.32627e-06
4.95156e-06
5.23311e-06
5.78147e-06
5.83598e-06
4.79191e-06
5.01834e-06
5.49259e-06
5.49894e-06
4.62321e-06
4.80133e-06
5.20497e-06
5.29728e-06
4.44676e-06
4.58191e-06
4.92005e-06
5.13456e-06
4.26359e-06
4.35669e-06
4.63881e-06
4.9477e-06
4.07449e-06
4.12621e-06
4.36149e-06
4.73209e-06
3.88002e-06
3.89111e-06
4.08849e-06
4.50587e-06
3.68071e-06
3.65211e-06
3.82044e-06
4.2805e-06
3.47713e-06
3.41e-06
3.55777e-06
4.05626e-06
3.26995e-06
3.16565e-06
3.3003e-06
3.82918e-06
3.05991e-06
2.9201e-06
3.03059e-06
3.59652e-06
2.84774e-06
2.67459e-06
2.77058e-06
3.35771e-06
2.63393e-06
2.43041e-06
2.51889e-06
3.11322e-06
2.41922e-06
2.18896e-06
2.26919e-06
2.86301e-06
2.20345e-06
1.95171e-06
2.0317e-06
2.60465e-06
1.98777e-06
1.72027e-06
1.80881e-06
2.34332e-06
1.75766e-06
1.49637e-06
1.60035e-06
2.08455e-06
1.53269e-06
1.28187e-06
1.40494e-06
1.82997e-06
1.32347e-06
1.07873e-06
1.22126e-06
1.58161e-06