/*--------------------------------*- C++ -*----------------------------------*\
| =========                 |                                                 |
| \\      /  F ield         | OpenFOAM: The Open Source CFD Toolbox           |
|  \\    /   O peration     | Version:  v1912                                 |
|   \\  /    A nd           | Website:  www.openfoam.com                      |
|    \\/     M anipulation  |                                                 |
\*---------------------------------------------------------------------------*/
FoamFile
{
    version     2.0;
    format      ascii;
    class       volVectorField;
    location    "97.2";
    object      wallShearStress;
}
// * * * * * * * * * * * * * * * * * * * * * * * * * * * * * * * * * * * * * //

dimensions      [1 -1 -2 0 0 0 0];


internalField   uniform (0 0 0);

boundaryField
{
    leftWall
    {
        type            calculated;
        value           nonuniform List<vector> 
16
(
(0.0155032 -0.0425392 -0.204226)
(-0.01671 -0.00320603 -0.188588)
(0.00601398 0.000422596 -0.29378)
(-0.0126822 -0.000867309 -0.277454)
(0.131376 0.000367694 -0.202712)
(0.0736652 0.00258427 -0.239063)
(-0.0150718 0.000232986 -0.331356)
(0.0235822 0.000596054 -0.262574)
(-0.00982262 0.000660339 -0.21996)
(0.0151934 -0.00210935 -0.252101)
(-0.000828978 0.000101536 -0.283042)
(0.0119204 -0.000632831 -0.261082)
(-0.13874 0.000152814 -0.113609)
(-0.0727717 0.00312513 -0.265176)
(0.0158419 0.000120296 -0.330933)
(-0.0196696 0.000842624 -0.305303)
)
;
    }
    rightWall
    {
        type            calculated;
        value           nonuniform List<vector> 
16
(
(0.0167721 0.00044196 -0.44725)
(0.138689 0.00110397 -0.273582)
(-0.00981123 -0.00054784 -0.30621)
(0.11238 0.00285318 -0.385882)
(-0.0335823 0.000256516 -0.392481)
(-0.085999 -0.00170384 -0.250182)
(-0.0106659 -0.000122414 -0.194134)
(-0.0624709 -0.00328794 -0.377485)
(-0.00894018 0.000201146 -0.350064)
(-0.141156 0.00172044 -0.151665)
(0.0240949 -0.000280797 -0.0973324)
(-0.122799 0.00292078 -0.308124)
(0.0294674 0.00049934 -0.401158)
(0.0852709 -0.000725637 -0.235933)
(0.00680944 1.0086e-06 -0.248537)
(0.0637041 -0.00291063 -0.347298)
)
;
    }
    leftSides_periodic0
    {
        type            cyclic;
    }
    leftSides_periodic1
    {
        type            cyclic;
    }
    rightSides_periodic0
    {
        type            cyclic;
    }
    rightSides_periodic1
    {
        type            cyclic;
    }
    leftInOut_periodic0
    {
        type            cyclic;
    }
    leftInOut_periodic1
    {
        type            cyclic;
    }
    rightInOut_periodic0
    {
        type            cyclic;
    }
    rightInOut_periodic1
    {
        type            cyclic;
    }
}


// ************************************************************************* //
