/*--------------------------------*- C++ -*----------------------------------*\
| =========                 |                                                 |
| \\      /  F ield         | OpenFOAM: The Open Source CFD Toolbox           |
|  \\    /   O peration     | Version:  v1912                                 |
|   \\  /    A nd           | Website:  www.openfoam.com                      |
|    \\/     M anipulation  |                                                 |
\*---------------------------------------------------------------------------*/
FoamFile
{
    version     2.0;
    format      ascii;
    class       volScalarField;
    location    "98.4";
    object      T;
}
// * * * * * * * * * * * * * * * * * * * * * * * * * * * * * * * * * * * * * //

dimensions      [0 0 0 1 0 0 0];


internalField   nonuniform List<scalar> 
2000
(
373.26
369.85
365.276
363.35
362.847
362.695
362.847
363.349
365.274
369.846
373.163
366.219
362.011
360.404
359.804
359.636
359.804
360.403
362.009
366.215
373.138
364.337
360.764
359.341
358.728
358.556
358.728
359.34
360.763
364.334
371.939
363.139
360.104
358.77
358.151
357.975
358.151
358.769
360.103
363.137
370.011
362.449
359.677
358.368
357.742
357.562
357.742
358.367
359.675
362.446
367.662
361.868
359.34
358.035
357.401
357.217
357.401
358.034
359.338
361.866
365.486
361.342
359.017
357.715
357.075
356.887
357.074
357.714
359.016
361.34
363.769
360.829
358.662
357.372
356.728
356.537
356.727
357.371
358.661
360.828
362.449
360.283
358.255
356.99
356.346
356.153
356.346
356.99
358.253
360.282
361.369
359.674
357.791
356.575
355.939
355.745
355.938
356.574
357.789
359.673
370.351
366.942
364.536
363.573
363.132
362.972
363.132
363.572
364.535
366.94
367.274
364.498
362.295
361.399
360.944
360.781
360.943
361.398
362.294
364.497
366.39
363.164
361.339
360.538
360.085
359.925
360.085
360.537
361.338
363.163
365.901
362.261
360.752
360.02
359.575
359.418
359.574
360.019
360.751
362.26
365.113
361.595
360.317
359.626
359.188
359.035
359.188
359.625
360.316
361.594
363.946
361.058
359.965
359.293
358.862
358.711
358.862
359.293
359.964
361.057
362.687
360.613
359.653
358.993
358.567
358.418
358.567
358.993
359.652
360.612
361.604
360.223
359.356
358.709
358.288
358.141
358.287
358.708
359.356
360.222
360.775
359.84
359.051
358.42
358.005
357.859
358.004
358.42
359.05
359.839
360.069
359.415
358.704
358.095
357.686
357.541
357.686
358.095
358.703
359.414
373.887
366.498
363.942
362.858
362.413
362.303
362.413
362.857
363.941
366.495
372.175
364.5
361.459
360.142
359.599
359.448
359.598
360.141
361.457
364.497
370.807
363.649
360.573
359.219
358.631
358.465
358.631
359.218
360.572
363.646
369.676
363.029
360.062
358.71
358.1
357.926
358.1
358.709
360.06
363.026
368.42
362.452
359.668
358.33
357.708
357.528
357.707
358.329
359.667
362.449
366.937
361.884
359.324
358
357.369
357.185
357.369
357.999
359.323
361.882
365.333
361.333
358.991
357.681
357.044
356.856
357.044
357.681
358.989
361.331
363.797
360.795
358.634
357.341
356.7
356.509
356.699
357.34
358.633
360.794
362.478
360.236
358.228
356.961
356.32
356.128
356.319
356.96
358.227
360.235
361.368
359.618
357.763
356.543
355.908
355.716
355.908
356.542
357.762
359.617
367.233
365.05
364.166
363.595
363.19
363.049
363.189
363.595
364.165
365.048
365.231
362.94
361.892
361.296
360.892
360.744
360.892
361.295
361.891
362.938
364.464
362.18
361.081
360.461
360.051
359.9
360.05
360.46
361.08
362.179
363.913
361.694
360.603
359.971
359.557
359.406
359.556
359.97
360.602
361.693
363.344
361.27
360.228
359.593
359.178
359.028
359.178
359.592
360.227
361.269
362.678
360.858
359.895
359.263
358.851
358.703
358.85
359.262
359.895
360.857
361.922
360.46
359.588
358.962
358.553
358.407
358.553
358.961
359.587
360.459
361.168
360.089
359.296
358.679
358.275
358.131
358.275
358.679
359.295
360.088
360.492
359.724
359
358.396
357.996
357.853
357.995
358.395
358.999
359.723
359.862
359.319
358.664
358.075
357.679
357.537
357.679
358.075
358.663
359.318
372.141
366.055
363.83
362.829
362.4
362.307
362.4
362.828
363.829
366.052
370.198
363.936
361.279
360.046
359.521
359.381
359.52
360.045
361.277
363.933
369.064
363.207
360.424
359.134
358.567
358.409
358.567
359.133
360.423
363.204
368.141
362.734
359.958
358.648
358.056
357.887
358.056
358.647
359.956
362.732
367.203
362.291
359.605
358.289
357.681
357.504
357.68
358.288
359.604
362.289
366.147
361.818
359.281
357.971
357.351
357.169
357.35
357.97
359.28
361.816
364.934
361.304
358.951
357.654
357.025
356.84
357.025
357.653
358.95
361.302
363.629
360.76
358.593
357.313
356.679
356.491
356.679
357.312
358.591
360.759
362.379
360.185
358.187
356.932
356.298
356.108
356.298
356.931
358.186
360.184
361.267
359.559
357.721
356.51
355.883
355.691
355.882
356.509
357.72
359.557
366.042
364.811
364.219
363.759
363.369
363.23
363.369
363.759
364.218
364.809
363.979
362.488
361.814
361.344
360.959
360.818
360.959
361.343
361.813
362.486
363.12
361.728
360.968
360.456
360.067
359.923
360.067
360.456
360.967
361.726
362.594
361.313
360.495
359.948
359.554
359.409
359.554
359.947
360.495
361.312
362.158
360.989
360.143
359.569
359.172
359.027
359.172
359.569
360.142
360.988
361.725
360.679
359.835
359.245
358.848
358.703
358.847
359.245
359.834
360.678
361.264
360.36
359.543
358.949
358.553
358.409
358.552
358.948
359.542
360.359
360.78
360.027
359.258
358.668
358.274
358.132
358.274
358.667
359.257
360.027
360.278
359.675
358.966
358.384
357.994
357.853
357.994
358.384
358.965
359.674
359.729
359.276
358.634
358.064
357.677
357.537
357.677
358.063
358.633
359.275
371.269
365.895
363.686
362.68
362.266
362.174
362.266
362.68
363.685
365.893
369.272
363.789
361.198
359.971
359.453
359.318
359.453
359.97
361.197
363.786
368.319
363.058
360.359
359.086
358.527
358.374
358.527
359.085
360.358
363.055
367.515
362.595
359.902
358.613
358.03
357.865
358.029
358.612
359.9
362.592
366.683
362.178
359.557
358.262
357.661
357.489
357.661
358.261
359.555
362.176
365.77
361.743
359.241
357.947
357.334
357.155
357.333
357.946
359.239
361.741
364.714
361.262
358.917
357.632
357.01
356.826
357.009
357.631
358.916
361.261
363.514
360.732
358.562
357.292
356.664
356.477
356.663
357.292
358.561
360.731
362.3
360.154
358.157
356.912
356.282
356.093
356.281
356.911
358.156
360.153
361.192
359.521
357.689
356.487
355.863
355.674
355.863
356.486
357.687
359.52
365.596
364.827
364.395
364.054
363.681
363.542
363.68
364.054
364.394
364.826
363.412
362.248
361.802
361.431
361.061
360.923
361.061
361.43
361.801
362.247
362.35
361.425
360.896
360.465
360.092
359.953
360.092
360.465
360.895
361.424
361.697
361.026
360.415
359.932
359.554
359.414
359.554
359.932
360.415
361.025
361.252
360.75
360.073
359.55
359.168
359.027
359.167
359.55
360.072
360.749
360.922
360.508
359.781
359.23
358.846
358.706
358.846
359.23
359.78
360.507
360.662
360.257
359.504
358.939
358.554
358.415
358.554
358.939
359.504
360.256
360.416
359.973
359.229
358.66
358.277
358.138
358.277
358.66
359.228
359.972
360.104
359.644
358.939
358.376
357.995
357.857
357.995
358.376
358.939
359.643
359.648
359.251
358.609
358.056
357.679
357.541
357.678
358.056
358.608
359.25
370.012
365.847
363.533
362.454
362.037
361.935
362.037
362.454
363.532
365.845
368.349
363.864
361.195
359.937
359.42
359.284
359.419
359.936
361.194
363.861
367.91
363.116
360.377
359.093
358.534
358.381
358.533
359.092
360.376
363.113
367.477
362.593
359.898
358.615
358.033
357.87
358.032
358.614
359.897
362.591
366.757
362.144
359.536
358.254
357.656
357.485
357.655
358.253
359.535
362.142
365.832
361.696
359.217
357.936
357.325
357.148
357.325
357.935
359.215
361.694
364.707
361.219
358.898
357.623
357.002
356.821
357.002
357.622
358.897
361.217
363.451
360.701
358.549
357.286
356.659
356.474
356.659
357.285
358.548
360.699
362.227
360.135
358.147
356.907
356.279
356.091
356.278
356.906
358.145
360.134
361.143
359.511
357.68
356.486
355.863
355.675
355.863
356.485
357.679
359.51
365.869
365.757
365.224
364.831
364.395
364.24
364.395
364.831
365.224
365.755
363.66
362.325
361.894
361.563
361.177
361.031
361.177
361.563
361.893
362.324
362.418
361.29
360.885
360.495
360.121
359.98
360.121
360.495
360.884
361.289
361.44
360.887
360.406
359.947
359.571
359.432
359.571
359.947
360.405
360.886
360.765
360.635
360.073
359.564
359.185
359.045
359.184
359.563
360.072
360.634
360.41
360.433
359.785
359.244
358.862
358.723
358.861
359.243
359.785
360.432
360.27
360.221
359.51
358.95
358.567
358.429
358.567
358.95
359.509
360.22
360.194
359.965
359.233
358.668
358.286
358.148
358.286
358.668
359.232
359.964
360.004
359.65
358.941
358.382
358.003
357.866
358.003
358.382
358.941
359.649
359.623
359.261
358.611
358.064
357.688
357.552
357.688
358.064
358.61
359.261
360.455
359.032
357.304
356.151
355.527
355.335
355.527
356.15
357.302
359.031
359.672
358.417
356.828
355.727
355.115
354.923
355.114
355.726
356.827
358.416
358.973
357.832
356.348
355.282
354.679
354.489
354.679
355.281
356.347
357.831
358.3
357.237
355.829
354.788
354.196
354.007
354.195
354.787
355.828
357.236
357.623
356.609
355.257
354.236
353.654
353.466
353.653
354.235
355.256
356.609
356.916
355.932
354.624
353.62
353.047
352.86
353.046
353.619
354.623
355.931
356.13
355.169
353.896
352.905
352.34
352.154
352.34
352.904
353.895
355.169
355.089
354.146
352.878
351.904
351.349
351.16
351.348
351.904
352.877
354.146
352.561
351.486
350.09
349.195
348.655
348.456
348.654
349.195
350.089
351.485
334.814
333.846
332.662
332.276
331.97
331.837
331.97
332.276
332.662
333.846
359.39
358.93
358.292
357.704
357.301
357.157
357.301
357.704
358.292
358.929
358.77
358.416
357.828
357.255
356.857
356.713
356.857
357.255
357.827
358.415
358.214
357.9
357.345
356.786
356.394
356.251
356.394
356.786
357.345
357.9
357.677
357.376
356.854
356.313
355.929
355.787
355.929
356.312
356.853
357.375
357.124
356.833
356.349
355.828
355.455
355.315
355.455
355.827
356.348
356.832
356.521
356.245
355.801
355.303
354.942
354.803
354.941
355.302
355.8
356.245
355.792
355.526
355.122
354.652
354.304
354.167
354.303
354.652
355.121
355.525
354.659
354.357
354.014
353.595
353.262
353.129
353.262
353.594
354.013
354.356
351.221
350.67
350.658
350.415
350.142
350.044
350.142
350.415
350.658
350.67
329.737
328.879
330.09
330.457
330.557
330.666
330.558
330.458
330.09
328.879
360.435
358.968
357.27
356.11
355.488
355.296
355.487
356.11
357.268
358.967
359.644
358.344
356.782
355.675
355.064
354.874
355.064
355.674
356.78
358.343
358.936
357.747
356.291
355.223
354.622
354.433
354.622
355.222
356.29
357.746
358.26
357.148
355.771
354.731
354.14
353.952
354.139
354.73
355.77
357.147
357.593
356.528
355.206
354.188
353.605
353.419
353.605
354.187
355.205
356.527
356.901
355.848
354.572
353.572
352.998
352.813
352.997
353.571
354.571
355.847
356.051
354.975
353.763
352.786
352.222
352.041
352.221
352.785
353.762
354.975
354.65
353.482
352.414
351.478
350.941
350.774
350.94
351.477
352.413
353.481
350.575
349.137
348.603
347.757
347.331
347.219
347.331
347.756
348.601
349.136
327.384
326.246
327.19
326.846
326.879
326.951
326.879
326.846
327.189
326.246
359.235
358.849
358.258
357.685
357.292
357.15
357.292
357.684
358.257
358.849
358.649
358.339
357.791
357.23
356.841
356.699
356.841
357.229
357.791
358.338
358.113
357.824
357.307
356.758
356.375
356.234
356.375
356.757
357.306
357.824
357.593
357.309
356.824
356.292
355.918
355.779
355.918
356.292
356.823
357.309
357.055
356.781
356.338
355.826
355.463
355.326
355.463
355.826
356.337
356.78
356.435
356.167
355.787
355.301
354.954
354.82
354.953
355.301
355.786
356.167
355.574
355.295
355.024
354.577
354.257
354.13
354.257
354.577
355.024
355.295
354.085
353.786
353.718
353.329
353.061
352.949
353.061
353.329
353.718
353.786
350.027
349.744
350.144
349.853
349.73
349.654
349.73
349.853
350.144
349.743
327.894
327.98
329.139
329.209
329.563
329.607
329.564
329.211
329.139
327.98
360.328
358.904
357.223
356.07
355.455
355.264
355.454
356.07
357.222
358.903
359.546
358.276
356.73
355.629
355.025
354.836
355.025
355.628
356.729
358.275
358.852
357.682
356.241
355.177
354.585
354.397
354.584
355.176
356.24
357.681
358.186
357.088
355.722
354.686
354.103
353.917
354.103
354.685
355.721
357.087
357.512
356.446
355.139
354.125
353.554
353.37
353.553
354.125
355.138
356.445
356.742
355.676
354.438
353.443
352.886
352.706
352.885
353.442
354.437
355.676
355.73
354.646
353.496
352.516
351.98
351.806
351.98
352.516
353.495
354.646
354.174
353.051
352.02
351.046
350.546
350.381
350.545
351.046
352.019
353.05
350.431
349.284
348.449
347.461
347.048
346.898
347.048
347.461
348.448
349.283
328.702
328.119
327.89
327.279
327.22
327.138
327.22
327.279
327.89
328.118
359.133
358.814
358.233
357.674
357.291
357.15
357.29
357.674
358.232
358.813
358.569
358.312
357.771
357.221
356.84
356.699
356.839
357.22
357.77
358.311
358.051
357.802
357.29
356.753
356.378
356.238
356.377
356.752
357.289
357.801
357.538
357.288
356.809
356.288
355.923
355.785
355.923
356.288
356.808
357.288
356.986
356.739
356.306
355.806
355.454
355.319
355.453
355.805
356.306
356.738
356.324
356.077
355.719
355.245
354.913
354.783
354.913
355.244
355.719
356.077
355.427
355.195
354.94
354.499
354.199
354.075
354.199
354.499
354.94
355.194
354.013
353.827
353.71
353.318
353.066
352.951
353.066
353.317
353.71
353.826
350.429
350.429
350.527
350.261
350.122
350.017
350.122
350.261
350.527
350.428
329.227
329.771
330.227
330.555
330.834
330.809
330.834
330.555
330.227
329.771
360.254
358.863
357.187
356.044
355.432
355.243
355.431
356.043
357.186
358.862
359.476
358.235
356.692
355.601
355.002
354.814
355.001
355.6
356.691
358.234
358.786
357.642
356.202
355.149
354.561
354.375
354.56
355.148
356.201
357.641
358.12
357.04
355.674
354.648
354.072
353.888
354.071
354.647
355.673
357.039
357.419
356.365
355.064
354.062
353.498
353.317
353.498
354.061
355.063
356.365
356.592
355.552
354.315
353.332
352.785
352.607
352.785
353.331
354.314
355.551
355.538
354.502
353.323
352.355
351.829
351.654
351.829
352.354
353.322
354.501
353.992
352.952
351.817
350.861
350.363
350.191
350.363
350.86
351.816
352.952
350.413
349.389
348.263
347.334
346.887
346.714
346.887
347.334
348.262
349.388
328.67
328.118
327.453
327.025
326.86
326.747
326.86
327.024
327.452
328.118
359.077
358.792
358.213
357.671
357.296
357.158
357.296
357.671
358.212
358.791
358.521
358.296
357.759
357.225
356.852
356.714
356.852
357.225
357.759
358.296
358.008
357.792
357.283
356.759
356.391
356.254
356.391
356.758
357.282
357.791
357.49
357.267
356.788
356.281
355.924
355.79
355.924
356.28
356.788
357.266
356.914
356.685
356.252
355.767
355.426
355.295
355.426
355.766
356.252
356.684
356.232
356.01
355.641
355.182
354.862
354.735
354.861
355.181
355.641
356.01
355.385
355.194
354.899
354.471
354.176
354.054
354.176
354.471
354.899
355.193
354.139
354.015
353.812
353.429
353.171
353.053
353.171
353.429
353.811
354.015
351.027
351.12
351.062
350.813
350.637
350.525
350.637
350.813
351.062
351.12
331.163
331.875
332.167
332.536
332.748
332.724
332.748
332.536
332.168
331.875
360.225
358.857
357.181
356.046
355.435
355.247
355.434
356.045
357.18
358.856
359.448
358.228
356.684
355.601
355.003
354.816
355.002
355.6
356.683
358.227
358.749
357.623
356.182
355.137
354.551
354.367
354.551
355.137
356.181
357.622
358.067
357.005
355.641
354.625
354.051
353.869
354.051
354.624
355.64
357.005
357.358
356.332
355.03
354.037
353.477
353.297
353.476
354.036
355.029
356.331
356.552
355.551
354.3
353.326
352.781
352.602
352.78
353.325
354.299
355.55
355.538
354.553
353.335
352.379
351.851
351.674
351.851
352.378
353.334
354.552
354.011
353.031
351.813
350.88
350.374
350.197
350.373
350.879
351.812
353.031
350.388
349.357
348.026
347.123
346.641
346.464
346.64
347.122
348.025
349.357
326.365
325.538
324.647
324.35
324.151
324.069
324.151
324.349
324.646
325.538
359.089
358.801
358.219
357.685
357.312
357.175
357.312
357.684
358.219
358.8
358.536
358.309
357.774
357.248
356.878
356.741
356.878
357.248
357.774
358.308
358.023
357.817
357.31
356.792
356.426
356.291
356.426
356.791
357.309
357.816
357.514
357.306
356.824
356.319
355.964
355.83
355.963
356.319
356.823
357.305
356.959
356.74
356.291
355.808
355.467
355.337
355.467
355.807
356.291
356.74
356.305
356.09
355.687
355.232
354.909
354.783
354.909
355.231
355.687
356.089
355.528
355.338
354.987
354.559
354.255
354.131
354.254
354.559
354.987
355.337
354.504
354.355
354.066
353.662
353.373
353.253
353.373
353.661
354.066
354.354
352.924
352.837
352.619
352.194
351.899
351.779
351.898
352.194
352.619
352.836
341.36
341.483
341.137
340.551
340.27
340.184
340.27
340.55
341.136
341.482
)
;

boundaryField
{
    leftWall
    {
        type            fixedValue;
        value           uniform 373;
    }
    rightWall
    {
        type            fixedValue;
        value           uniform 313;
    }
    leftSides_periodic0
    {
        type            cyclic;
    }
    leftSides_periodic1
    {
        type            cyclic;
    }
    rightSides_periodic0
    {
        type            cyclic;
    }
    rightSides_periodic1
    {
        type            cyclic;
    }
    leftInOut_periodic0
    {
        type            cyclic;
    }
    leftInOut_periodic1
    {
        type            cyclic;
    }
    rightInOut_periodic0
    {
        type            cyclic;
    }
    rightInOut_periodic1
    {
        type            cyclic;
    }
}


// ************************************************************************* //
