/*--------------------------------*- C++ -*----------------------------------*\
| =========                 |                                                 |
| \\      /  F ield         | OpenFOAM: The Open Source CFD Toolbox           |
|  \\    /   O peration     | Version:  v1912                                 |
|   \\  /    A nd           | Website:  www.openfoam.com                      |
|    \\/     M anipulation  |                                                 |
\*---------------------------------------------------------------------------*/
FoamFile
{
    version     2.0;
    format      ascii;
    class       volSymmTensorField;
    location    "98.4";
    object      UPrime2Mean;
}
// * * * * * * * * * * * * * * * * * * * * * * * * * * * * * * * * * * * * * //

dimensions      [0 2 -2 0 0 0 0];


internalField   nonuniform List<symmTensor> 
2000
(
(8.49734e-13 1.31003e-09 -6.23623e-10 1.80939e-05 4.18913e-06 4.27138e-05)
(3.80379e-06 6.79968e-07 -6.74833e-07 1.38303e-07 -2.09781e-07 3.15879e-05)
(7.18292e-07 6.64472e-08 1.76597e-06 6.6631e-09 1.77364e-07 1.09818e-05)
(1.29078e-07 2.7395e-08 7.14409e-07 7.06084e-09 1.95076e-07 8.46452e-06)
(2.36383e-08 1.04588e-08 3.43272e-07 5.57575e-09 1.90415e-07 9.38407e-06)
(6.33914e-14 3.27247e-12 5.61875e-11 5.40169e-09 1.90032e-07 9.58484e-06)
(2.36296e-08 -1.04547e-08 -3.43161e-07 5.57586e-09 1.90423e-07 9.38451e-06)
(1.2899e-07 -2.73777e-08 -7.14089e-07 7.06044e-09 1.95063e-07 8.46415e-06)
(7.18265e-07 -6.64523e-08 -1.76537e-06 6.66317e-09 1.77372e-07 1.09699e-05)
(3.80258e-06 -6.79748e-07 6.69016e-07 1.38258e-07 -2.0867e-07 3.15309e-05)
(8.85476e-13 1.75819e-09 -5.11214e-09 2.45231e-05 -2.4703e-05 0.000157856)
(1.06731e-05 -2.65558e-07 -1.59018e-05 5.10597e-08 1.27208e-06 6.59883e-05)
(1.66323e-06 1.66205e-07 -1.28314e-06 4.49402e-08 3.54276e-07 1.13301e-05)
(4.86061e-07 2.21228e-08 2.38943e-07 3.09902e-08 3.65916e-07 7.44772e-06)
(1.20283e-07 8.45277e-09 2.77727e-07 2.15314e-08 3.63153e-07 9.19269e-06)
(2.77069e-14 -8.24894e-12 -1.10663e-10 2.06589e-08 3.65294e-07 9.65556e-06)
(1.20166e-07 -8.47233e-09 -2.78061e-07 2.15307e-08 3.63157e-07 9.19261e-06)
(4.8578e-07 -2.21179e-08 -2.4016e-07 3.09851e-08 3.65872e-07 7.44601e-06)
(1.66273e-06 -1.66163e-07 1.27753e-06 4.49296e-08 3.54226e-07 1.13038e-05)
(1.06692e-05 2.65224e-07 1.58697e-05 5.10428e-08 1.27089e-06 6.58024e-05)
(7.40638e-13 -5.74549e-10 -1.03712e-08 1.56396e-05 3.94261e-05 0.000382208)
(7.04326e-06 1.18386e-06 -1.71042e-05 4.14014e-07 -1.70205e-06 5.86939e-05)
(2.18196e-06 1.71362e-07 -2.0236e-06 8.17339e-08 -2.73434e-08 5.18809e-06)
(7.78273e-07 3.47378e-09 2.10719e-07 4.79169e-08 6.15497e-08 4.2511e-06)
(1.91941e-07 2.15425e-10 3.14133e-07 3.11761e-08 1.10772e-07 5.18169e-06)
(7.45625e-14 -1.12078e-11 8.97527e-11 3.00737e-08 1.19846e-07 5.45681e-06)
(1.91497e-07 -2.40366e-10 -3.14012e-07 3.11757e-08 1.10784e-07 5.18115e-06)
(7.77486e-07 -3.48007e-09 -2.12101e-07 4.79089e-08 6.15353e-08 4.25e-06)
(2.18078e-06 -1.71245e-07 2.01592e-06 8.16721e-08 -2.71398e-08 5.17255e-06)
(7.0411e-06 -1.18305e-06 1.70704e-05 4.13889e-07 -1.6988e-06 5.84951e-05)
(5.81539e-13 2.61604e-09 -1.2807e-08 4.44477e-05 -0.000126998 0.000579107)
(4.06099e-06 4.16788e-07 -1.11521e-05 1.8079e-07 -1.41757e-06 3.73823e-05)
(1.92607e-06 1.28701e-07 -2.96105e-07 9.44438e-08 -3.70429e-07 5.01379e-06)
(6.6638e-07 2.2325e-08 6.31615e-07 5.82359e-08 -2.22962e-07 5.73994e-06)
(1.64153e-07 5.81233e-09 4.72607e-07 3.74126e-08 -1.16012e-07 6.10755e-06)
(8.52494e-14 -4.13561e-12 2.68402e-10 3.63749e-08 -1.01479e-07 6.23368e-06)
(1.63688e-07 -5.81981e-09 -4.7201e-07 3.74139e-08 -1.15999e-07 6.10716e-06)
(6.65587e-07 -2.2314e-08 -6.32294e-07 5.82292e-08 -2.22927e-07 5.7399e-06)
(1.92465e-06 -1.28521e-07 2.91025e-07 9.43568e-08 -3.70097e-07 5.01124e-06)
(4.05989e-06 -4.16233e-07 1.11255e-05 1.80701e-07 -1.41442e-06 3.72361e-05)
(4.54801e-13 6.62523e-10 -1.25701e-08 3.44764e-06 -3.18238e-05 0.000690354)
(3.97054e-06 7.29596e-07 -9.28179e-06 2.93744e-07 -2.92266e-06 3.33338e-05)
(1.39486e-06 1.82743e-07 5.99097e-07 1.19634e-07 -6.38024e-07 8.45558e-06)
(4.6893e-07 4.54329e-08 6.99888e-07 6.72964e-08 -3.72967e-07 6.91445e-06)
(1.18131e-07 1.22611e-08 4.73341e-07 4.36108e-08 -2.42792e-07 6.75956e-06)
(7.06114e-14 2.22646e-12 2.87259e-10 4.2503e-08 -2.25248e-07 6.78281e-06)
(1.17763e-07 -1.22527e-08 -4.72634e-07 4.36151e-08 -2.42787e-07 6.75947e-06)
(4.68322e-07 -4.53954e-08 -7.00113e-07 6.72941e-08 -3.72923e-07 6.91463e-06)
(1.39363e-06 -1.82426e-07 -6.01504e-07 1.19514e-07 -6.37584e-07 8.45585e-06)
(3.96953e-06 -7.28765e-07 9.26021e-06 2.9357e-07 -2.91803e-06 3.32359e-05)
(2.35983e-13 4.16583e-10 -8.08172e-09 3.56943e-06 -4.16173e-05 0.000622995)
(3.0286e-06 9.35732e-07 -7.08743e-06 4.47545e-07 -4.00768e-06 3.84153e-05)
(9.72655e-07 2.02726e-07 4.42864e-07 1.36719e-07 -8.29354e-07 1.09321e-05)
(3.36801e-07 5.9141e-08 5.28113e-07 7.54504e-08 -4.41872e-07 6.50735e-06)
(8.72219e-08 1.55525e-08 3.81326e-07 4.92743e-08 -3.03634e-07 5.82381e-06)
(5.27986e-14 5.04233e-12 2.30471e-10 4.79297e-08 -2.82802e-07 5.75373e-06)
(8.69395e-08 -1.55359e-08 -3.80723e-07 4.92827e-08 -3.03648e-07 5.82384e-06)
(3.36336e-07 -5.90821e-08 -5.28216e-07 7.54532e-08 -4.41849e-07 6.50718e-06)
(9.71721e-07 -2.02377e-07 -4.44095e-07 1.36571e-07 -8.28884e-07 1.09295e-05)
(3.02783e-06 -9.34651e-07 7.07225e-06 4.47088e-07 -4.00198e-06 3.83474e-05)
(7.75628e-14 2.61098e-10 -2.79202e-09 6.07725e-06 -4.89375e-05 0.000432862)
(2.12373e-06 9.41581e-07 -5.69542e-06 5.74359e-07 -4.58775e-06 4.54582e-05)
(7.21967e-07 2.04018e-07 -2.47036e-09 1.4678e-07 -1.00736e-06 1.24861e-05)
(2.65823e-07 6.37849e-08 3.11813e-07 8.10676e-08 -4.96249e-07 5.99364e-06)
(7.06058e-08 1.61898e-08 2.72603e-07 5.25356e-08 -3.40266e-07 4.78595e-06)
(3.98101e-14 5.5057e-12 1.62165e-10 5.09521e-08 -3.16032e-07 4.62045e-06)
(7.03795e-08 -1.61697e-08 -2.72168e-07 5.25479e-08 -3.40306e-07 4.7859e-06)
(2.65431e-07 -6.37129e-08 -3.11942e-07 8.10727e-08 -4.96237e-07 5.99273e-06)
(7.21231e-07 -2.03684e-07 1.4664e-09 1.46625e-07 -1.0068e-06 1.24803e-05)
(2.12332e-06 -9.4054e-07 5.68529e-06 5.73666e-07 -4.58211e-06 4.54057e-05)
(4.04765e-14 -2.32252e-11 -3.64565e-11 6.24792e-06 -3.92191e-05 0.000262888)
(1.56519e-06 8.39291e-07 -4.92657e-06 6.03013e-07 -4.77264e-06 5.08312e-05)
(5.84698e-07 1.95966e-07 -3.82501e-07 1.46785e-07 -1.14567e-06 1.41855e-05)
(2.2931e-07 6.27942e-08 1.27153e-07 8.12005e-08 -5.44153e-07 6.22885e-06)
(6.2348e-08 1.4932e-08 1.75528e-07 5.07078e-08 -3.58676e-07 4.54082e-06)
(3.85615e-14 4.66989e-12 1.18476e-10 4.90311e-08 -3.32537e-07 4.28162e-06)
(6.21535e-08 -1.49106e-08 -1.75223e-07 5.07227e-08 -3.58739e-07 4.54043e-06)
(2.28946e-07 -6.27071e-08 -1.27337e-07 8.12054e-08 -5.44136e-07 6.22678e-06)
(5.8408e-07 -1.9565e-07 3.81431e-07 1.4664e-07 -1.14503e-06 1.41767e-05)
(1.56502e-06 -8.3843e-07 4.91964e-06 6.02284e-07 -4.76772e-06 5.07867e-05)
(5.11463e-14 -1.8812e-10 6.02393e-10 4.99486e-06 -2.58383e-05 0.000159584)
(1.22344e-06 7.20155e-07 -4.13147e-06 5.59616e-07 -4.46669e-06 5.13682e-05)
(5.06565e-07 1.77169e-07 -6.31606e-07 1.27253e-07 -1.14689e-06 1.51549e-05)
(2.10076e-07 5.65042e-08 -2.82169e-08 7.01711e-08 -5.49164e-07 6.41306e-06)
(5.82227e-08 1.08767e-08 8.52009e-08 4.20843e-08 -3.48906e-07 4.36266e-06)
(5.10531e-14 2.49497e-12 1.04293e-10 4.07111e-08 -3.23314e-07 4.01357e-06)
(5.80416e-08 -1.08561e-08 -8.49648e-08 4.21002e-08 -3.48976e-07 4.36175e-06)
(2.0972e-07 -5.64002e-08 2.80158e-08 7.01754e-08 -5.49151e-07 6.40964e-06)
(5.06022e-07 -1.76866e-07 6.30535e-07 1.27131e-07 -1.14631e-06 1.51437e-05)
(1.2234e-06 -7.19479e-07 4.12675e-06 5.58979e-07 -4.46289e-06 5.13306e-05)
(7.58423e-14 -2.61839e-10 7.03204e-10 3.57593e-06 -1.61461e-05 0.000105548)
(9.36932e-07 5.87374e-07 -3.11519e-06 4.68911e-07 -3.62066e-06 4.49887e-05)
(4.58117e-07 1.46806e-07 -7.9978e-07 8.92059e-08 -9.75725e-07 1.46617e-05)
(1.99626e-07 4.38096e-08 -1.93683e-07 4.55301e-08 -4.77525e-07 6.39176e-06)
(5.57914e-08 3.77915e-09 -1.42641e-08 2.70601e-08 -2.94344e-07 4.15448e-06)
(6.63901e-14 -9.30321e-13 8.57882e-11 2.66029e-08 -2.72013e-07 3.70664e-06)
(5.56066e-08 -3.76257e-09 1.44341e-08 2.70758e-08 -2.94399e-07 4.15335e-06)
(1.9927e-07 -4.37056e-08 1.93472e-07 4.55391e-08 -4.7755e-07 6.38776e-06)
(4.57642e-07 -1.46528e-07 7.98849e-07 8.91186e-08 -9.75351e-07 1.46503e-05)
(9.36975e-07 -5.86885e-07 3.1123e-06 4.68417e-07 -3.61825e-06 4.49595e-05)
(1.06225e-12 -2.19353e-11 -1.21323e-09 6.57781e-08 -7.25729e-07 1.86542e-05)
(2.10832e-06 1.30687e-10 2.98929e-06 5.75888e-10 -6.28196e-10 7.30426e-06)
(1.18138e-06 3.1911e-08 -4.83936e-07 8.75772e-10 -9.94256e-09 3.72468e-06)
(3.66336e-07 1.31192e-08 -7.67965e-07 4.83071e-10 -2.2686e-08 6.95393e-06)
(8.90998e-08 6.54526e-09 -5.81082e-07 4.914e-10 -3.96781e-08 9.98791e-06)
(1.51165e-13 3.84033e-12 -3.00334e-10 5.08387e-10 -4.39009e-08 1.12624e-05)
(8.89128e-08 -6.53845e-09 5.80797e-07 4.91428e-10 -3.96852e-08 9.99138e-06)
(3.65818e-07 -1.31077e-08 7.68116e-07 4.82928e-10 -2.26941e-08 6.95931e-06)
(1.18146e-06 -3.19359e-08 4.8757e-07 8.77093e-10 -1.00469e-08 3.73069e-06)
(2.10847e-06 -1.38494e-10 -2.98464e-06 5.7592e-10 -5.89968e-10 7.28741e-06)
(2.07983e-12 4.32525e-10 -6.01962e-09 1.55911e-07 -1.53688e-06 5.88689e-05)
(2.79315e-06 2.02788e-07 6.83685e-06 1.63684e-08 4.7435e-07 2.68718e-05)
(9.00565e-07 1.29092e-07 4.16589e-07 1.90424e-08 8.39772e-08 1.09245e-05)
(2.51747e-07 4.60531e-08 3.38258e-08 9.20488e-09 -7.81167e-08 2.08891e-05)
(5.21557e-08 1.89858e-08 -1.97094e-07 7.404e-09 -1.40534e-07 2.89225e-05)
(9.86397e-14 7.84682e-12 -9.72468e-12 7.31733e-09 -1.5755e-07 3.19647e-05)
(5.2076e-08 -1.89713e-08 1.97598e-07 7.40363e-09 -1.40566e-07 2.89295e-05)
(2.51404e-07 -4.60176e-08 -3.32536e-08 9.20335e-09 -7.81561e-08 2.09004e-05)
(9.00419e-07 -1.29085e-07 -4.12445e-07 1.90426e-08 8.334e-08 1.09326e-05)
(2.79167e-06 -2.02756e-07 -6.82742e-06 1.63742e-08 4.73865e-07 2.67915e-05)
(2.49383e-12 4.44139e-10 -1.13638e-08 4.27901e-07 -3.44064e-06 0.000127995)
(1.46095e-06 2.14205e-07 4.98371e-06 4.92883e-08 1.26464e-06 4.78798e-05)
(2.62039e-07 9.72119e-08 5.93154e-07 4.56747e-08 2.10218e-07 9.74381e-06)
(9.54886e-08 2.42801e-08 6.72744e-07 1.74442e-08 -1.64985e-07 1.93721e-05)
(1.81679e-08 8.47269e-09 3.09365e-07 1.28775e-08 -2.41201e-07 2.84559e-05)
(1.11717e-13 -2.85534e-12 5.34032e-10 1.25599e-08 -2.69764e-07 3.20697e-05)
(1.81297e-08 -8.47926e-09 -3.08037e-07 1.28749e-08 -2.41242e-07 2.8464e-05)
(9.53588e-08 -2.42708e-08 -6.72355e-07 1.74372e-08 -1.64996e-07 1.93853e-05)
(2.61951e-07 -9.71821e-08 -5.92167e-07 4.56535e-08 2.09033e-07 9.74649e-06)
(1.4599e-06 -2.14082e-07 -4.9781e-06 4.92916e-08 1.2632e-06 4.77337e-05)
(1.90261e-12 7.4724e-10 -1.25568e-08 6.33753e-07 -4.94865e-06 0.000204958)
(7.38657e-07 1.38914e-07 1.97808e-06 9.38895e-08 1.8427e-06 5.24788e-05)
(1.20146e-07 4.22491e-08 2.88477e-07 6.89639e-08 1.54118e-07 6.70913e-06)
(7.67777e-08 2.50481e-09 8.01487e-07 2.21013e-08 -2.74426e-07 1.58012e-05)
(1.70008e-08 -4.15959e-10 4.85753e-07 1.57276e-08 -3.35592e-07 2.49507e-05)
(1.46845e-13 -1.1282e-11 8.61321e-10 1.51753e-08 -3.70521e-07 2.87048e-05)
(1.69179e-08 3.91477e-10 -4.83978e-07 1.57232e-08 -3.35584e-07 2.49591e-05)
(7.6643e-08 -2.52582e-09 -8.0125e-07 2.20888e-08 -2.74385e-07 1.58155e-05)
(1.20064e-07 -4.22389e-08 -2.89453e-07 6.89201e-08 1.52712e-07 6.71273e-06)
(7.38138e-07 -1.38764e-07 -1.97742e-06 9.3906e-08 1.84077e-06 5.23123e-05)
(1.26883e-12 3.08327e-10 -1.07742e-08 4.74162e-07 1.0543e-07 0.000263202)
(4.98439e-07 7.48605e-08 -1.78496e-07 1.33968e-07 1.95563e-06 4.18317e-05)
(9.80921e-08 1.98625e-08 1.79252e-07 7.88728e-08 4.69918e-08 3.59196e-06)
(7.05739e-08 -5.00033e-09 7.41471e-07 2.32503e-08 -3.20783e-07 1.23789e-05)
(1.69361e-08 -3.31184e-09 4.9922e-07 1.6096e-08 -3.63274e-07 2.13162e-05)
(1.61283e-13 -1.38422e-11 9.70273e-10 1.53367e-08 -3.95626e-07 2.50249e-05)
(1.6829e-08 3.28049e-09 -4.97323e-07 1.609e-08 -3.63185e-07 2.13247e-05)
(7.04211e-08 4.96496e-09 -7.41236e-07 2.32332e-08 -3.20677e-07 1.23939e-05)
(9.79865e-08 -1.98643e-08 -1.80627e-07 7.88188e-08 4.57821e-08 3.59909e-06)
(4.98134e-07 -7.47225e-08 1.75213e-07 1.34013e-07 1.95389e-06 4.16925e-05)
(9.13091e-13 9.69466e-11 -7.38806e-09 6.34727e-07 3.73006e-06 0.000272203)
(3.45701e-07 5.79908e-08 -6.06272e-07 1.52388e-07 1.63717e-06 2.72395e-05)
(8.06972e-08 2.47345e-08 1.48471e-07 8.15936e-08 -1.46144e-09 1.42114e-06)
(5.81869e-08 -3.64673e-09 6.08883e-07 2.31749e-08 -2.92672e-07 9.43548e-06)
(1.43729e-08 -2.81268e-09 4.44998e-07 1.57326e-08 -3.29322e-07 1.81041e-05)
(1.5712e-13 -1.25741e-11 9.36513e-10 1.4707e-08 -3.53389e-07 2.173e-05)
(1.42672e-08 2.78206e-09 -4.43196e-07 1.57247e-08 -3.29157e-07 1.8113e-05)
(5.80374e-08 3.60966e-09 -6.0862e-07 2.31552e-08 -2.92509e-07 9.45101e-06)
(8.05905e-08 -2.47271e-08 -1.4955e-07 8.15374e-08 -2.3871e-09 1.42932e-06)
(3.45429e-07 -5.78709e-08 6.02516e-07 1.52468e-07 1.63623e-06 2.71436e-05)
(8.23136e-13 4.62777e-11 -3.5056e-09 7.26898e-07 4.11985e-06 0.000207204)
(2.1654e-07 6.64044e-08 -3.60018e-07 1.61137e-07 1.3265e-06 1.74965e-05)
(6.58802e-08 3.47648e-08 1.25391e-07 8.19476e-08 2.20714e-08 4.7395e-07)
(4.61465e-08 -1.45282e-10 4.71481e-07 2.32907e-08 -2.19626e-07 7.37672e-06)
(1.1593e-08 -1.36821e-09 3.77697e-07 1.53357e-08 -2.54765e-07 1.57488e-05)
(1.44617e-13 -9.22867e-12 8.4231e-10 1.39819e-08 -2.683e-07 1.93006e-05)
(1.14975e-08 1.34253e-09 -3.76086e-07 1.53264e-08 -2.54542e-07 1.57582e-05)
(4.60093e-08 1.1277e-10 -4.71212e-07 2.32692e-08 -2.19441e-07 7.39255e-06)
(6.57818e-08 -3.47428e-08 -1.26149e-07 8.18919e-08 2.1368e-08 4.80876e-07)
(2.16308e-07 -6.63086e-08 3.57447e-07 1.61235e-07 1.32616e-06 1.74339e-05)
(1.0218e-12 3.98637e-11 -1.01722e-09 5.87794e-07 2.66377e-06 0.000120104)
(1.44937e-07 6.65836e-08 -2.3877e-07 1.68561e-07 1.14214e-06 1.28588e-05)
(5.48289e-08 4.01414e-08 1.11091e-07 8.21249e-08 6.80808e-08 6.24337e-07)
(3.67577e-08 2.90249e-09 3.67859e-07 2.36376e-08 -1.40187e-07 6.57752e-06)
(9.47646e-09 2.28547e-11 3.22379e-07 1.48497e-08 -1.68026e-07 1.47424e-05)
(1.33683e-13 -4.68952e-12 7.53322e-10 1.31948e-08 -1.71043e-07 1.82847e-05)
(9.39181e-09 -4.0852e-11 -3.2094e-07 1.48407e-08 -1.67766e-07 1.47525e-05)
(3.66346e-08 -2.92664e-09 -3.67589e-07 2.36158e-08 -1.40008e-07 6.59346e-06)
(5.47352e-08 -4.01119e-08 -1.11659e-07 8.20726e-08 6.75407e-08 6.29392e-07)
(1.44731e-07 -6.65098e-08 2.36996e-07 1.6866e-07 1.14199e-06 1.28156e-05)
(1.56278e-12 3.44776e-11 -1.19257e-10 4.50453e-07 1.30702e-06 5.86381e-05)
(1.07645e-07 5.31288e-08 -2.63456e-07 1.66946e-07 9.66902e-07 9.95131e-06)
(4.49541e-08 4.00858e-08 9.76186e-08 8.04394e-08 8.88899e-08 7.72493e-07)
(2.94653e-08 4.90184e-09 3.08482e-07 2.32936e-08 -9.15879e-08 6.47271e-06)
(7.93889e-09 1.05166e-09 2.86292e-07 1.4005e-08 -1.03229e-07 1.48011e-05)
(1.32752e-13 6.34468e-13 7.02548e-10 1.21977e-08 -9.68637e-08 1.84772e-05)
(7.86416e-09 -1.05951e-09 -2.84936e-07 1.3998e-08 -1.02951e-07 1.4812e-05)
(2.93558e-08 -4.91577e-09 -3.08184e-07 2.32733e-08 -9.14079e-08 6.48892e-06)
(4.48605e-08 -4.00581e-08 -9.80852e-08 8.03976e-08 8.84877e-08 7.76412e-07)
(1.07441e-07 -5.3067e-08 2.61879e-07 1.6703e-07 9.66826e-07 9.91958e-06)
(2.90159e-12 2.86523e-11 1.13775e-10 3.39311e-07 5.48687e-07 2.90665e-05)
(8.38078e-08 3.36811e-08 -2.97595e-07 1.53509e-07 7.27796e-07 6.85118e-06)
(3.56064e-08 3.54866e-08 8.5381e-08 7.45085e-08 6.86213e-08 5.3956e-07)
(2.34612e-08 5.35028e-09 2.88411e-07 2.17409e-08 -8.034e-08 6.81796e-06)
(6.82636e-09 1.45252e-09 2.7243e-07 1.2661e-08 -7.12695e-08 1.58692e-05)
(1.45346e-13 5.55543e-12 6.66141e-10 1.08944e-08 -5.8233e-08 1.98755e-05)
(6.76118e-09 -1.4501e-09 -2.71092e-07 1.26571e-08 -7.09867e-08 1.58814e-05)
(2.33653e-08 -5.35601e-09 -2.88056e-07 2.17246e-08 -8.01161e-08 6.83492e-06)
(3.55103e-08 -3.54665e-08 -8.57618e-08 7.44857e-08 6.8375e-08 5.43301e-07)
(8.36064e-08 -3.36355e-08 2.96135e-07 1.53573e-07 7.27743e-07 6.82815e-06)
(3.27767e-13 3.94161e-12 -1.68585e-09 1.16039e-09 -2.59317e-07 7.10042e-05)
(8.44449e-07 3.2515e-09 8.36557e-07 5.02244e-11 1.08114e-08 6.57288e-06)
(3.09793e-07 1.88085e-10 -1.33711e-07 9.42263e-11 -1.01229e-08 4.77151e-06)
(1.21659e-07 -8.17911e-10 -1.72401e-07 6.39746e-11 -1.76904e-09 3.7969e-06)
(3.73002e-08 -5.55072e-10 -1.18241e-07 4.75898e-11 7.38052e-10 3.63572e-06)
(5.2207e-14 -2.33306e-14 -1.41707e-10 6.12334e-11 1.09444e-09 3.66065e-06)
(3.72653e-08 5.55245e-10 1.18098e-07 4.76266e-11 7.34683e-10 3.6358e-06)
(1.21492e-07 8.18327e-10 1.72291e-07 6.39469e-11 -1.7697e-09 3.79722e-06)
(3.09972e-07 -1.90895e-10 1.34515e-07 9.42473e-11 -1.0125e-08 4.77154e-06)
(8.44751e-07 -3.26352e-09 -8.33245e-07 5.03016e-11 1.08101e-08 6.56798e-06)
(1.5554e-12 1.2979e-10 -8.52073e-09 1.58556e-08 -1.16958e-06 0.000247328)
(2.00882e-06 6.27224e-08 7.75998e-07 2.41661e-09 -7.06446e-09 4.09604e-06)
(7.08727e-07 3.71966e-08 -1.1052e-06 3.40048e-09 -8.47575e-08 5.36917e-06)
(2.59979e-07 1.17463e-08 -7.14679e-07 1.11372e-09 -3.38207e-08 7.1325e-06)
(7.32141e-08 4.88089e-09 -4.89999e-07 1.02132e-09 -2.97952e-08 8.47981e-06)
(4.10446e-14 3.51115e-12 -1.72897e-10 1.03069e-09 -2.64794e-08 8.7626e-06)
(7.31861e-08 -4.8769e-09 4.90045e-07 1.02173e-09 -2.97959e-08 8.47985e-06)
(2.59654e-07 -1.1736e-08 7.14613e-07 1.11396e-09 -3.38443e-08 7.13327e-06)
(7.09186e-07 -3.71992e-08 1.10698e-06 3.39896e-09 -8.48095e-08 5.37261e-06)
(2.00823e-06 -6.27704e-08 -7.66753e-07 2.42015e-09 -7.28537e-09 4.08376e-06)
(2.11563e-12 3.50551e-10 -1.26136e-08 7.59071e-08 -3.2037e-06 0.000346037)
(1.48355e-06 1.28238e-07 1.87881e-06 1.18985e-08 1.6016e-07 9.40237e-06)
(5.14809e-07 7.27509e-08 -1.04307e-06 1.37972e-08 -1.92616e-07 6.53815e-06)
(1.89788e-07 2.29446e-08 -7.2316e-07 3.45955e-09 -9.7634e-08 8.6971e-06)
(5.10317e-08 9.4177e-09 -4.85737e-07 3.01971e-09 -8.37736e-08 1.01407e-05)
(2.09561e-14 4.62826e-12 -9.70503e-11 2.94193e-09 -8.06967e-08 1.05162e-05)
(5.10567e-08 -9.41591e-09 4.8606e-07 3.02032e-09 -8.37762e-08 1.01406e-05)
(1.89584e-07 -2.29282e-08 7.23182e-07 3.45988e-09 -9.76687e-08 8.69801e-06)
(5.15267e-07 -7.27497e-08 1.04509e-06 1.3784e-08 -1.92775e-07 6.54207e-06)
(1.48292e-06 -1.28323e-07 -1.86807e-06 1.19163e-08 1.59476e-07 9.36348e-06)
(1.76593e-12 3.25279e-10 -1.29478e-08 8.31973e-08 -1.62952e-06 0.00038231)
(8.44822e-07 1.44922e-07 2.19756e-06 2.62893e-08 4.09534e-07 1.78906e-05)
(3.0947e-07 8.45702e-08 -7.87509e-07 2.85988e-08 -3.26111e-07 7.38938e-06)
(1.16513e-07 2.69184e-08 -6.38152e-07 6.86639e-09 -1.93111e-07 8.61111e-06)
(3.10154e-08 1.14132e-08 -4.08471e-07 5.6484e-09 -1.78536e-07 9.73112e-06)
(1.85268e-14 3.67559e-12 -4.18098e-11 5.38014e-09 -1.77056e-07 1.00854e-05)
(3.10631e-08 -1.14181e-08 4.08917e-07 5.64896e-09 -1.78544e-07 9.73098e-06)
(1.16417e-07 -2.69043e-08 6.38197e-07 6.86631e-09 -1.93165e-07 8.61212e-06)
(3.09856e-07 -8.45834e-08 7.89448e-07 2.85678e-08 -3.26374e-07 7.39251e-06)
(8.44555e-07 -1.45034e-07 -2.18872e-06 2.63325e-08 4.08466e-07 1.78269e-05)
(1.2382e-12 2.41234e-10 -1.18714e-08 8.52615e-08 -1.28977e-06 0.000384423)
(4.34286e-07 1.36235e-07 1.90395e-06 4.37648e-08 6.54898e-07 2.56206e-05)
(2.0369e-07 8.31727e-08 -5.42847e-07 4.11979e-08 -4.09659e-07 8.27575e-06)
(7.86645e-08 2.74332e-08 -5.47952e-07 1.03351e-08 -2.38716e-07 7.69209e-06)
(2.13875e-08 1.19619e-08 -3.32787e-07 7.9664e-09 -2.32266e-07 8.34568e-06)
(1.80924e-14 2.76607e-12 -3.62786e-11 7.45606e-09 -2.31265e-07 8.61421e-06)
(2.14369e-08 -1.19723e-08 3.33211e-07 7.96666e-09 -2.3228e-07 8.34566e-06)
(7.86235e-08 -2.74244e-08 5.48001e-07 1.03337e-08 -2.38799e-07 7.69307e-06)
(2.04029e-07 -8.32075e-08 5.44678e-07 4.11529e-08 -4.09941e-07 8.27719e-06)
(4.3438e-07 -1.3638e-07 -1.89839e-06 4.38439e-08 6.53616e-07 2.55504e-05)
(7.56101e-13 1.03472e-10 -9.5601e-09 6.96805e-08 2.44968e-07 0.000355005)
(2.49149e-07 1.20339e-07 1.59388e-06 5.89064e-08 8.23815e-07 3.23844e-05)
(1.62025e-07 8.26933e-08 -3.25138e-07 4.94206e-08 -4.00512e-07 9.07712e-06)
(6.25948e-08 2.87161e-08 -4.53853e-07 1.46098e-08 -2.33354e-07 6.31041e-06)
(1.7648e-08 1.30012e-08 -2.66162e-07 1.07343e-08 -2.43745e-07 6.45816e-06)
(1.46675e-14 2.86439e-12 -6.53357e-11 9.89583e-09 -2.42208e-07 6.62262e-06)
(1.76922e-08 -1.30148e-08 2.66467e-07 1.07343e-08 -2.4377e-07 6.45829e-06)
(6.25812e-08 -2.87131e-08 4.53908e-07 1.46067e-08 -2.33479e-07 6.31103e-06)
(1.62346e-07 -8.27469e-08 3.26849e-07 4.93748e-08 -4.00782e-07 9.07573e-06)
(2.49419e-07 -1.20533e-07 -1.59085e-06 5.90287e-08 8.2264e-07 3.2323e-05)
(3.99637e-13 3.15496e-12 -6.33913e-09 6.22445e-08 1.58518e-06 0.000296109)
(1.77639e-07 1.08848e-07 1.3946e-06 6.78818e-08 9.45642e-07 3.85197e-05)
(1.42021e-07 8.31024e-08 -1.18573e-07 5.43856e-08 -2.8995e-07 9.67688e-06)
(5.3253e-08 3.03644e-08 -3.44427e-07 1.97495e-08 -1.81863e-07 5.04686e-06)
(1.56591e-08 1.41832e-08 -1.99791e-07 1.40441e-08 -2.14805e-07 4.70604e-06)
(1.13716e-14 3.88051e-12 -9.2248e-11 1.27224e-08 -2.12805e-07 4.77213e-06)
(1.5696e-08 -1.41978e-08 1.99957e-07 1.40446e-08 -2.14846e-07 4.70619e-06)
(5.32572e-08 -3.03677e-08 3.44485e-07 1.97454e-08 -1.82045e-07 5.04678e-06)
(1.42329e-07 -8.31712e-08 1.20062e-07 5.43508e-08 -2.90253e-07 9.67233e-06)
(1.77952e-07 -1.09075e-07 -1.39283e-06 6.80401e-08 9.44756e-07 3.84698e-05)
(1.91583e-13 -2.65168e-11 -3.2673e-09 6.00972e-08 1.95429e-06 0.000218932)
(1.26738e-07 9.47109e-08 1.1504e-06 7.29842e-08 1.02914e-06 4.29954e-05)
(1.19937e-07 8.04298e-08 7.11859e-08 5.839e-08 -1.35384e-07 1.0663e-05)
(4.28067e-08 3.06403e-08 -2.28667e-07 2.54078e-08 -1.07889e-07 4.61966e-06)
(1.32944e-08 1.46884e-08 -1.33452e-07 1.75887e-08 -1.62741e-07 3.80375e-06)
(1.30701e-14 5.07528e-12 -8.83821e-11 1.55786e-08 -1.62026e-07 3.77451e-06)
(1.33243e-08 -1.47032e-08 1.33522e-07 1.7591e-08 -1.628e-07 3.80363e-06)
(4.28252e-08 -3.06511e-08 2.28707e-07 2.54055e-08 -1.08115e-07 4.61849e-06)
(1.20219e-07 -8.05117e-08 -7.00588e-08 5.8372e-08 -1.35744e-07 1.06555e-05)
(1.27019e-07 -9.49358e-08 -1.1495e-06 7.3158e-08 1.02853e-06 4.29547e-05)
(1.00829e-13 -1.98895e-11 -1.2139e-09 4.93252e-08 1.36231e-06 0.000146492)
(7.39735e-08 7.24148e-08 8.03849e-07 7.43259e-08 1.01e-06 4.29246e-05)
(9.02349e-08 7.10485e-08 1.99621e-07 5.96472e-08 3.83495e-09 1.11769e-05)
(3.05336e-08 2.78889e-08 -1.22015e-07 2.95426e-08 -3.10399e-08 4.39723e-06)
(1.02287e-08 1.37263e-08 -7.28098e-08 1.98724e-08 -9.8068e-08 3.19096e-06)
(2.14099e-14 5.14346e-12 -4.72215e-11 1.70551e-08 -1.01715e-07 3.06816e-06)
(1.02542e-08 -1.37422e-08 7.28403e-08 1.98786e-08 -9.81307e-08 3.19038e-06)
(3.05627e-08 -2.79075e-08 1.22005e-07 2.9546e-08 -3.12535e-08 4.3948e-06)
(9.04708e-08 -7.11364e-08 -1.9898e-07 5.96451e-08 3.46185e-09 1.11673e-05)
(7.41793e-08 -7.26062e-08 -8.03713e-07 7.4494e-08 1.00957e-06 4.28912e-05)
(6.72169e-14 -1.05675e-11 -3.23103e-10 3.84446e-08 6.46827e-07 9.56087e-05)
(3.13681e-08 4.60978e-08 4.07466e-07 7.28942e-08 8.69624e-07 3.64571e-05)
(5.843e-08 5.56455e-08 2.44452e-07 5.64501e-08 1.07861e-07 1.05288e-05)
(1.90861e-08 2.21404e-08 -3.89643e-08 3.00316e-08 4.5875e-08 4.11515e-06)
(7.08278e-09 1.13576e-08 -2.28225e-08 1.98223e-08 -2.38528e-08 2.67661e-06)
(2.8683e-14 3.21511e-12 1.12239e-11 1.64095e-08 -3.47192e-08 2.45238e-06)
(7.10722e-09 -1.13767e-08 2.28438e-08 1.98338e-08 -2.38894e-08 2.6758e-06)
(1.91187e-08 -2.21648e-08 3.88942e-08 3.00441e-08 4.57397e-08 4.11216e-06)
(5.86084e-08 -5.57284e-08 -2.44305e-07 5.646e-08 1.07551e-07 1.05191e-05)
(3.14881e-08 -4.62421e-08 -4.07949e-07 7.30426e-08 8.69307e-07 3.64315e-05)
(2.57553e-13 4.63105e-12 -1.19769e-09 1.26711e-10 -1.94852e-08 9.69489e-06)
(1.87778e-07 -4.20459e-10 2.36028e-07 1.88623e-11 2.16806e-09 2.77955e-06)
(4.44153e-08 -1.83419e-10 -1.33323e-07 2.25579e-11 4.40637e-09 2.92496e-06)
(3.05651e-08 2.02972e-11 -2.70469e-07 1.634e-11 3.66815e-09 4.79775e-06)
(1.10959e-08 1.11738e-10 -2.28371e-07 1.80618e-11 1.43001e-09 7.15728e-06)
(1.42545e-14 1.36753e-13 -1.42714e-10 2.11767e-11 2.21329e-09 8.23238e-06)
(1.10827e-08 -1.117e-10 2.28284e-07 1.8074e-11 1.42666e-09 7.15955e-06)
(3.05074e-08 -2.06787e-11 2.70438e-07 1.6338e-11 3.66229e-09 4.80123e-06)
(4.44281e-08 1.81885e-10 1.33885e-07 2.25382e-11 4.40185e-09 2.92838e-06)
(1.88004e-07 4.1008e-10 -2.34219e-07 1.88198e-11 2.18348e-09 2.77511e-06)
(8.66141e-13 5.02913e-11 -3.76779e-09 4.52934e-09 -2.23663e-07 2.40204e-05)
(5.73805e-07 1.51018e-08 7.29574e-07 9.03435e-10 1.07252e-08 1.13837e-05)
(1.54083e-07 6.7152e-09 -7.68252e-07 1.17201e-09 -1.81954e-08 1.03717e-05)
(6.88861e-08 2.92032e-09 -8.8346e-07 3.80693e-10 -3.30377e-08 1.88288e-05)
(2.49537e-08 1.7674e-09 -7.10252e-07 4.55701e-10 -4.51718e-08 2.58426e-05)
(2.05547e-14 1.46977e-12 1.31983e-10 4.57264e-10 -4.54861e-08 2.86789e-05)
(2.49692e-08 -1.76508e-09 7.10862e-07 4.5574e-10 -4.51489e-08 2.58469e-05)
(6.87849e-08 -2.9175e-09 8.83751e-07 3.80703e-10 -3.30686e-08 1.88363e-05)
(1.54155e-07 -6.71744e-09 7.70074e-07 1.17189e-09 -1.8289e-08 1.03817e-05)
(5.74007e-07 -1.51566e-08 -7.23384e-07 9.05173e-10 1.07271e-08 1.13669e-05)
(8.57116e-13 8.27781e-11 -4.71489e-09 1.33264e-08 -4.12085e-07 4.65081e-05)
(4.36389e-07 3.66196e-08 1.55391e-06 4.61613e-09 1.77431e-07 1.8942e-05)
(1.11614e-07 1.4069e-08 -6.8326e-07 5.28244e-09 -4.66573e-09 1.14618e-05)
(3.7575e-08 4.65278e-09 -7.0921e-07 1.18261e-09 -5.41067e-08 2.18205e-05)
(1.44482e-08 2.21878e-09 -6.08667e-07 1.28076e-09 -6.07731e-08 3.03684e-05)
(2.26348e-14 1.22235e-12 5.45022e-10 1.28872e-09 -6.76296e-08 3.39553e-05)
(1.44984e-08 -2.21613e-09 6.1006e-07 1.28069e-09 -6.0697e-08 3.03742e-05)
(3.75398e-08 -4.64581e-09 7.09856e-07 1.18237e-09 -5.41259e-08 2.18305e-05)
(1.11696e-07 -1.40645e-08 6.85209e-07 5.2793e-09 -4.89548e-09 1.14731e-05)
(4.36391e-07 -3.668e-08 -1.54704e-06 4.62393e-09 1.7733e-07 1.88975e-05)
(6.33803e-13 5.61342e-11 -4.75912e-09 1.90716e-08 -1.52977e-07 7.07907e-05)
(2.44914e-07 5.14086e-08 1.69307e-06 1.38008e-08 4.34888e-07 2.42332e-05)
(5.24634e-08 1.57783e-08 -4.34272e-07 1.23864e-08 -1.58984e-08 9.26166e-06)
(1.22236e-08 4.64889e-09 -4.03225e-07 2.81512e-09 -1.18431e-07 1.96021e-05)
(5.56765e-09 2.10328e-09 -3.81595e-07 2.71619e-09 -1.18144e-07 2.86893e-05)
(3.58445e-14 -1.24106e-12 8.20417e-10 2.72181e-09 -1.32794e-07 3.25675e-05)
(5.61809e-09 -2.1048e-09 3.83426e-07 2.71546e-09 -1.18006e-07 2.8696e-05)
(1.22286e-08 -4.643e-09 4.04003e-07 2.81386e-09 -1.18413e-07 1.96138e-05)
(5.25261e-08 -1.57713e-08 4.3579e-07 1.23763e-08 -1.62903e-08 9.27215e-06)
(2.44861e-07 -5.14459e-08 -1.68727e-06 1.38172e-08 4.34474e-07 2.41648e-05)
(4.10843e-13 1.98269e-11 -4.31456e-09 2.74136e-08 4.72784e-07 9.27239e-05)
(1.2477e-07 5.31806e-08 1.3929e-06 2.7315e-08 7.23613e-07 2.54519e-05)
(2.2558e-08 1.26178e-08 -2.50186e-07 1.94149e-08 -1.51917e-08 5.7019e-06)
(3.2337e-09 2.96967e-09 -1.88443e-07 3.90658e-09 -1.48576e-07 1.53123e-05)
(2.12819e-09 1.27337e-09 -2.05529e-07 3.36337e-09 -1.35394e-07 2.44413e-05)
(4.82508e-14 -3.3293e-12 9.31256e-10 3.37309e-09 -1.53712e-07 2.8348e-05)
(2.16423e-09 -1.27849e-09 2.07487e-07 3.36168e-09 -1.35192e-07 2.44487e-05)
(3.24589e-09 -2.96791e-09 1.89221e-07 3.90318e-09 -1.48503e-07 1.53254e-05)
(2.2604e-08 -1.26127e-08 2.51241e-07 1.93947e-08 -1.56964e-08 5.71139e-06)
(1.24749e-07 -5.31992e-08 -1.38874e-06 2.73402e-08 7.22816e-07 2.53718e-05)
(2.2972e-13 -1.68516e-11 -3.42584e-09 4.75885e-08 1.47759e-06 0.000106757)
(6.52974e-08 4.78707e-08 1.00112e-06 4.19284e-08 9.00048e-07 2.21128e-05)
(1.21043e-08 1.10589e-08 -1.33519e-07 2.49501e-08 -1.67748e-08 2.63607e-06)
(1.22031e-09 2.06827e-09 -8.60947e-08 4.92534e-09 -1.61684e-07 1.12459e-05)
(1.14046e-09 9.56804e-10 -1.11054e-07 3.72289e-09 -1.36098e-07 2.01593e-05)
(5.13467e-14 -4.6489e-12 9.15924e-10 3.76875e-09 -1.5443e-07 2.39776e-05)
(1.16524e-09 -9.64185e-10 1.12928e-07 3.71997e-09 -1.3584e-07 2.01672e-05)
(1.22953e-09 -2.07121e-09 8.68397e-08 4.91859e-09 -1.61558e-07 1.12599e-05)
(1.21426e-08 -1.10573e-08 1.34309e-07 2.49204e-08 -1.73207e-08 2.64451e-06)
(6.53223e-08 -4.78909e-08 -9.9861e-07 4.19634e-08 8.99025e-07 2.20383e-05)
(1.04872e-13 -3.68167e-11 -2.21023e-09 8.10669e-08 2.47048e-06 0.00010293)
(4.15233e-08 4.25425e-08 7.41679e-07 5.13465e-08 9.05911e-07 1.67176e-05)
(9.8356e-09 1.27744e-08 -6.02306e-08 2.84319e-08 9.24203e-09 1.11493e-06)
(9.43429e-10 2.19894e-09 -6.0612e-08 6.03975e-09 -1.48818e-07 8.44191e-06)
(8.14585e-10 1.06685e-09 -7.92678e-08 4.02205e-09 -1.14769e-07 1.7006e-05)
(4.55173e-14 -4.88343e-12 8.26238e-10 4.12644e-09 -1.29939e-07 2.07028e-05)
(8.35027e-10 -1.07445e-09 8.09467e-08 4.01786e-09 -1.14474e-07 1.70146e-05)
(9.51358e-10 -2.205e-09 6.13325e-08 6.02866e-09 -1.48661e-07 8.4564e-06)
(9.87422e-09 -1.27754e-08 6.09272e-08 2.83962e-08 8.69265e-09 1.12179e-06)
(4.15776e-08 -4.25787e-08 -7.40337e-07 5.1394e-08 9.04978e-07 1.66613e-05)
(3.9123e-14 -3.23095e-11 -1.07831e-09 1.08875e-07 2.72302e-06 7.7815e-05)
(3.04503e-08 3.85251e-08 5.82375e-07 5.51682e-08 8.3009e-07 1.27182e-05)
(1.05254e-08 1.58135e-08 -1.29856e-08 3.06867e-08 5.25553e-08 1.07173e-06)
(1.33688e-09 2.8482e-09 -6.64773e-08 7.48842e-09 -1.27938e-07 7.22998e-06)
(7.5087e-10 1.33257e-09 -7.89081e-08 4.5229e-09 -9.24133e-08 1.55151e-05)
(3.7015e-14 -4.35885e-12 7.22545e-10 4.68324e-09 -1.02953e-07 1.91555e-05)
(7.70063e-10 -1.33931e-09 8.03885e-08 4.51739e-09 -9.21018e-08 1.55244e-05)
(1.34624e-09 -2.85607e-09 6.71978e-08 7.47256e-09 -1.27778e-07 7.24469e-06)
(1.05689e-08 -1.58179e-08 1.36447e-08 3.06475e-08 5.20036e-08 1.07682e-06)
(3.05171e-08 -3.85755e-08 -5.81711e-07 5.52256e-08 8.29383e-07 1.26796e-05)
(1.8503e-14 -1.97237e-11 -4.15348e-10 1.06409e-07 2.16342e-06 4.83029e-05)
(2.05189e-08 3.27546e-08 4.3572e-07 5.66639e-08 7.49858e-07 1.02865e-05)
(1.1148e-08 1.77776e-08 8.2669e-09 3.19898e-08 7.24388e-08 1.26918e-06)
(1.97758e-09 3.50938e-09 -8.1092e-08 9.24976e-09 -1.3161e-07 6.9485e-06)
(8.36862e-10 1.58618e-09 -9.15587e-08 5.26299e-09 -9.8796e-08 1.53483e-05)
(3.27125e-14 -3.16939e-12 6.39086e-10 5.42241e-09 -1.04972e-07 1.90948e-05)
(8.54754e-10 -1.59148e-09 9.2903e-08 5.25611e-09 -9.84796e-08 1.53586e-05)
(1.98922e-09 -3.51855e-09 8.18475e-08 9.22953e-09 -1.3146e-07 6.96355e-06)