-0.0075 	0 	0 	0
-0.0075 	-7.21648e-35 	3.11053e-36 	-6.94313e-33
-0.00745622 	-9.48463e-05 	4.08816e-06 	-0.00912536
-0.00745622 	-9.48463e-05 	4.08816e-06 	-0.00912536
-0.00741165 	4.66242e-05 	9.99518e-06 	-0.0204269
-0.00741165 	4.66242e-05 	9.99518e-06 	-0.0204269
-0.00736628 	0.000202492 	1.9935e-05 	-0.0323802
-0.00736628 	0.000202492 	1.9935e-05 	-0.0323802
-0.0073201 	0.000268539 	2.7435e-05 	-0.0440397
-0.0073201 	0.000268539 	2.7435e-05 	-0.0440397
-0.00727309 	0.000269839 	3.37614e-05 	-0.0552628
-0.00727309 	0.000269839 	3.37614e-05 	-0.0552628
-0.00722524 	0.000242263 	3.90696e-05 	-0.0661406
-0.00722524 	0.000242263 	3.90696e-05 	-0.0661406
-0.00717653 	0.000202356 	4.35709e-05 	-0.0766903
-0.00717653 	0.000202356 	4.35709e-05 	-0.0766903
-0.00712695 	0.000157314 	4.77849e-05 	-0.0868816
-0.00712695 	0.000157314 	4.77849e-05 	-0.0868816
-0.00707647 	0.000108545 	5.23946e-05 	-0.0966688
-0.00707647 	0.000108545 	5.23946e-05 	-0.0966688
-0.0070251 	5.30255e-05 	5.72651e-05 	-0.106006
-0.0070251 	5.30255e-05 	5.72651e-05 	-0.106006
-0.0069728 	-1.24368e-05 	6.1469e-05 	-0.114862
-0.0069728 	-1.24368e-05 	6.1469e-05 	-0.114862
-0.00691956 	-8.7544e-05 	6.46665e-05 	-0.123231
-0.00691956 	-8.7544e-05 	6.46665e-05 	-0.123231
-0.00686537 	-0.000169333 	6.79693e-05 	-0.13113
-0.00686537 	-0.000169333 	6.79693e-05 	-0.13113
-0.00681021 	-0.000254192 	7.21454e-05 	-0.138589
-0.00681021 	-0.000254192 	7.21454e-05 	-0.138589
-0.00675406 	-0.000340409 	7.64897e-05 	-0.145639
-0.00675406 	-0.000340409 	7.64897e-05 	-0.145639
-0.0066969 	-0.000428016 	8.0256e-05 	-0.152313
-0.0066969 	-0.000428016 	8.0256e-05 	-0.152313
-0.00663871 	-0.00051559 	8.31746e-05 	-0.158638
-0.00663871 	-0.00051559 	8.31746e-05 	-0.158638
-0.00657949 	-0.000600014 	8.57607e-05 	-0.164644
-0.00657949 	-0.000600014 	8.57607e-05 	-0.164644
-0.0065192 	-0.000679582 	9.09647e-05 	-0.170354
-0.0065192 	-0.000679582 	9.09647e-05 	-0.170354
-0.00645783 	-0.000758548 	0.000102711 	-0.175777
-0.00645783 	-0.000758548 	0.000102711 	-0.175777
-0.00639535 	-0.000848242 	0.000118596 	-0.180899
-0.00639535 	-0.000848242 	0.000118596 	-0.180899
-0.00633176 	-0.000958296 	0.000127194 	-0.185697
-0.00633176 	-0.000958296 	0.000127194 	-0.185697
-0.00626703 	-0.00108238 	0.000118761 	-0.190189
-0.00626703 	-0.00108238 	0.000118761 	-0.190189
-0.00620114 	-0.00119105 	9.6207e-05 	-0.194475
-0.00620114 	-0.00119105 	9.6207e-05 	-0.194475
-0.00613406 	-0.00124457 	8.49992e-05 	-0.198722
-0.00613406 	-0.00124457 	8.49992e-05 	-0.198722
-0.00606579 	-0.00123532 	0.00011211 	-0.20303
-0.00606579 	-0.00123532 	0.00011211 	-0.20303
-0.00599629 	-0.00120845 	0.000155482 	-0.207282
-0.00599629 	-0.00120845 	0.000155482 	-0.207282
-0.00592554 	-0.00121205 	0.0001762 	-0.211224
-0.00592554 	-0.00121205 	0.0001762 	-0.211224
-0.00585352 	-0.00125388 	0.000173896 	-0.214739
-0.00585352 	-0.00125388 	0.000173896 	-0.214739
-0.00578022 	-0.00131184 	0.000167238 	-0.217911
-0.00578022 	-0.00131184 	0.000167238 	-0.217911
-0.00570559 	-0.00136452 	0.000167976 	-0.220872
-0.00570559 	-0.00136452 	0.000167976 	-0.220872
-0.00562963 	-0.00140905 	0.000174484 	-0.223702
-0.00562963 	-0.00140905 	0.000174484 	-0.223702
-0.00555231 	-0.00145043 	0.000180871 	-0.226423
-0.00555231 	-0.00145043 	0.000180871 	-0.226423
-0.0054736 	-0.00149047 	0.000187039 	-0.22904
-0.0054736 	-0.00149047 	0.000187039 	-0.22904
-0.00539348 	-0.00152939 	0.000193654 	-0.231556
-0.00539348 	-0.00152939 	0.000193654 	-0.231556
-0.00531193 	-0.00156728 	0.000199863 	-0.233976
-0.00531193 	-0.00156728 	0.000199863 	-0.233976
-0.00522891 	-0.00160394 	0.000205772 	-0.236307
-0.00522891 	-0.00160394 	0.000205772 	-0.236307
-0.0051444 	-0.00163892 	0.000211687 	-0.238554
-0.0051444 	-0.00163892 	0.000211687 	-0.238554
-0.00505838 	-0.00167176 	0.000217654 	-0.240722
-0.00505838 	-0.00167176 	0.000217654 	-0.240722
-0.00497081 	-0.00170202 	0.00022372 	-0.242817
-0.00497081 	-0.00170202 	0.00022372 	-0.242817
-0.00488168 	-0.00172922 	0.000229836 	-0.24484
-0.00488168 	-0.00172922 	0.000229836 	-0.24484
-0.00479094 	-0.00175293 	0.000235914 	-0.246795
-0.00479094 	-0.00175293 	0.000235914 	-0.246795
-0.00469858 	-0.00177259 	0.000241975 	-0.248684
-0.00469858 	-0.00177259 	0.000241975 	-0.248684
-0.00460456 	-0.00178757 	0.000248247 	-0.250508
-0.00460456 	-0.00178757 	0.000248247 	-0.250508
-0.00450886 	-0.00179726 	0.000254322 	-0.252266
-0.00450886 	-0.00179726 	0.000254322 	-0.252266
-0.00441144 	-0.00180116 	0.000260131 	-0.25396
-0.00441144 	-0.00180116 	0.000260131 	-0.25396
-0.00431227 	-0.00179923 	0.000269736 	-0.25559
-0.00431227 	-0.00179923 	0.000269736 	-0.25559
-0.00421133 	-0.00179241 	0.000283592 	-0.257157
-0.00421133 	-0.00179241 	0.000283592 	-0.257157
-0.00410857 	-0.00177865 	0.000261088 	-0.258654
-0.00410857 	-0.00177865 	0.000261088 	-0.258654
-0.00400397 	-0.00173245 	0.000173309 	-0.260024
-0.00400397 	-0.00173245 	0.000173309 	-0.260024
-0.0038975 	-0.00161399 	0.000110257 	-0.26114
-0.0038975 	-0.00161399 	0.000110257 	-0.26114
-0.00378912 	-0.00143689 	0.000240155 	-0.261988
-0.00378912 	-0.00143689 	0.000240155 	-0.261988
-0.00367879 	-0.00130364 	0.000597448 	-0.263047
-0.00367879 	-0.00130364 	0.000597448 	-0.263047
-0.00356649 	-0.00136915 	0.000620498 	-0.265333
-0.00356649 	-0.00136915 	0.000620498 	-0.265333
-0.00345217 	-0.00160109 	0.000256018 	-0.268409
-0.00345217 	-0.00160109 	0.000256018 	-0.268409
-0.0033358 	-0.00181452 	0.000141389 	-0.270927
-0.0033358 	-0.00181452 	0.000141389 	-0.270927
-0.00321735 	-0.00190088 	0.000237448 	-0.272708
-0.00321735 	-0.00190088 	0.000237448 	-0.272708
-0.00309677 	-0.00187166 	0.000279402 	-0.274063
-0.00309677 	-0.00187166 	0.000279402 	-0.274063
-0.00297403 	-0.00180415 	0.000290243 	-0.275259
-0.00297403 	-0.00180415 	0.000290243 	-0.275259
-0.00284909 	-0.00172696 	0.000316802 	-0.276412
-0.00284909 	-0.00172696 	0.000316802 	-0.276412
-0.0027219 	-0.00164726 	0.000332775 	-0.277562
-0.0027219 	-0.00164726 	0.000332775 	-0.277562
-0.00259244 	-0.00156891 	0.000343106 	-0.278714
-0.00259244 	-0.00156891 	0.000343106 	-0.278714
-0.00246065 	-0.00149025 	0.000353409 	-0.279855
-0.00246065 	-0.00149025 	0.000353409 	-0.279855
-0.00232651 	-0.00141039 	0.000353562 	-0.280974
-0.00232651 	-0.00141039 	0.000353562 	-0.280974
-0.00218995 	-0.00132719 	0.000342035 	-0.282046
-0.00218995 	-0.00132719 	0.000342035 	-0.282046
-0.00205095 	-0.00123882 	0.000350444 	-0.28305
-0.00205095 	-0.00123882 	0.000350444 	-0.28305
-0.00190946 	-0.00114775 	0.000406046 	-0.284013
-0.00190946 	-0.00114775 	0.000406046 	-0.284013
-0.00176543 	-0.0010619 	0.000447128 	-0.285029
-0.00176543 	-0.0010619 	0.000447128 	-0.285029
-0.00161881 	-0.000988223 	0.000415927 	-0.286138
-0.00161881 	-0.000988223 	0.000415927 	-0.286138
-0.00146957 	-0.00092196 	0.000374753 	-0.287248
-0.00146957 	-0.00092196 	0.000374753 	-0.287248
-0.00131765 	-0.000849862 	0.000381097 	-0.288245
-0.00131765 	-0.000849862 	0.000381097 	-0.288245
-0.001163 	-0.00076413 	0.000404715 	-0.289091
-0.001163 	-0.00076413 	0.000404715 	-0.289091
-0.00100559 	-0.00066504 	0.00041529 	-0.289802
-0.00100559 	-0.00066504 	0.00041529 	-0.289802
-0.000845345 	-0.000554751 	0.000422038 	-0.290392
-0.000845345 	-0.000554751 	0.000422038 	-0.290392
-0.000682232 	-0.00043314 	0.000431117 	-0.290871
-0.000682232 	-0.00043314 	0.000431117 	-0.290871
-0.000516194 	-0.000297007 	0.000436329 	-0.291237
-0.000516194 	-0.000297007 	0.000436329 	-0.291237
-0.000347178 	-0.000141608 	0.00044104 	-0.291496
-0.000347178 	-0.000141608 	0.00044104 	-0.291496
-0.000175132 	3.22206e-05 	0.00047113 	-0.291639
-0.000175132 	3.22206e-05 	0.00047113 	-0.291639
0 	0.000215215 	0.000499478 	-0.291597
0 	0.000215215 	0.000499478 	-0.291597
0 	0.000215215 	0.000499478 	-0.291597
0 	0.000215215 	0.000499478 	-0.291597
0.000175132 	0.000392698 	0.000496861 	-0.291182
0.000175132 	0.0010046 	-0.0221511 	-0.321785
0.000347178 	0.000548352 	0.000548697 	-0.290047
0.000347178 	0.00193266 	-0.0221665 	-0.322139
0.000516194 	0.000688236 	0.000384659 	-0.287896
0.000516194 	0.00288396 	-0.0220507 	-0.322419
0.000682232 	0.000838379 	-5.19048e-05 	-0.285346
0.000682232 	0.00386045 	-0.0218846 	-0.322528
0.000845345 	0.00101147 	3.96632e-05 	-0.284009
0.000845345 	0.00483041 	-0.0216888 	-0.322475
0.00100559 	0.00119731 	0.000493446 	-0.283944
0.00100559 	0.00572441 	-0.021485 	-0.322312
0.001163 	0.00137411 	0.000614897 	-0.283883
0.001163 	0.00649786 	-0.0212938 	-0.32213
0.00131765 	0.00153048 	0.00050995 	-0.283398
0.00131765 	0.00716483 	-0.021117 	-0.32203
0.00146957 	0.00166625 	0.000390412 	-0.282564
0.00146957 	0.0077674 	-0.0209436 	-0.322018
0.00161881 	0.00177638 	0.000302267 	-0.281472
0.00161881 	0.00832982 	-0.0211053 	-0.321458
0.00176543 	0.00186239 	0.000226141 	-0.279953
0.00176543 	0.0088981 	-0.0214243 	-0.318613
0.00190946 	0.00196457 	0.000365532 	-0.277611
0.00190946 	0.00969921 	-0.020164 	-0.310831
0.00205095 	0.00212239 	0.000685558 	-0.274288
0.00205095 	0.0108817 	-0.0175958 	-0.297144
0.00218995 	0.00228751 	0.000666504 	-0.271514
0.00218995 	0.0120178 	-0.0174049 	-0.287891
0.00232651 	0.00241906 	0.000379928 	-0.27026
0.00232651 	0.0128509 	-0.0190819 	-0.289095
0.00246065 	0.00253739 	0.000278334 	-0.26944
0.00246065 	0.013596 	-0.0194962 	-0.293061
0.00259244 	0.00264429 	0.000343727 	-0.268355
0.00259244 	0.0142983 	-0.0188027 	-0.29511
0.0027219 	0.00273431 	0.000420727 	-0.266997
0.0027219 	0.0149263 	-0.0180678 	-0.29536
0.00284909 	0.00281103 	0.000448025 	-0.265524
0.00284909 	0.0155172 	-0.0176198 	-0.294988
0.00297403 	0.00287864 	0.000458044 	-0.264009
0.00297403 	0.0161344 	-0.0172627 	-0.294577
0.00309677 	0.0029375 	0.000475661 	-0.262461
0.00309677 	0.0168928 	-0.0169149 	-0.294319
0.00321735 	0.00298653 	0.000496175 	-0.260883
0.00321735 	0.0178042 	-0.0164568 	-0.294444
0.0033358 	0.00302197 	0.000502237 	-0.259286
0.0033358 	0.018758 	-0.0156683 	-0.295076
0.00345217 	0.0030391 	0.000509688 	-0.257688
0.00345217 	0.0194899 	-0.0151576 	-0.295153
0.00356649 	0.00306979 	0.000552279 	-0.256025
0.00356649 	0.0197995 	-0.0155035 	-0.293828
0.00367879 	0.00323299 	0.000598049 	-0.253956
0.00367879 	0.0197756 	-0.0160667 	-0.291055
0.00378912 	0.0195948 	-0.0156796 	-0.285639
0.00378912 	0.00367205 	0.000598011 	-0.250857
0.0038975 	0.00441145 	0.000511326 	-0.246106
0.0038975 	0.0193422 	-0.0136661 	-0.275591
0.00400397 	0.00516018 	0.000419531 	-0.240549
0.00400397 	0.0191277 	-0.0115927 	-0.262852
0.00410857 	0.00547489 	0.000460625 	-0.236678
0.00410857 	0.0193692 	-0.0117552 	-0.254997
0.00421133 	0.00532585 	0.000536373 	-0.235019
0.00421133 	0.0200693 	-0.0131457 	-0.254151
0.00431227 	0.00501865 	0.000541753 	-0.233943
0.00431227 	0.0207137 	-0.0136425 	-0.25531
0.00441144 	0.00477039 	0.000507552 	-0.232529
0.00441144 	0.021043 	-0.0130632 	-0.255435
0.00450886 	0.00463075 	0.000458455 	-0.23074
0.00450886 	0.0211175 	-0.0121872 	-0.254445
0.00460456 	0.00454568 	0.00042407 	-0.228779
0.00460456 	0.0210888 	-0.0117003 	-0.253016
0.00469858 	0.00447331 	0.000410697 	-0.226755
0.00469858 	0.0210409 	-0.0115012 	-0.251481
0.00479094 	0.00441082 	0.00040126 	-0.224682
0.00479094 	0.0210042 	-0.0113063 	-0.249885
0.00488168 	0.00435993 	0.000391057 	-0.222552
0.00488168 	0.021001 	-0.0110562 	-0.248246
0.00497081 	0.00431647 	0.000381455 	-0.220361
0.00497081 	0.021015 	-0.0107536 	-0.246588
0.00505838 	0.0042763 	0.000371651 	-0.218104
0.00505838 	0.0209954 	-0.0104481 	-0.244878
0.0051444 	0.00423855 	0.000361299 	-0.215782
0.0051444 	0.0209015 	-0.010196 	-0.243018
0.00522891 	0.00420398 	0.000350122 	-0.213392
0.00522891 	0.0207384 	-0.00999741 	-0.24099
0.00531193 	0.0205551 	-0.00977846 	-0.238876
0.00531193 	0.00417277 	0.00033813 	-0.210932
0.00539348 	0.00414366 	0.000325694 	-0.208397
0.00539348 	0.020388 	-0.00951327 	-0.23674
0.0054736 	0.00411472 	0.000313085 	-0.205784
0.0054736 	0.0202302 	-0.00924463 	-0.234579
0.00555231 	0.00408443 	0.000300347 	-0.203084
0.00555231 	0.0200608 	-0.00899546 	-0.232372
0.00562963 	0.00405182 	0.000287452 	-0.200292
0.00562963 	0.0198719 	-0.00875224 	-0.230109
0.00570559 	0.00401624 	0.000274381 	-0.197399
0.00570559 	0.0196645 	-0.00850614 	-0.227784
0.00578022 	0.00397752 	0.000261192 	-0.194394
0.00578022 	0.0194393 	-0.00825954 	-0.225386
0.00585352 	0.00393608 	0.000247989 	-0.19126
0.00585352 	0.0191964 	-0.00801145 	-0.222903
0.00592554 	0.0038928 	0.000234882 	-0.187979
0.00592554 	0.0189357 	-0.00776051 	-0.220315
0.00599629 	0.00384874 	0.000221985 	-0.184531
0.00599629 	0.0186564 	-0.00750562 	-0.217598
0.00606579 	0.0183572 	-0.00724673 	-0.214723
0.00606579 	0.00380496 	0.000209307 	-0.18089
0.00613406 	0.00376246 	0.000196805 	-0.17703
0.00613406 	0.018037 	-0.00698376 	-0.211654
0.00620114 	0.00372216 	0.000184444 	-0.172922
0.00620114 	0.0176942 	-0.00671613 	-0.208351
0.00626703 	0.00368477 	0.000172244 	-0.168538
0.00626703 	0.0173272 	-0.00644281 	-0.204763
0.00633176 	0.00365063 	0.000160031 	-0.163851
0.00633176 	0.0169339 	-0.0061646 	-0.200833
0.00639535 	0.00361946 	0.000147655 	-0.158833
0.00639535 	0.0165116 	-0.00588224 	-0.196498
0.00645783 	0.00359022 	0.00013562 	-0.153458
0.00645783 	0.0160568 	-0.00559152 	-0.191686
0.0065192 	0.00356082 	0.000124213 	-0.147702
0.0065192 	0.0155652 	-0.00528964 	-0.186327
0.00657949 	0.00352767 	0.000112884 	-0.141545
0.00657949 	0.0150329 	-0.00497953 	-0.18036
0.00663871 	0.00348538 	0.000100866 	-0.134979
0.00663871 	0.0144559 	-0.00466624 	-0.173762
0.0066969 	0.00342719 	8.83138e-05 	-0.128001
0.0066969 	0.01383 	-0.00434925 	-0.166521
0.00675406 	0.00334608 	7.64147e-05 	-0.120606
0.00675406 	0.0131481 	-0.00402201 	-0.158609
0.00681021 	0.00323631 	6.55148e-05 	-0.112798
0.00681021 	0.0124028 	-0.00368438 	-0.150004
0.00686537 	0.0030944 	5.51177e-05 	-0.10461
0.00686537 	0.0115901 	-0.00334225 	-0.140711
0.00691956 	0.00291877 	4.53754e-05 	-0.0961074
0.00691956 	0.0107115 	-0.00299907 	-0.130769
0.0069728 	0.00270957 	3.6742e-05 	-0.0873914
0.0069728 	0.00977476 	-0.00265787 	-0.120275
0.0070251 	0.00246951 	2.93191e-05 	-0.0785877
0.0070251 	0.00879367 	-0.00232422 	-0.10939
0.00707647 	0.00220459 	2.30922e-05 	-0.0698302
0.00707647 	0.00778733 	-0.00200385 	-0.098324
0.00712695 	0.0019241 	1.81176e-05 	-0.0612352
0.00712695 	0.00677707 	-0.00170039 	-0.0872844
0.00717653 	0.00164023 	1.45129e-05 	-0.0528779
0.00717653 	0.00578274 	-0.0014154 	-0.0764145
0.00722524 	0.00136807 	1.23081e-05 	-0.0447814
0.00722524 	0.00482029 	-0.00114628 	-0.0657479
0.00727309 	0.00112716 	1.1355e-05 	-0.036915
0.00727309 	0.00390181 	-0.000896011 	-0.0551864
0.0073201 	0.000945754 	1.12032e-05 	-0.0291935
0.0073201 	0.00303821 	-0.000683234 	-0.0444816
0.00736628 	0.000868553 	1.04911e-05 	-0.0215005
0.00736628 	0.00224314 	-0.000417499 	-0.0332228
0.00741165 	0.000831785 	7.97198e-06 	-0.0138419
0.00741165 	0.00150856 	-0.000259371 	-0.021307
0.00745622 	0.000589705 	4.49361e-06 	-0.00652853
0.00745622 	0.000778734 	-0.000123648 	-0.00971693
0.0075 	0 	0 	0
0.0075 	0 	0 	0
