/*--------------------------------*- C++ -*----------------------------------*\
| =========                 |                                                 |
| \\      /  F ield         | OpenFOAM: The Open Source CFD Toolbox           |
|  \\    /   O peration     | Version:  v1912                                 |
|   \\  /    A nd           | Website:  www.openfoam.com                      |
|    \\/     M anipulation  |                                                 |
\*---------------------------------------------------------------------------*/
FoamFile
{
    version     2.0;
    format      ascii;
    class       volScalarField;
    location    "7.6";
    object      heatTransferCoeff(T);
}
// * * * * * * * * * * * * * * * * * * * * * * * * * * * * * * * * * * * * * //

dimensions      [1 0 -3 -1 0 0 0];


internalField   uniform 0;

boundaryField
{
    leftWall
    {
        type            calculated;
        value           nonuniform List<scalar> 
216
(
-165.116
-166.704
-167.274
-168.909
-170.109
-171.852
-173.679
-175.57
-178.027
-180.097
-183.188
-185.463
-189.2
-191.732
-196.173
-199.08
-204.417
-207.993
-163.738
-166.037
-166.811
-169.167
-170.749
-173.251
-175.608
-178.274
-181.372
-184.188
-187.961
-190.875
-195.23
-198.194
-203.087
-206.151
-211.703
-215.109
-164.822
-167.812
-168.744
-171.79
-173.67
-176.871
-179.623
-182.989
-186.549
-190.047
-194.331
-197.9
-202.812
-206.386
-211.857
-215.407
-221.414
-224.985
-163.814
-166.557
-167.426
-170.208
-171.966
-174.87
-177.444
-180.487
-183.824
-187.001
-191.051
-194.334
-199.042
-202.367
-207.68
-210.991
-216.86
-220.156
-163.462
-165.85
-166.465
-168.809
-170.098
-172.439
-174.352
-176.722
-179.249
-181.702
-184.881
-187.48
-191.388
-194.193
-198.9
-201.974
-207.546
-210.998
-162.598
-164.751
-165.25
-167.332
-168.439
-170.492
-172.181
-174.27
-176.559
-178.778
-181.754
-184.22
-188.019
-190.854
-195.606
-198.93
-204.745
-208.702
-162.294
-164.532
-165.151
-167.368
-168.724
-170.993
-173.061
-175.465
-178.267
-180.899
-184.5
-187.451
-191.92
-195.25
-200.606
-204.308
-210.508
-214.569
-164.326
-166.682
-167.375
-169.751
-171.21
-173.677
-175.885
-178.505
-181.478
-184.317
-188.081
-191.193
-195.75
-199.146
-204.449
-208.084
-214.065
-217.94
-166.296
-168.167
-168.812
-170.726
-172.066
-174.103
-176.129
-178.331
-181.049
-183.449
-186.864
-189.493
-193.618
-196.523
-201.385
-204.638
-210.296
-214.041
-166.881
-168.627
-169.347
-171.175
-172.7
-174.719
-177.01
-179.26
-182.275
-184.74
-188.432
-191.09
-195.445
-198.347
-203.415
-206.694
-212.588
-216.434
-167.341
-169.503
-170.233
-172.436
-173.982
-176.303
-178.596
-181.064
-184.04
-186.652
-190.279
-193.061
-197.365
-200.4
-205.448
-208.829
-214.672
-218.465
-167.753
-169.766
-170.316
-172.286
-173.425
-175.406
-177.099
-179.121
-181.356
-183.475
-186.282
-188.586
-192.07
-194.705
-199.046
-202.207
-207.616
-211.48
)
;
    }
    rightWall
    {
        type            calculated;
        value           nonuniform List<scalar> 
216
(
-166.288
-168.168
-168.524
-170.463
-171.218
-173.257
-174.411
-176.583
-178.15
-180.477
-182.484
-184.994
-187.477
-190.213
-193.229
-196.264
-199.892
-203.331
-165.113
-167.076
-167.404
-169.403
-170.148
-172.225
-173.389
-175.591
-177.188
-179.549
-181.608
-184.171
-186.738
-189.547
-192.691
-195.802
-199.606
-203.109
-165.953
-168.029
-168.32
-170.4
-171.092
-173.22
-174.312
-176.538
-178.047
-180.417
-182.385
-184.954
-187.447
-190.269
-193.364
-196.493
-200.276
-203.784
-165.748
-167.787
-168.103
-170.148
-170.869
-172.968
-174.085
-176.281
-177.804
-180.132
-182.09
-184.585
-187.027
-189.729
-192.723
-195.691
-199.328
-202.646
-165.381
-167.209
-167.549
-169.413
-170.131
-172.086
-173.174
-175.247
-176.719
-178.926
-180.809
-183.169
-185.501
-188.052
-190.898
-193.705
-197.165
-200.323
-167.346
-169.341
-169.687
-171.747
-172.433
-174.593
-175.625
-177.884
-179.273
-181.624
-183.39
-185.839
-188.013
-190.583
-193.22
-195.961
-199.152
-202.173
-166.908
-168.992
-169.318
-171.477
-172.121
-174.37
-175.359
-177.685
-179.041
-181.447
-183.197
-185.718
-187.912
-190.597
-193.306
-196.211
-199.519
-202.741
-164.006
-165.844
-166.177
-168.114
-168.8
-170.87
-171.954
-174.173
-175.688
-178.092
-180.075
-182.718
-185.225
-188.157
-191.255
-194.52
-198.275
-201.937
-164.641
-166.489
-166.817
-168.759
-169.444
-171.53
-172.606
-174.863
-176.363
-178.827
-180.784
-183.488
-185.946
-188.916
-191.931
-195.21
-198.853
-202.519
-166.013
-167.876
-168.183
-170.102
-170.75
-172.77
-173.769
-175.918
-177.292
-179.599
-181.377
-183.866
-186.09
-188.789
-191.525
-194.496
-197.847
-201.207
-165.69
-167.52
-167.829
-169.692
-170.397
-172.337
-173.438
-175.505
-177.017
-179.256
-181.206
-183.647
-186.083
-188.764
-191.746
-194.723
-198.328
-201.677
-165.057
-167.02
-167.33
-169.33
-170.079
-172.152
-173.356
-175.569
-177.246
-179.657
-181.841
-184.487
-187.235
-190.147
-193.504
-196.72
-200.717
-204.268
)
;
    }
    leftSides_periodic0
    {
        type            cyclic;
    }
    leftSides_periodic1
    {
        type            cyclic;
    }
    rightSides_periodic0
    {
        type            cyclic;
    }
    rightSides_periodic1
    {
        type            cyclic;
    }
    leftInOut_periodic0
    {
        type            calculated;
        value           uniform 0;
    }
    leftInOut_periodic1
    {
        type            calculated;
        value           nonuniform 0();
    }
    rightInOut_periodic0
    {
        type            calculated;
        value           uniform 0;
    }
    rightInOut_periodic1
    {
        type            calculated;
        value           nonuniform 0();
    }
    procBoundary2to0throughleftSides_periodic0
    {
        type            processorCyclic;
        value           uniform 0;
    }
    procBoundary2to0throughrightSides_periodic0
    {
        type            processorCyclic;
        value           uniform 0;
    }
    procBoundary2to1
    {
        type            processor;
        value           uniform 0;
    }
    procBoundary2to5
    {
        type            processor;
        value           uniform 0;
    }
}


// ************************************************************************* //
