/*--------------------------------*- C++ -*----------------------------------*\
| =========                 |                                                 |
| \\      /  F ield         | OpenFOAM: The Open Source CFD Toolbox           |
|  \\    /   O peration     | Version:  v1912                                 |
|   \\  /    A nd           | Website:  www.openfoam.com                      |
|    \\/     M anipulation  |                                                 |
\*---------------------------------------------------------------------------*/
FoamFile
{
    version     2.0;
    format      ascii;
    class       volScalarField;
    location    "7.6";
    object      nut;
}
// * * * * * * * * * * * * * * * * * * * * * * * * * * * * * * * * * * * * * //

dimensions      [0 2 -1 0 0 0 0];


internalField   nonuniform List<scalar> 
34128
(
1.60501e-12
1.72046e-12
1.85939e-12
1.81588e-12
1.68201e-12
1.59403e-12
1.62428e-12
1.68912e-12
1.71607e-12
1.78461e-12
1.81148e-12
1.68309e-12
1.88788e-12
2.03606e-12
2.20932e-12
2.16771e-12
2.01204e-12
1.91243e-12
1.93725e-12
1.98522e-12
2.01356e-12
2.10517e-12
2.13727e-12
1.99902e-12
8.96685e-12
9.8635e-12
1.08374e-11
1.07852e-11
1.00683e-11
9.65181e-12
9.60901e-12
9.40887e-12
9.49001e-12
1.00882e-11
1.02462e-11
9.78361e-12
5.71684e-11
6.31497e-11
6.95302e-11
6.94032e-11
6.48603e-11
6.22777e-11
6.17947e-11
5.99474e-11
6.03808e-11
6.43668e-11
6.53598e-11
6.27118e-11
2.44225e-10
2.69875e-10
2.96978e-10
2.96669e-10
2.77401e-10
2.66464e-10
2.64224e-10
2.55898e-10
2.57653e-10
2.74521e-10
2.78617e-10
2.67895e-10
7.64752e-10
8.44338e-10
9.27593e-10
9.27263e-10
8.6806e-10
8.34361e-10
8.26903e-10
8.00157e-10
8.05489e-10
8.57023e-10
8.69198e-10
8.37963e-10
1.91679e-09
2.11191e-09
2.31368e-09
2.31476e-09
2.17168e-09
2.08978e-09
2.06954e-09
2.00095e-09
2.01405e-09
2.13844e-09
2.16687e-09
2.09666e-09
4.05781e-09
4.45597e-09
4.86236e-09
4.86933e-09
4.58332e-09
4.41818e-09
4.37089e-09
4.22246e-09
4.24995e-09
4.50013e-09
4.55518e-09
4.42823e-09
7.51067e-09
8.21041e-09
8.91459e-09
8.93654e-09
8.44766e-09
8.16184e-09
8.06417e-09
7.78421e-09
7.83533e-09
8.26954e-09
8.36132e-09
8.17283e-09
1.24583e-08
1.35451e-08
1.4623e-08
1.46735e-08
1.39402e-08
1.35043e-08
1.33232e-08
1.28528e-08
1.29393e-08
1.36067e-08
1.37425e-08
1.35124e-08
1.88799e-08
2.0404e-08
2.18934e-08
2.1988e-08
2.10018e-08
2.04027e-08
2.00979e-08
1.93814e-08
1.95167e-08
2.04449e-08
2.06279e-08
2.04053e-08
2.65535e-08
2.85183e-08
3.0409e-08
3.05612e-08
2.93513e-08
2.85955e-08
2.81241e-08
2.71201e-08
2.73183e-08
2.85062e-08
2.87357e-08
2.85943e-08
3.46799e-08
3.66536e-08
3.84891e-08
3.87039e-08
3.77199e-08
3.70985e-08
3.63488e-08
3.49986e-08
3.52401e-08
3.65307e-08
3.68128e-08
3.70158e-08
4.17865e-08
4.40291e-08
4.60773e-08
4.63261e-08
4.52531e-08
4.45471e-08
4.36155e-08
4.20429e-08
4.23518e-08
4.37872e-08
4.41074e-08
4.44955e-08
4.90495e-08
5.15404e-08
5.37735e-08
5.40528e-08
5.29021e-08
5.21084e-08
5.09887e-08
4.9216e-08
4.96002e-08
5.11446e-08
5.14968e-08
5.21099e-08
5.63798e-08
5.9088e-08
6.1469e-08
6.17754e-08
6.05652e-08
5.96848e-08
5.83724e-08
5.64274e-08
5.68942e-08
5.85037e-08
5.88798e-08
5.97604e-08
6.36887e-08
6.65755e-08
6.90611e-08
6.9392e-08
6.81444e-08
6.71808e-08
6.56739e-08
6.35897e-08
6.41462e-08
6.57703e-08
6.61597e-08
6.73501e-08
7.09017e-08
7.39214e-08
7.64637e-08
7.68167e-08
7.55575e-08
7.45167e-08
7.28158e-08
7.06302e-08
7.12837e-08
7.28664e-08
7.32561e-08
7.47979e-08
7.7962e-08
8.10638e-08
8.3612e-08
8.39851e-08
8.27425e-08
8.16325e-08
7.97397e-08
7.74945e-08
7.8253e-08
7.9734e-08
8.01076e-08
8.20421e-08
8.48372e-08
8.79669e-08
9.04708e-08
9.0863e-08
8.96649e-08
8.84935e-08
8.64124e-08
8.41528e-08
8.50264e-08
8.6341e-08
8.66787e-08
8.90472e-08
9.15296e-08
9.46317e-08
9.70455e-08
9.74569e-08
9.63286e-08
9.51005e-08
9.28347e-08
9.061e-08
9.16121e-08
9.2691e-08
9.29684e-08
9.58141e-08
9.80866e-08
1.01104e-07
1.03387e-07
1.03821e-07
1.02785e-07
1.01498e-07
9.90503e-08
9.69161e-08
9.80648e-08
9.88312e-08
9.90184e-08
1.02389e-07
1.04605e-07
1.07473e-07
1.09583e-07
1.10045e-07
1.09129e-07
1.07777e-07
1.05147e-07
1.03166e-07
1.04484e-07
1.04851e-07
1.04912e-07
1.08862e-07
1.11216e-07
1.13847e-07
1.15723e-07
1.16228e-07
1.15481e-07
1.1406e-07
1.11245e-07
1.09483e-07
1.10994e-07
1.10864e-07
1.10758e-07
1.15348e-07
1.1806e-07
1.20319e-07
1.21859e-07
1.22428e-07
1.21945e-07
1.20475e-07
1.17466e-07
1.15988e-07
1.1771e-07
1.16973e-07
1.16657e-07
1.21949e-07
1.25237e-07
1.26917e-07
1.27953e-07
1.28616e-07
1.28567e-07
1.27117e-07
1.23895e-07
1.2275e-07
1.24691e-07
1.2323e-07
1.22659e-07
1.28711e-07
1.32767e-07
1.33567e-07
1.33845e-07
1.3464e-07
1.35291e-07
1.34003e-07
1.30544e-07
1.29749e-07
1.31894e-07
1.29592e-07
1.28729e-07
1.35579e-07
1.40533e-07
1.40041e-07
1.39213e-07
1.40173e-07
1.41901e-07
1.41033e-07
1.37303e-07
1.36819e-07
1.39111e-07
1.35874e-07
1.347e-07
1.4235e-07
1.48125e-07
1.45887e-07
1.43533e-07
1.44665e-07
1.47929e-07
1.47905e-07
1.43872e-07
1.43558e-07
1.45867e-07
1.41675e-07
1.40217e-07
1.48581e-07
1.54855e-07
1.50431e-07
1.46236e-07
1.47491e-07
1.52665e-07
1.54051e-07
1.49699e-07
1.4931e-07
1.51436e-07
1.46363e-07
1.44704e-07
1.53585e-07
1.59995e-07
1.53069e-07
1.47448e-07
1.48701e-07
1.5547e-07
1.58806e-07
1.54136e-07
1.53386e-07
1.5512e-07
1.49322e-07
1.47576e-07
1.56711e-07
1.63093e-07
1.54103e-07
1.47369e-07
1.48587e-07
1.56525e-07
1.61671e-07
1.5674e-07
1.55481e-07
1.56814e-07
1.50612e-07
1.48865e-07
1.5804e-07
1.63954e-07
1.53684e-07
1.4602e-07
1.47173e-07
1.56063e-07
1.62492e-07
1.57522e-07
1.55911e-07
1.56877e-07
1.50466e-07
1.48773e-07
1.57823e-07
1.6308e-07
1.51872e-07
1.43528e-07
1.44585e-07
1.5416e-07
1.61703e-07
1.56784e-07
1.54828e-07
1.55411e-07
1.48957e-07
1.47371e-07
1.56138e-07
1.60599e-07
1.48801e-07
1.4012e-07
1.4105e-07
1.50946e-07
1.59424e-07
1.54634e-07
1.52339e-07
1.52536e-07
1.46207e-07
1.44777e-07
1.53102e-07
1.56666e-07
1.44687e-07
1.36097e-07
1.36882e-07
1.46644e-07
1.5579e-07
1.51212e-07
1.48621e-07
1.48462e-07
1.42423e-07
1.41181e-07
1.48917e-07
1.51525e-07
1.39829e-07
1.31818e-07
1.32461e-07
1.41571e-07
1.51009e-07
1.46731e-07
1.43945e-07
1.43499e-07
1.37904e-07
1.36862e-07
1.43867e-07
1.45525e-07
1.34594e-07
1.2767e-07
1.28208e-07
1.36127e-07
1.45382e-07
1.41489e-07
1.38669e-07
1.38041e-07
1.33032e-07
1.32171e-07
1.3831e-07
1.39111e-07
1.29397e-07
1.24058e-07
1.24568e-07
1.30782e-07
1.39297e-07
1.35865e-07
1.33218e-07
1.32555e-07
1.28255e-07
1.27525e-07
1.32663e-07
1.32802e-07
1.24683e-07
1.21395e-07
1.21999e-07
1.26051e-07
1.33228e-07
1.30309e-07
1.28071e-07
1.27559e-07
1.24066e-07
1.23385e-07
1.27381e-07
1.27172e-07
1.20917e-07
1.20113e-07
1.20984e-07
1.22488e-07
1.27713e-07
1.25326e-07
1.23752e-07
1.23589e-07
1.20997e-07
1.2025e-07
1.22947e-07
1.22828e-07
1.18582e-07
1.20692e-07
1.22058e-07
1.20685e-07
1.2335e-07
1.21474e-07
1.20812e-07
1.21204e-07
1.19618e-07
1.18659e-07
1.19866e-07
1.20417e-07
1.18206e-07
1.23713e-07
1.25883e-07
1.21307e-07
1.20797e-07
1.19369e-07
1.19845e-07
1.21017e-07
1.20569e-07
1.19213e-07
1.18685e-07
1.20651e-07
1.20413e-07
1.29957e-07
1.33364e-07
1.25165e-07
1.20807e-07
1.19717e-07
1.21545e-07
1.23753e-07
1.24633e-07
1.2264e-07
1.20037e-07
1.24391e-07
1.26018e-07
1.40566e-07
1.45849e-07
1.33359e-07
1.24303e-07
1.23397e-07
1.26799e-07
1.30377e-07
1.32876e-07
1.29911e-07
1.24723e-07
1.32796e-07
1.36194e-07
1.57294e-07
1.65446e-07
1.47544e-07
1.32538e-07
1.31608e-07
1.36873e-07
1.42305e-07
1.46904e-07
1.42453e-07
1.33868e-07
1.47604e-07
1.52744e-07
1.82889e-07
1.95491e-07
1.70379e-07
1.4738e-07
1.4614e-07
1.53722e-07
1.61782e-07
1.69296e-07
1.62511e-07
1.49183e-07
1.71602e-07
1.78531e-07
2.2109e-07
2.40272e-07
2.06147e-07
1.71831e-07
1.69845e-07
1.80498e-07
1.92473e-07
2.04208e-07
1.93679e-07
1.73392e-07
2.0925e-07
2.17619e-07
2.66466e-07
2.94371e-07
2.59524e-07
2.1076e-07
2.07294e-07
2.22046e-07
2.39472e-07
2.56049e-07
2.40399e-07
2.10706e-07
2.65099e-07
2.70774e-07
3.16846e-07
3.53121e-07
3.27944e-07
2.69038e-07
2.62938e-07
2.79415e-07
2.95278e-07
3.18487e-07
3.01789e-07
2.65102e-07
3.36978e-07
3.25062e-07
3.80192e-07
4.25109e-07
4.00171e-07
3.33306e-07
3.23848e-07
3.37284e-07
3.57165e-07
3.86314e-07
3.65227e-07
3.20406e-07
4.11694e-07
3.93801e-07
4.55661e-07
5.09486e-07
4.87975e-07
4.08698e-07
3.95832e-07
4.1044e-07
4.33579e-07
4.68509e-07
4.43247e-07
3.88827e-07
5.01801e-07
4.76172e-07
5.43039e-07
6.06732e-07
5.90654e-07
5.00579e-07
4.84038e-07
4.97925e-07
5.23518e-07
5.64479e-07
5.34881e-07
4.71573e-07
6.06847e-07
5.71928e-07
6.43209e-07
7.17431e-07
7.08611e-07
6.08595e-07
5.87875e-07
5.99582e-07
6.27555e-07
6.74901e-07
6.40696e-07
5.68188e-07
7.27378e-07
6.81926e-07
7.56589e-07
8.41435e-07
8.41435e-07
7.33213e-07
7.07697e-07
7.15778e-07
7.45964e-07
7.99814e-07
7.61114e-07
6.79529e-07
8.63076e-07
8.06372e-07
8.82831e-07
9.77694e-07
9.87613e-07
8.73826e-07
8.42858e-07
8.45926e-07
8.78075e-07
9.38249e-07
8.95634e-07
8.05851e-07
1.01248e-06
9.44516e-07
1.02072e-06
1.12422e-06
1.1445e-06
1.02851e-06
9.91449e-07
9.88313e-07
1.02213e-06
1.08818e-06
1.04269e-06
9.46418e-07
1.173e-06
1.09454e-06
1.16815e-06
1.27816e-06
1.3085e-06
1.19405e-06
1.15036e-06
1.14016e-06
1.17535e-06
1.24657e-06
1.19968e-06
1.09939e-06
1.34105e-06
1.25365e-06
1.32232e-06
1.43627e-06
1.47544e-06
1.36617e-06
1.31554e-06
1.29788e-06
1.33413e-06
1.40964e-06
1.36315e-06
1.26189e-06
1.51248e-06
1.41822e-06
1.47997e-06
1.59464e-06
1.64102e-06
1.54e-06
1.48247e-06
1.45747e-06
1.49444e-06
1.57328e-06
1.52912e-06
1.4302e-06
1.68295e-06
1.58423e-06
1.63776e-06
1.74971e-06
1.80118e-06
1.71058e-06
1.64664e-06
1.61481e-06
1.6522e-06
1.7334e-06
1.69343e-06
1.60015e-06
1.84834e-06
1.74759e-06
1.79274e-06
1.89818e-06
1.95246e-06
1.87346e-06
1.804e-06
1.76579e-06
1.8037e-06
1.8863e-06
1.85219e-06
1.76745e-06
2.00508e-06
1.90452e-06
1.94206e-06
2.03735e-06
2.09217e-06
2.02512e-06
1.95127e-06
1.90741e-06
1.94582e-06
2.02896e-06
2.00201e-06
1.92817e-06
2.1504e-06
2.05178e-06
2.08115e-06
2.16514e-06
2.21848e-06
2.16319e-06
2.08595e-06
2.03808e-06
2.07624e-06
2.15915e-06
2.14024e-06
2.07889e-06
2.2824e-06
2.18674e-06
2.20661e-06
2.28022e-06
2.33042e-06
2.28618e-06
2.20651e-06
2.15596e-06
2.19347e-06
2.27546e-06
2.26501e-06
2.21705e-06
2.39993e-06
2.30879e-06
2.31867e-06
2.38196e-06
2.42759e-06
2.39342e-06
2.3123e-06
2.26006e-06
2.29681e-06
2.37729e-06
2.37523e-06
2.34092e-06
2.50268e-06
2.41615e-06
2.41707e-06
2.47032e-06
2.51009e-06
2.48505e-06
2.40341e-06
2.35034e-06
2.38624e-06
2.46467e-06
2.47057e-06
2.44959e-06
2.59092e-06
2.50896e-06
2.50195e-06
2.54578e-06
2.57952e-06
2.56186e-06
2.48049e-06
2.4277e-06
2.46226e-06
2.53819e-06
2.55128e-06
2.54293e-06
2.66542e-06
2.58772e-06
2.57391e-06
2.6092e-06
2.63737e-06
2.62502e-06
2.54454e-06
2.49309e-06
2.52578e-06
2.59883e-06
2.6181e-06
2.62148e-06
2.72721e-06
2.65334e-06
2.63392e-06
2.66167e-06
2.68501e-06
2.67599e-06
2.59687e-06
2.54691e-06
2.57795e-06
2.64781e-06
2.67207e-06
2.68617e-06
2.77743e-06
2.70703e-06
2.68313e-06
2.70441e-06
2.72388e-06
2.71631e-06
2.63893e-06
2.59031e-06
2.62007e-06
2.68652e-06
2.71436e-06
2.73823e-06
2.81787e-06
2.75013e-06
2.72283e-06
2.73869e-06
2.75536e-06
2.74767e-06
2.67229e-06
2.62482e-06
2.65347e-06
2.71635e-06
2.74592e-06
2.77897e-06
2.84941e-06
2.78405e-06
2.75432e-06
2.76573e-06
2.78039e-06
2.77168e-06
2.69825e-06
2.65192e-06
2.67951e-06
2.73866e-06
2.76895e-06
2.80959e-06
2.87338e-06
2.81011e-06
2.77881e-06
2.78665e-06
2.79991e-06
2.78977e-06
2.71816e-06
2.67298e-06
2.69948e-06
2.75462e-06
2.78557e-06
2.83238e-06
2.89087e-06
2.82955e-06
2.79739e-06
2.80241e-06
2.81472e-06
2.80312e-06
2.73315e-06
2.68912e-06
2.71458e-06
2.76558e-06
2.79685e-06
2.84804e-06
2.90284e-06
2.84341e-06
2.81099e-06
2.81382e-06
2.82551e-06
2.81249e-06
2.74409e-06
2.70128e-06
2.72592e-06
2.77305e-06
2.80274e-06
2.8578e-06
2.91005e-06
2.85255e-06
2.82035e-06
2.82148e-06
2.83278e-06
2.8183e-06
2.75168e-06
2.71022e-06
2.73296e-06
2.77694e-06
2.80432e-06
2.86284e-06
2.91304e-06
2.85761e-06
2.82599e-06
2.82577e-06
2.83684e-06
2.82127e-06
2.7566e-06
2.71636e-06
2.73736e-06
2.77791e-06
2.80277e-06
2.86411e-06
2.91211e-06
2.85897e-06
2.82818e-06
2.82687e-06
2.83778e-06
2.82158e-06
2.75906e-06
2.7197e-06
2.73915e-06
2.77631e-06
2.79873e-06
2.86233e-06
1.69958e-12
1.85481e-12
2.03623e-12
1.98545e-12
1.81285e-12
1.70736e-12
1.74817e-12
1.81291e-12
1.83198e-12
1.91075e-12
1.9423e-12
1.80351e-12
1.91889e-12
2.10986e-12
2.32678e-12
2.2753e-12
2.07273e-12
1.94844e-12
1.98301e-12
2.03719e-12
2.06171e-12
2.15394e-12
2.18665e-12
2.05478e-12
7.90955e-12
8.9471e-12
1.00326e-11
9.91376e-12
8.95365e-12
8.35729e-12
8.32104e-12
8.24827e-12
8.39479e-12
8.82311e-12
8.90969e-12
8.75745e-12
4.88661e-11
5.56357e-11
6.25831e-11
6.20103e-11
5.59078e-11
5.21012e-11
5.16111e-11
5.07232e-11
5.16903e-11
5.4359e-11
5.47946e-11
5.44809e-11
2.07759e-10
2.36545e-10
2.65854e-10
2.63653e-10
2.37837e-10
2.21654e-10
2.19367e-10
2.15344e-10
2.19487e-10
2.30522e-10
2.32157e-10
2.31558e-10
6.49467e-10
7.38105e-10
8.27618e-10
8.21456e-10
7.42322e-10
6.92306e-10
6.84731e-10
6.72013e-10
6.85001e-10
7.17926e-10
7.22307e-10
7.22558e-10
1.6256e-09
1.84124e-09
2.05681e-09
2.04356e-09
1.85241e-09
1.73008e-09
1.70968e-09
1.67771e-09
1.71034e-09
1.78745e-09
1.79632e-09
1.80362e-09
3.43629e-09
3.87306e-09
4.30441e-09
4.28168e-09
3.89849e-09
3.64908e-09
3.60184e-09
3.53407e-09
3.60335e-09
3.75264e-09
3.76663e-09
3.79903e-09
6.35034e-09
7.11298e-09
7.85594e-09
7.82389e-09
7.16375e-09
6.72479e-09
6.62821e-09
6.50313e-09
6.63186e-09
6.87905e-09
6.89615e-09
6.99076e-09
1.05172e-08
1.16958e-08
1.28273e-08
1.27896e-08
1.17855e-08
1.11006e-08
1.09237e-08
1.07186e-08
1.09331e-08
1.1292e-08
1.13068e-08
1.15225e-08
1.59151e-08
1.75618e-08
1.91196e-08
1.90822e-08
1.77036e-08
1.67353e-08
1.64413e-08
1.61382e-08
1.64649e-08
1.69306e-08
1.69346e-08
1.7347e-08
2.23551e-08
2.44719e-08
2.64455e-08
2.64145e-08
2.46743e-08
2.34116e-08
2.29633e-08
2.25543e-08
2.30159e-08
2.35629e-08
2.35462e-08
2.4236e-08
2.90653e-08
3.12394e-08
3.31533e-08
3.31415e-08
3.15092e-08
3.02394e-08
2.95448e-08
2.89723e-08
2.95342e-08
3.00554e-08
3.00373e-08
3.11391e-08
3.50299e-08
3.74773e-08
3.96029e-08
3.95916e-08
3.77704e-08
3.63056e-08
3.54572e-08
3.48395e-08
3.55207e-08
3.60296e-08
3.59892e-08
3.73803e-08
4.11368e-08
4.38181e-08
4.61206e-08
4.6111e-08
4.41247e-08
4.24703e-08
4.14688e-08
4.08387e-08
4.16439e-08
4.20995e-08
4.2028e-08
4.37227e-08
4.73105e-08
5.01721e-08
5.26062e-08
5.26007e-08
5.04847e-08
4.86535e-08
4.75016e-08
4.68952e-08
4.7827e-08
4.81839e-08
4.80709e-08
5.0079e-08
5.34781e-08
5.64546e-08
5.89677e-08
5.897e-08
5.67682e-08
5.47792e-08
5.3482e-08
5.29373e-08
5.39972e-08
5.42076e-08
5.4041e-08
5.63657e-08
5.95787e-08
6.25937e-08
6.51279e-08
6.51428e-08
6.29067e-08
6.07853e-08
5.93495e-08
5.89047e-08
6.00931e-08
6.01087e-08
5.98742e-08
6.25124e-08
6.5567e-08
6.85347e-08
7.10287e-08
7.10622e-08
6.88495e-08
6.66262e-08
6.50587e-08
6.4751e-08
6.60682e-08
6.58409e-08
6.5522e-08
6.84649e-08
7.14191e-08
7.42452e-08
7.66376e-08
7.66972e-08
7.4569e-08
7.2278e-08
7.05852e-08
7.04495e-08
7.1896e-08
7.13794e-08
7.09574e-08
7.41909e-08
7.71419e-08
7.97236e-08
8.19555e-08
8.20516e-08
8.00707e-08
7.7747e-08
7.59323e-08
7.60014e-08
7.75793e-08
7.67283e-08
7.61817e-08
7.96887e-08
8.27826e-08
8.50053e-08
8.70182e-08
8.71661e-08
8.53988e-08
8.30774e-08
8.11393e-08
8.14437e-08
8.31575e-08
8.19283e-08
8.12319e-08
8.49939e-08
8.84311e-08
9.0159e-08
9.18862e-08
9.21085e-08
9.06347e-08
8.83541e-08
8.62837e-08
8.68491e-08
8.87058e-08
8.70551e-08
8.61804e-08
9.01773e-08
9.42079e-08
9.52685e-08
9.66209e-08
9.69487e-08
9.58787e-08
9.36927e-08
9.14702e-08
9.23122e-08
9.43187e-08
9.22048e-08
9.11212e-08
9.53296e-08
1.00235e-07
1.00403e-07
1.01252e-07
1.01724e-07
1.01219e-07
9.92155e-08
9.68071e-08
9.792e-08
1.00078e-07
9.74645e-08
9.61427e-08
1.00532e-07
1.06595e-07
1.05582e-07
1.05747e-07
1.06408e-07
1.06695e-07
1.05018e-07
1.02373e-07
1.03714e-07
1.06013e-07
1.02876e-07
1.01292e-07
1.05822e-07
1.13288e-07
1.10749e-07
1.09995e-07
1.10885e-07
1.12258e-07
1.11131e-07
1.0818e-07
1.09647e-07
1.12056e-07
1.08399e-07
1.06542e-07
1.11163e-07
1.20169e-07
1.15744e-07
1.13797e-07
1.14944e-07
1.1774e-07
1.17476e-07
1.14138e-07
1.15555e-07
1.18006e-07
1.1388e-07
1.11764e-07
1.16416e-07
1.26871e-07
1.20268e-07
1.1688e-07
1.18268e-07
1.22777e-07
1.23773e-07
1.19985e-07
1.21092e-07
1.23468e-07
1.18991e-07
1.16685e-07
1.2129e-07
1.32767e-07
1.2388e-07
1.19012e-07
1.20541e-07
1.26827e-07
1.29498e-07
1.25245e-07
1.25729e-07
1.27866e-07
1.2323e-07
1.20865e-07
1.25326e-07
1.37226e-07
1.26177e-07
1.20284e-07
1.21861e-07
1.29396e-07
1.34074e-07
1.29376e-07
1.28938e-07
1.30684e-07
1.26106e-07
1.2384e-07
1.28048e-07
1.39889e-07
1.27372e-07
1.20759e-07
1.22336e-07
1.30664e-07
1.37159e-07
1.32022e-07
1.30648e-07
1.32089e-07
1.27668e-07
1.25554e-07
1.2949e-07
1.40766e-07
1.27527e-07
1.20449e-07
1.21971e-07
1.30778e-07
1.38345e-07
1.33053e-07
1.31093e-07
1.32258e-07
1.28093e-07
1.26176e-07
1.29813e-07
1.40203e-07
1.26696e-07
1.19439e-07
1.20859e-07
1.29798e-07
1.38095e-07
1.32795e-07
1.30352e-07
1.31256e-07
1.27449e-07
1.25778e-07
1.29085e-07
1.38316e-07
1.2499e-07
1.17876e-07
1.19165e-07
1.27846e-07
1.36544e-07
1.31356e-07
1.28538e-07
1.29216e-07
1.25854e-07
1.24464e-07
1.27408e-07
1.35278e-07
1.22589e-07
1.15962e-07
1.17121e-07
1.25133e-07
1.33841e-07
1.28885e-07
1.25844e-07
1.26359e-07
1.23515e-07
1.22413e-07
1.24948e-07
1.31371e-07
1.19738e-07
1.13939e-07
1.1501e-07
1.21963e-07
1.30227e-07
1.2562e-07
1.22551e-07
1.22995e-07
1.20726e-07
1.19885e-07
1.21944e-07
1.26979e-07
1.16738e-07
1.12086e-07
1.13157e-07
1.18722e-07
1.26058e-07
1.21898e-07
1.19018e-07
1.19505e-07
1.17864e-07
1.17218e-07
1.18701e-07
1.22582e-07
1.13931e-07
1.10708e-07
1.11919e-07
1.15868e-07
1.21807e-07
1.18154e-07
1.15668e-07
1.16323e-07
1.15372e-07
1.14815e-07
1.15581e-07
1.18726e-07
1.11693e-07
1.1014e-07
1.11692e-07
1.1392e-07
1.18047e-07
1.14907e-07
1.12976e-07
1.13914e-07
1.13747e-07
1.13133e-07
1.12991e-07
1.16006e-07
1.10435e-07
1.10759e-07
1.12927e-07
1.13459e-07
1.15446e-07
1.12758e-07
1.11454e-07
1.12792e-07
1.1354e-07
1.12685e-07
1.11383e-07
1.15066e-07
1.10619e-07
1.13016e-07
1.16169e-07
1.15149e-07
1.14762e-07
1.12389e-07
1.11679e-07
1.13539e-07
1.15379e-07
1.14051e-07
1.11262e-07
1.16624e-07
1.12791e-07
1.17493e-07
1.22134e-07
1.19809e-07
1.16884e-07
1.1461e-07
1.14343e-07
1.16852e-07
1.20033e-07
1.17929e-07
1.13219e-07
1.21549e-07
1.17639e-07
1.24991e-07
1.31847e-07
1.28552e-07
1.22928e-07
1.20444e-07
1.20349e-07
1.23659e-07
1.28541e-07
1.25237e-07
1.18003e-07
1.31019e-07
1.26116e-07
1.36691e-07
1.46867e-07
1.43055e-07
1.34465e-07
1.31334e-07
1.30994e-07
1.35321e-07
1.42463e-07
1.37301e-07
1.26647e-07
1.46825e-07
1.39646e-07
1.54411e-07
1.69678e-07
1.6607e-07
1.53983e-07
1.49542e-07
1.48329e-07
1.54021e-07
1.64329e-07
1.56209e-07
1.4071e-07
1.71917e-07
1.60469e-07
1.8091e-07
2.04031e-07
2.02245e-07
1.85797e-07
1.78912e-07
1.75777e-07
1.83419e-07
1.98383e-07
1.85384e-07
1.62689e-07
2.11167e-07
1.92011e-07
2.18455e-07
2.50508e-07
2.56936e-07
2.37409e-07
2.25865e-07
2.18547e-07
2.28676e-07
2.49831e-07
2.29641e-07
1.96559e-07
2.68993e-07
2.36852e-07
2.58074e-07
2.97695e-07
3.27093e-07
3.15166e-07
2.97925e-07
2.77123e-07
2.78801e-07
3.04025e-07
2.83198e-07
2.45498e-07
3.2922e-07
2.84014e-07
3.07277e-07
3.58206e-07
4.0148e-07
3.92303e-07
3.72448e-07
3.37838e-07
3.38297e-07
3.69694e-07
3.42454e-07
2.93233e-07
4.02175e-07
3.42521e-07
3.69505e-07
4.31643e-07
4.90178e-07
4.86906e-07
4.6232e-07
4.14998e-07
4.12911e-07
4.49758e-07
4.163e-07
3.55353e-07
4.89692e-07
4.15158e-07
4.44099e-07
5.1724e-07
5.92928e-07
5.98971e-07
5.69569e-07
5.07246e-07
5.01496e-07
5.43551e-07
5.03476e-07
4.31935e-07
5.91409e-07
5.00898e-07
5.30811e-07
6.15951e-07
7.10509e-07
7.2908e-07
6.94295e-07
6.15063e-07
6.04776e-07
6.52083e-07
6.04532e-07
5.22013e-07
7.08208e-07
6.00243e-07
6.30579e-07
7.28377e-07
8.4272e-07
8.76633e-07
8.36102e-07
7.39187e-07
7.2335e-07
7.75733e-07
7.20229e-07
6.26529e-07
8.40157e-07
7.13989e-07
7.43884e-07
8.54284e-07
9.88157e-07
1.03931e-06
9.93225e-07
8.79104e-07
8.56881e-07
9.13843e-07
8.50435e-07
7.46179e-07
9.86223e-07
8.42118e-07
8.70407e-07
9.92488e-07
1.14418e-06
1.21317e-06
1.16238e-06
1.03282e-06
1.00376e-06
1.06457e-06
9.93958e-07
8.8073e-07
1.14421e-06
9.83591e-07
1.00888e-06
1.14085e-06
1.30716e-06
1.39307e-06
1.33898e-06
1.19689e-06
1.16117e-06
1.22489e-06
1.14852e-06
1.02885e-06
1.31086e-06
1.13628e-06
1.15704e-06
1.29639e-06
1.47291e-06
1.57337e-06
1.51764e-06
1.36677e-06
1.32529e-06
1.39095e-06
1.31091e-06
1.18808e-06
1.48216e-06
1.29706e-06
1.31174e-06
1.45516e-06
1.63709e-06
1.74869e-06
1.69288e-06
1.53728e-06
1.49172e-06
1.55844e-06
1.47724e-06
1.35504e-06
1.6537e-06
1.4621e-06
1.4692e-06
1.61392e-06
1.79568e-06
1.91448e-06
1.85969e-06
1.70333e-06
1.65594e-06
1.72301e-06
1.64337e-06
1.52566e-06
1.82115e-06
1.62719e-06
1.62527e-06
1.7684e-06
1.94528e-06
2.0673e-06
2.01398e-06
1.86066e-06
1.81379e-06
1.88067e-06
1.80522e-06
1.69563e-06
1.98059e-06
1.78821e-06
1.77582e-06
1.91543e-06
2.08332e-06
2.20482e-06
2.15285e-06
2.00649e-06
1.96178e-06
2.02809e-06
1.95918e-06
1.86078e-06
2.12886e-06
1.94155e-06
1.9177e-06
2.05243e-06
2.20813e-06
2.32568e-06
2.27465e-06
2.13828e-06
2.09727e-06
2.16278e-06
2.10224e-06
2.01742e-06
2.26366e-06
2.08432e-06
2.05059e-06
2.17748e-06
2.31892e-06
2.42934e-06
2.37901e-06
2.25367e-06
2.21857e-06
2.28308e-06
2.2322e-06
2.16252e-06
2.38359e-06
2.21467e-06
2.1742e-06
2.28941e-06
2.41559e-06
2.51643e-06
2.46645e-06
2.35283e-06
2.32489e-06
2.38818e-06
2.34763e-06
2.29393e-06
2.48821e-06
2.32998e-06
2.28546e-06
2.38771e-06
2.49925e-06
2.58835e-06
2.53814e-06
2.4366e-06
2.41615e-06
2.478e-06
2.44786e-06
2.41029e-06
2.57774e-06
2.43135e-06
2.38315e-06
2.4725e-06
2.57183e-06
2.64678e-06
2.59571e-06
2.50585e-06
2.49291e-06
2.55306e-06
2.53288e-06
2.51102e-06
2.65301e-06
2.51816e-06
2.46716e-06
2.54449e-06
2.63381e-06
2.69357e-06
2.64107e-06
2.5613e-06
2.55615e-06
2.61433e-06
2.60316e-06
2.59622e-06
2.71533e-06
2.59115e-06
2.53822e-06
2.60477e-06
2.68592e-06
2.73058e-06
2.67625e-06
2.60421e-06
2.60714e-06
2.66305e-06
2.65964e-06
2.66642e-06
2.76625e-06
2.65147e-06
2.59747e-06
2.65458e-06
2.72909e-06
2.75969e-06
2.70324e-06
2.6372e-06
2.64733e-06
2.70066e-06
2.7036e-06
2.72263e-06
2.80744e-06
2.70053e-06
2.64625e-06
2.69529e-06
2.7642e-06
2.78268e-06
2.72385e-06
2.66245e-06
2.67821e-06
2.72867e-06
2.7366e-06
2.7662e-06
2.83978e-06
2.73986e-06
2.686e-06
2.72826e-06
2.79214e-06
2.80096e-06
2.73968e-06
2.68176e-06
2.70127e-06
2.74862e-06
2.76054e-06
2.79874e-06
2.86487e-06
2.77093e-06
2.71813e-06
2.75475e-06
2.81414e-06
2.8156e-06
2.75236e-06
2.69663e-06
2.7179e-06
2.76203e-06
2.77567e-06
2.82209e-06
2.88373e-06
2.79513e-06
2.74395e-06
2.7759e-06
2.83128e-06
2.82741e-06
2.76285e-06
2.70829e-06
2.72942e-06
2.77035e-06
2.7827e-06
2.83673e-06
2.89737e-06
2.81369e-06
2.76458e-06
2.79266e-06
2.84445e-06
2.83699e-06
2.77174e-06
2.71763e-06
2.73698e-06
2.77435e-06
2.78369e-06
2.845e-06
2.90667e-06
2.82765e-06
2.78095e-06
2.80577e-06
2.85429e-06
2.84486e-06
2.77935e-06
2.7253e-06
2.74162e-06
2.77463e-06
2.78163e-06
2.84808e-06
2.91226e-06
2.83781e-06
2.79374e-06
2.81574e-06
2.86119e-06
2.8514e-06
2.78589e-06
2.73151e-06
2.74577e-06
2.77395e-06
2.77716e-06
2.84722e-06
2.91455e-06
2.84475e-06
2.80342e-06
2.82286e-06
2.86535e-06
2.85606e-06
2.79088e-06
2.73647e-06
2.74892e-06
2.77144e-06
2.77065e-06
2.84354e-06
2.91374e-06
2.84883e-06
2.81022e-06
2.82721e-06
2.86674e-06
2.85829e-06
2.79388e-06
2.74018e-06
2.75e-06
2.7677e-06
2.76307e-06
2.8378e-06
1.71706e-12
1.87695e-12
2.066e-12
2.01298e-12
1.83002e-12
1.71796e-12
1.76121e-12
1.83171e-12
1.85181e-12
1.92619e-12
1.95595e-12
1.8229e-12
1.94757e-12
2.13654e-12
2.35763e-12
2.30584e-12
2.09797e-12
1.96871e-12
2.00678e-12
2.07164e-12
2.0963e-12
2.179e-12
2.20899e-12
2.07991e-12
8.16689e-12
9.0805e-12
1.01117e-11
1.0027e-11
9.14778e-12
8.57085e-12
8.56058e-12
8.59635e-12
8.72716e-12
9.04491e-12
9.10921e-12
8.90949e-12
5.06573e-11
5.64714e-11
6.29628e-11
6.26595e-11
5.72328e-11
5.36217e-11
5.33059e-11
5.31707e-11
5.40122e-11
5.5902e-11
5.61846e-11
5.54744e-11
2.15473e-10
2.39981e-10
2.67197e-10
2.66212e-10
2.43508e-10
2.28296e-10
2.2674e-10
2.25882e-10
2.29448e-10
2.37181e-10
2.38164e-10
2.3572e-10
6.73554e-10
7.48324e-10
8.30905e-10
8.2871e-10
7.59937e-10
7.13404e-10
7.08039e-10
7.04857e-10
7.1592e-10
7.38799e-10
7.41186e-10
7.35192e-10
1.68558e-09
1.86528e-09
2.06252e-09
2.0596e-09
1.89604e-09
1.78371e-09
1.76859e-09
1.75926e-09
1.78671e-09
1.83973e-09
1.84379e-09
1.83407e-09
3.56214e-09
3.92035e-09
4.3109e-09
4.31081e-09
3.98961e-09
3.7643e-09
3.72764e-09
3.7045e-09
3.76201e-09
3.86326e-09
3.86757e-09
3.86067e-09
6.58081e-09
7.19375e-09
7.85763e-09
7.86888e-09
7.33008e-09
6.94143e-09
6.86326e-09
6.81381e-09
6.9191e-09
7.08402e-09
7.08437e-09
7.0995e-09
1.08952e-08
1.18189e-08
1.28138e-08
1.28501e-08
1.20581e-08
1.14662e-08
1.13179e-08
1.12255e-08
1.13982e-08
1.16333e-08
1.16226e-08
1.16943e-08
1.64814e-08
1.77334e-08
1.90783e-08
1.91554e-08
1.81134e-08
1.73e-08
1.70468e-08
1.68935e-08
1.71521e-08
1.74517e-08
1.74213e-08
1.75956e-08
2.31429e-08
2.46946e-08
2.63673e-08
2.64988e-08
2.52491e-08
2.42227e-08
2.38284e-08
2.35992e-08
2.39578e-08
2.43045e-08
2.42463e-08
2.45716e-08
3.00524e-08
3.15689e-08
3.31755e-08
3.33516e-08
3.22595e-08
3.12843e-08
3.06692e-08
3.03016e-08
3.07236e-08
3.10344e-08
3.09839e-08
3.16023e-08
3.62167e-08
3.78724e-08
3.96409e-08
3.98591e-08
3.86929e-08
3.76035e-08
3.68476e-08
3.64297e-08
3.69316e-08
3.72413e-08
3.71728e-08
3.79425e-08
4.25287e-08
4.42816e-08
4.61809e-08
4.64451e-08
4.52332e-08
4.40448e-08
4.31455e-08
4.26889e-08
4.32706e-08
4.35622e-08
4.34708e-08
4.43913e-08
4.89101e-08
5.07091e-08
5.27002e-08
5.30147e-08
5.17929e-08
5.05263e-08
4.94818e-08
4.89971e-08
4.96577e-08
4.99135e-08
4.97934e-08
5.08635e-08
5.52853e-08
5.70722e-08
5.91117e-08
5.9481e-08
5.82891e-08
5.697e-08
5.57789e-08
5.52754e-08
5.60136e-08
5.62165e-08
5.60604e-08
5.72781e-08
6.15914e-08
6.33022e-08
6.53432e-08
6.57722e-08
6.46528e-08
6.33106e-08
6.19711e-08
6.14558e-08
6.22714e-08
6.24051e-08
6.22046e-08
6.35676e-08
6.77814e-08
6.93471e-08
7.13415e-08
7.18351e-08
7.08324e-08
6.94995e-08
6.80084e-08
6.74861e-08
6.83797e-08
6.84294e-08
6.81747e-08
6.96811e-08
7.38307e-08
7.51774e-08
7.7077e-08
7.76417e-08
7.68004e-08
7.55105e-08
7.38617e-08
7.33349e-08
7.43097e-08
7.42614e-08
7.39412e-08
7.55898e-08
7.9747e-08
8.0794e-08
8.25506e-08
8.31956e-08
8.25618e-08
8.13487e-08
7.95315e-08
7.9001e-08
8.00635e-08
7.99036e-08
7.95043e-08
8.12956e-08
8.55795e-08
8.62337e-08
8.77975e-08
8.85359e-08
8.81619e-08
8.70603e-08
8.50569e-08
8.45212e-08
8.5682e-08
8.5397e-08
8.49012e-08
8.68377e-08
9.1421e-08
9.15666e-08
9.28796e-08
9.37296e-08
9.36831e-08
9.27344e-08
9.05168e-08
8.99685e-08
9.12422e-08
9.08191e-08
9.02052e-08
9.22908e-08
9.73929e-08
9.68795e-08
9.78637e-08
9.88486e-08
9.92261e-08
9.84908e-08
9.60179e-08
9.54363e-08
9.68386e-08
9.62672e-08
9.55098e-08
9.77498e-08
1.03616e-07
1.02247e-07
1.02791e-07
1.03937e-07
1.04877e-07
1.04451e-07
1.01667e-07
1.01007e-07
1.0255e-07
1.01826e-07
1.00899e-07
1.03302e-07
1.10156e-07
1.07697e-07
1.07647e-07
1.08979e-07
1.10667e-07
1.10702e-07
1.07535e-07
1.06714e-07
1.084e-07
1.07528e-07
1.06413e-07
1.0899e-07
1.16992e-07
1.13178e-07
1.12336e-07
1.1387e-07
1.1654e-07
1.17247e-07
1.13615e-07
1.12513e-07
1.14328e-07
1.1332e-07
1.1201e-07
1.1478e-07
1.23956e-07
1.18533e-07
1.16666e-07
1.18404e-07
1.2231e-07
1.23957e-07
1.19783e-07
1.18243e-07
1.20148e-07
1.19024e-07
1.17537e-07
1.20525e-07
1.30628e-07
1.23462e-07
1.20341e-07
1.22253e-07
1.2759e-07
1.30456e-07
1.25716e-07
1.23576e-07
1.25493e-07
1.24284e-07
1.22685e-07
1.25915e-07
1.36353e-07
1.2751e-07
1.23011e-07
1.25026e-07
1.31806e-07
1.36097e-07
1.30866e-07
1.28005e-07
1.2982e-07
1.28562e-07
1.26977e-07
1.30454e-07
1.40486e-07
1.30223e-07
1.24726e-07
1.26724e-07
1.34441e-07
1.40246e-07
1.34648e-07
1.31017e-07
1.32626e-07
1.31358e-07
1.29921e-07
1.33622e-07
1.42727e-07
1.31724e-07
1.25569e-07
1.27488e-07
1.35705e-07
1.42549e-07
1.36749e-07
1.3261e-07
1.34069e-07
1.32823e-07
1.31549e-07
1.35375e-07
1.4339e-07
1.32118e-07
1.25526e-07
1.27303e-07
1.35749e-07
1.43161e-07
1.37379e-07
1.32986e-07
1.34309e-07
1.3311e-07
1.32026e-07
1.35915e-07
1.42657e-07
1.31454e-07
1.24662e-07
1.26246e-07
1.34637e-07
1.42352e-07
1.36724e-07
1.32222e-07
1.33413e-07
1.32285e-07
1.31416e-07
1.35309e-07
1.4064e-07
1.29842e-07
1.23117e-07
1.24481e-07
1.32508e-07
1.4024e-07
1.34897e-07
1.30435e-07
1.31507e-07
1.30485e-07
1.29839e-07
1.33654e-07
1.37537e-07
1.27461e-07
1.21096e-07
1.22246e-07
1.29593e-07
1.37024e-07
1.32085e-07
1.27818e-07
1.28802e-07
1.27936e-07
1.27494e-07
1.31122e-07
1.3365e-07
1.24561e-07
1.18858e-07
1.19841e-07
1.2622e-07
1.33018e-07
1.28576e-07
1.2465e-07
1.25596e-07
1.24958e-07
1.24668e-07
1.27963e-07
1.29376e-07
1.21452e-07
1.16704e-07
1.1761e-07
1.22801e-07
1.28658e-07
1.24761e-07
1.21284e-07
1.22258e-07
1.21946e-07
1.2172e-07
1.24498e-07
1.25188e-07
1.18492e-07
1.14973e-07
1.15936e-07
1.19816e-07
1.24484e-07
1.21119e-07
1.18137e-07
1.19219e-07
1.1936e-07
1.19071e-07
1.21111e-07
1.21611e-07
1.16073e-07
1.1403e-07
1.15241e-07
1.17803e-07
1.21115e-07
1.18203e-07
1.1568e-07
1.1696e-07
1.17708e-07
1.17193e-07
1.18235e-07
1.19206e-07
1.14623e-07
1.14285e-07
1.15999e-07
1.17356e-07
1.19236e-07
1.16628e-07
1.14439e-07
1.16012e-07
1.17548e-07
1.16604e-07
1.16346e-07
1.1857e-07
1.14628e-07
1.16219e-07
1.18777e-07
1.1915e-07
1.19602e-07
1.17083e-07
1.15006e-07
1.1697e-07
1.19516e-07
1.17888e-07
1.15975e-07
1.20367e-07
1.16649e-07
1.20446e-07
1.2431e-07
1.24006e-07
1.23086e-07
1.20369e-07
1.18088e-07
1.20552e-07
1.24394e-07
1.2175e-07
1.17738e-07
1.25402e-07
1.21391e-07
1.27797e-07
1.33636e-07
1.33051e-07
1.3079e-07
1.27508e-07
1.24598e-07
1.27703e-07
1.33237e-07
1.29112e-07
1.22408e-07
1.34761e-07
1.29813e-07
1.39466e-07
1.48311e-07
1.47935e-07
1.44289e-07
1.39946e-07
1.35837e-07
1.39794e-07
1.47606e-07
1.41298e-07
1.31043e-07
1.50047e-07
1.43317e-07
1.57262e-07
1.70767e-07
1.71247e-07
1.6604e-07
1.59906e-07
1.53792e-07
1.58948e-07
1.69945e-07
1.60338e-07