/*--------------------------------*- C++ -*----------------------------------*\
| =========                 |                                                 |
| \\      /  F ield         | OpenFOAM: The Open Source CFD Toolbox           |
|  \\    /   O peration     | Version:  v1912                                 |
|   \\  /    A nd           | Website:  www.openfoam.com                      |
|    \\/     M anipulation  |                                                 |
\*---------------------------------------------------------------------------*/
FoamFile
{
    version     2.0;
    format      ascii;
    class       volVectorField;
    location    "7.6";
    object      UMean;
}
// * * * * * * * * * * * * * * * * * * * * * * * * * * * * * * * * * * * * * //

dimensions      [0 1 -1 0 0 0 0];


internalField   nonuniform List<vector> 
34128
(
(8.92022e-07 1.74241e-07 -0.00347358)
(6.68666e-07 1.76653e-07 -0.00344565)
(3.04925e-07 1.78109e-07 -0.00341915)
(-4.51244e-07 1.78488e-07 -0.00341964)
(-8.47479e-07 1.76159e-07 -0.00344624)
(-7.43748e-07 1.73036e-07 -0.00347008)
(-2.86076e-07 1.72331e-07 -0.00347825)
(9.28398e-08 1.75036e-07 -0.00345771)
(-4.49459e-07 1.76653e-07 -0.00343482)
(-9.95115e-07 1.74526e-07 -0.00344433)
(-6.76691e-07 1.71792e-07 -0.00347172)
(2.12738e-07 1.71299e-07 -0.00348222)
(2.58212e-06 1.45237e-06 -0.0104967)
(1.95695e-06 1.4868e-06 -0.0104146)
(9.01879e-07 1.50872e-06 -0.0103368)
(-1.31192e-06 1.51175e-06 -0.010338)
(-2.46675e-06 1.48088e-06 -0.010416)
(-2.18638e-06 1.44163e-06 -0.010486)
(-8.92875e-07 1.433e-06 -0.0105101)
(2.20848e-07 1.46244e-06 -0.0104501)
(-1.30502e-06 1.48109e-06 -0.0103831)
(-2.85168e-06 1.45817e-06 -0.0104109)
(-1.92461e-06 1.4261e-06 -0.0104911)
(6.40867e-07 1.42111e-06 -0.0105219)
(4.1868e-06 3.75543e-06 -0.0177103)
(3.19809e-06 3.85494e-06 -0.0175758)
(1.48472e-06 3.91942e-06 -0.0174485)
(-2.14044e-06 3.92735e-06 -0.0174501)
(-4.0237e-06 3.839e-06 -0.0175776)
(-3.59604e-06 3.72817e-06 -0.0176924)
(-1.53804e-06 3.7032e-06 -0.0177319)
(2.96528e-07 3.78318e-06 -0.0176342)
(-2.12318e-06 3.83469e-06 -0.0175247)
(-4.5911e-06 3.77225e-06 -0.0175699)
(-3.0767e-06 3.68354e-06 -0.0177012)
(1.0799e-06 3.66983e-06 -0.0177515)
(5.7073e-06 7.27148e-06 -0.0251009)
(4.38896e-06 7.47118e-06 -0.024916)
(2.05187e-06 7.60257e-06 -0.0247412)
(-2.93529e-06 7.61757e-06 -0.0247429)
(-5.51486e-06 7.44116e-06 -0.0249177)
(-4.97045e-06 7.22201e-06 -0.0250753)
(-2.21994e-06 7.17129e-06 -0.0251298)
(3.22884e-07 7.32509e-06 -0.0249964)
(-2.90239e-06 7.42557e-06 -0.0248465)
(-6.21201e-06 7.30529e-06 -0.0249084)
(-4.13028e-06 7.1327e-06 -0.0250885)
(1.5327e-06 7.10627e-06 -0.0251573)
(7.14358e-06 1.18421e-05 -0.0326453)
(5.52589e-06 1.21768e-05 -0.0324127)
(2.60105e-06 1.24001e-05 -0.032193)
(-3.69612e-06 1.24241e-05 -0.0321945)
(-6.93781e-06 1.21295e-05 -0.0324139)
(-6.30788e-06 1.17668e-05 -0.0326119)
(-2.93756e-06 1.16804e-05 -0.0326808)
(3.01904e-07 1.19287e-05 -0.0325141)
(-3.64199e-06 1.20933e-05 -0.0323261)
(-7.71356e-06 1.18986e-05 -0.0324038)
(-5.08309e-06 1.1617e-05 -0.03263)
(2.00208e-06 1.15742e-05 -0.0327161)
(8.49448e-06 1.75123e-05 -0.0403153)
(6.60486e-06 1.80167e-05 -0.0400381)
(3.12927e-06 1.83579e-05 -0.0397765)
(-4.42386e-06 1.83928e-05 -0.0397773)
(-8.2913e-06 1.79498e-05 -0.0400382)
(-7.60728e-06 1.74092e-05 -0.040274)
(-3.69045e-06 1.72764e-05 -0.0403564)
(2.34542e-07 1.76379e-05 -0.0401594)
(-4.34224e-06 1.78812e-05 -0.0399362)
(-9.09548e-06 1.7597e-05 -0.0400284)
(-5.93347e-06 1.71826e-05 -0.0402977)
(2.4907e-06 1.71201e-05 -0.0403997)
(9.7585e-06 2.42585e-05 -0.0480794)
(7.62196e-06 2.49678e-05 -0.047761)
(3.63322e-06 2.5454e-05 -0.0474608)
(-5.12054e-06 2.55014e-05 -0.0474606)
(-9.5753e-06 2.48796e-05 -0.0477597)
(-8.86835e-06 2.41276e-05 -0.0480301)
(-4.47881e-06 2.39368e-05 -0.0481251)
(1.20708e-07 2.44283e-05 -0.0479009)
(-5.00434e-06 2.47645e-05 -0.0476456)
(-1.03581e-05 2.43767e-05 -0.0477511)
(-6.68031e-06 2.3807e-05 -0.0480601)
(3.00087e-06 2.37217e-05 -0.0481763)
(1.0934e-05 3.2071e-05 -0.0559039)
(8.57365e-06 3.30205e-05 -0.055548)
(4.1094e-06 3.36798e-05 -0.0552128)
(-5.7892e-06 3.37413e-05 -0.0552113)
(-1.07911e-05 3.29099e-05 -0.0555449)
(-1.00917e-05 3.19137e-05 -0.0558466)
(-5.30348e-06 3.16526e-05 -0.0559532)
(-4.06706e-08 3.22892e-05 -0.0557051)
(-5.6305e-06 3.27324e-05 -0.055421)
(-1.15027e-05 3.22278e-05 -0.0555386)
(-7.32326e-06 3.1481e-05 -0.0558837)
(3.5345e-06 3.13705e-05 -0.0560125)
(1.20197e-05 4.0938e-05 -0.0637552)
(9.45697e-06 4.2163e-05 -0.0633656)
(4.5544e-06 4.30246e-05 -0.0629989)
(-6.43363e-06 4.31019e-05 -0.062996)
(-1.1941e-05 4.203e-05 -0.0633605)
(-1.12791e-05 4.07576e-05 -0.06369)
(-6.166e-06 4.04129e-05 -0.0638071)
(-2.51508e-07 4.12079e-05 -0.0635384)
(-6.22387e-06 4.1772e-05 -0.0632289)
(-1.25311e-05 4.11383e-05 -0.0633574)
(-7.8627e-06 4.01934e-05 -0.0637349)
(4.0931e-06 4.00555e-05 -0.0638745)
(1.30149e-05 5.08494e-05 -0.0716017)
(1.02698e-05 5.23853e-05 -0.0711823)
(4.96518e-06 5.34793e-05 -0.0707876)
(-7.05789e-06 5.35738e-05 -0.0707832)
(-1.30287e-05 5.22304e-05 -0.0711751)
(-1.24331e-05 5.06507e-05 -0.0715289)
(-7.06854e-06 5.02084e-05 -0.0716554)
(-5.14375e-07 5.11734e-05 -0.0713693)
(-6.78836e-06 5.18721e-05 -0.0710377)
(-1.34461e-05 5.10976e-05 -0.0711759)
(-8.29963e-06 4.99343e-05 -0.0715822)
(4.6779e-06 4.97675e-05 -0.0717309)
(1.39199e-05 6.17946e-05 -0.0794161)
(1.10112e-05 6.36765e-05 -0.0789704)
(5.33946e-06 6.50337e-05 -0.0785511)
(-7.6659e-06 6.51472e-05 -0.0785452)
(-1.40583e-05 6.35012e-05 -0.0789613)
(-1.35574e-05 6.15842e-05 -0.079336)
(-8.01387e-06 6.10289e-05 -0.0794707)
(-8.32324e-07 6.2174e-05 -0.0791703)
(-7.32836e-06 6.3021e-05 -0.0788198)
(-1.42508e-05 6.20946e-05 -0.0789665)
(-8.63538e-06 6.0693e-05 -0.0793982)
(5.28998e-06 6.04966e-05 -0.0795543)
(1.47362e-05 7.37587e-05 -0.087176)
(1.16812e-05 7.60215e-05 -0.0867074)
(5.67583e-06 7.76738e-05 -0.0862665)
(-8.26102e-06 7.78081e-05 -0.0862592)
(-1.50341e-05 7.58284e-05 -0.0866964)
(-1.46562e-05 7.35451e-05 -0.087089)
(-9.00525e-06 7.28606e-05 -0.087231)
(-1.20874e-06 7.41938e-05 -0.0869189)
(-7.84839e-06 7.52025e-05 -0.0865523)
(-1.49482e-05 7.41138e-05 -0.0867066)
(-8.87125e-06 7.24546e-05 -0.0871605)
(5.93038e-06 7.22287e-05 -0.0873226)
(1.54666e-05 8.674e-05 -0.0948658)
(1.2281e-05 8.94175e-05 -0.0943773)
(5.97383e-06 9.13974e-05 -0.0939176)
(-8.84563e-06 9.15542e-05 -0.0939091)
(-1.59606e-05 8.92099e-05 -0.0943646)
(-1.57342e-05 8.65325e-05 -0.0947722)
(-1.00464e-05 8.57019e-05 -0.0949207)
(-1.64717e-06 8.72295e-05 -0.0945995)
(-8.3529e-06 8.8413e-05 -0.0942194)
(-1.55409e-05 8.71521e-05 -0.0943803)
(-9.00798e-06 8.52169e-05 -0.0948535)
(6.60046e-06 8.49626e-05 -0.0950203)
(1.61145e-05 0.000100733 -0.102477)
(1.28131e-05 0.000103859 -0.101971)
(6.23418e-06 0.0001062 -0.101495)
(-9.42152e-06 0.000106382 -0.101485)
(-1.6842e-05 0.000103642 -0.101957)
(-1.67967e-05 0.000100544 -0.102377)
(-1.11415e-05 9.95483e-05 -0.102531)
(-2.1513e-06 0.000101274 -0.102203)
(-8.84573e-06 0.000102645 -0.101812)
(-1.60305e-05 0.000101203 -0.101978)
(-9.04558e-06 9.89742e-05 -0.102468)
(7.30211e-06 9.86939e-05 -0.102638)
(1.66833e-05 0.00011569 -0.110001)
(1.32801e-05 0.000119298 -0.10948)
(6.45814e-06 0.000122034 -0.10899)
(-9.99018e-06 0.000122242 -0.10898)
(-1.76829e-05 0.000119078 -0.109465)
(-1.78491e-05 0.000115533 -0.109895)
(-1.22947e-05 0.000114352 -0.110054)
(-2.72499e-06 0.000116278 -0.109721)
(-9.33007e-06 0.000117848 -0.109321)
(-1.64177e-05 0.000116215 -0.109492)
(-8.98335e-06 0.000113677 -0.109997)
(8.0373e-06 0.000113375 -0.110169)
(1.71759e-05 0.000131572 -0.117427)
(1.36847e-05 0.000135694 -0.116895)
(6.64693e-06 0.000138859 -0.116393)
(-1.05523e-05 0.000139097 -0.116381)
(-1.84868e-05 0.000135478 -0.116878)
(-1.88958e-05 0.000131463 -0.117316)
(-1.35098e-05 0.000130077 -0.11748)
(-3.37216e-06 0.000132201 -0.117143)
(-9.8085e-06 0.00013398 -0.116736)
(-1.67019e-05 0.00013215 -0.116912)
(-8.81959e-06 0.000129289 -0.117428)
(8.80793e-06 0.000128971 -0.117602)
(1.75952e-05 0.000148345 -0.124748)
(1.40297e-05 0.000153011 -0.124205)
(6.80209e-06 0.000156639 -0.123693)
(-1.11077e-05 0.000156909 -0.123681)
(-1.92571e-05 0.000152807 -0.124188)
(-1.99412e-05 0.0001483 -0.124632)
(-1.47901e-05 0.000146687 -0.1248)
(-4.09658e-06 0.000149003 -0.124461)
(-1.02827e-05 0.000150999 -0.124048)
(-1.68809e-05 0.000148965 -0.124228)
(-8.55134e-06 0.00014577 -0.124754)
(9.6164e-06 0.000145445 -0.124928)
(1.79446e-05 0.000165968 -0.131956)
(1.43183e-05 0.000171206 -0.131405)
(6.9253e-06 0.000175331 -0.130884)
(-1.16559e-05 0.000175635 -0.130871)
(-1.99966e-05 0.000171025 -0.131386)
(-2.09896e-05 0.000166007 -0.131835)
(-1.61388e-05 0.000164144 -0.132006)
(-4.90192e-06 0.000166642 -0.131668)
(-1.07536e-05 0.000168861 -0.131249)
(-1.69512e-05 0.000166619 -0.131433)
(-8.17435e-06 0.000163082 -0.131968)
(1.04657e-05 0.00016276 -0.132142)
(1.8227e-05 0.000184402 -0.139044)
(1.45539e-05 0.000190238 -0.138487)
(7.01823e-06 0.000194894 -0.137959)
(-1.21963e-05 0.000195235 -0.137946)
(-2.07082e-05 0.00019009 -0.138468)
(-2.20448e-05 0.000184544 -0.138919)
(-1.75586e-05 0.000182406 -0.139094)
(-5.79165e-06 0.000185074 -0.138756)
(-1.12212e-05 0.00018752 -0.138334)
(-1.6908e-05 0.000185065 -0.13852)
(-7.68305e-06 0.000181182 -0.139062)
(1.13594e-05 0.000180877 -0.139235)
(1.84459e-05 0.000203603 -0.146008)
(1.47401e-05 0.000210063 -0.145445)
(7.08237e-06 0.000215283 -0.144912)
(-1.27281e-05 0.000215663 -0.144898)
(-2.13949e-05 0.000209961 -0.145425)
(-2.31111e-05 0.000203873 -0.145879)
(-1.90517e-05 0.000201434 -0.146057)
(-6.76893e-06 0.000204254 -0.14572)
(-1.16844e-05 0.000206926 -0.145295)
(-1.6745e-05 0.000204257 -0.145484)
(-7.07053e-06 0.000200029 -0.146032)
(1.23019e-05 0.000199756 -0.146203)
(1.86042e-05 0.000223531 -0.152841)
(1.48807e-05 0.000230639 -0.152275)
(7.11887e-06 0.000236454 -0.151737)
(-1.32507e-05 0.000236876 -0.151722)
(-2.206e-05 0.000230595 -0.152254)
(-2.4192e-05 0.000223951 -0.152708)
(-2.06197e-05 0.000221186 -0.152889)
(-7.83646e-06 0.000224135 -0.152554)
(-1.21413e-05 0.00022703 -0.152128)
(-1.64545e-05 0.000224148 -0.152319)
(-6.32859e-06 0.000219579 -0.152871)
(1.32983e-05 0.000219358 -0.15304)
(1.87053e-05 0.000244141 -0.159538)
(1.49794e-05 0.000251918 -0.15897)
(7.12845e-06 0.000258362 -0.158428)
(-1.37639e-05 0.000258828 -0.158413)
(-2.27072e-05 0.000251947 -0.158948)
(-2.52914e-05 0.000244737 -0.159401)
(-2.2263e-05 0.000241618 -0.159585)
(-8.99618e-06 0.00024467 -0.159253)
(-1.25889e-05 0.000247782 -0.158826)
(-1.60278e-05 0.000244687 -0.159019)
(-5.44786e-06 0.000239788 -0.159574)
(1.43544e-05 0.000239639 -0.159741)
(1.87524e-05 0.000265386 -0.166093)
(1.50405e-05 0.000273853 -0.165524)
(7.11126e-06 0.000280957 -0.16498)
(-1.42678e-05 0.000281471 -0.164964)
(-2.33408e-05 0.000273971 -0.1655)
(-2.64126e-05 0.000266185 -0.165952)
(-2.39811e-05 0.000262683 -0.166139)
(-1.0249e-05 0.000265807 -0.165811)
(-1.30231e-05 0.000269125 -0.165383)
(-1.54552e-05 0.000265823 -0.165578)
(-4.41807e-06 0.000260608 -0.166134)
(1.54766e-05 0.000260555 -0.166299)
(1.87489e-05 0.000287214 -0.172498)
(1.50679e-05 0.000296392 -0.17193)
(7.06689e-06 0.000304188 -0.171384)
(-1.47631e-05 0.00030475 -0.171367)
(-2.39654e-05 0.000296615 -0.171904)
(-2.75585e-05 0.000288246 -0.172353)
(-2.57715e-05 0.000284329 -0.172543)
(-1.15945e-05 0.000287489 -0.172219)
(-1.34384e-05 0.000291002 -0.171792)
(-1.47262e-05 0.000287498 -0.171988)
(-3.22824e-06 0.000281986 -0.172544)
(1.66716e-05 0.000282056 -0.172706)
(1.86985e-05 0.000309568 -0.178745)
(1.50657e-05 0.000319476 -0.17818)
(6.99429e-06 0.000327996 -0.177634)
(-1.52507e-05 0.00032861 -0.177615)
(-2.45864e-05 0.000319824 -0.178151)
(-2.87317e-05 0.000310864 -0.178596)
(-2.76297e-05 0.000306501 -0.178788)
(-1.30304e-05 0.000309658 -0.17847)
(-1.38282e-05 0.000313348 -0.178045)
(-1.383e-05 0.00030965 -0.17824)
(-1.86712e-06 0.000303867 -0.178796)
(1.79467e-05 0.000304089 -0.178954)
(1.86049e-05 0.000332385 -0.184824)
(1.5038e-05 0.000343042 -0.184264)
(6.89185e-06 0.000352319 -0.183719)
(-1.57319e-05 0.000352987 -0.183699)
(-2.52094e-05 0.000343536 -0.184233)
(-2.99336e-05 0.000333979 -0.184672)
(-2.95491e-05 0.000329134 -0.184866)
(-1.4552e-05 0.000332244 -0.184555)
(-1.41844e-05 0.000336092 -0.184133)
(-1.27556e-05 0.00033221 -0.184327)
(-3.23456e-07 0.000326186 -0.18488)
(1.93093e-05 0.000326591 -0.185034)
(1.84724e-05 0.000355594 -0.190726)
(1.49887e-05 0.00036702 -0.190172)
(6.75743e-06 0.000377088 -0.189629)
(-1.6208e-05 0.000377812 -0.189608)
(-2.58401e-05 0.000367681 -0.190138)
(-3.1165e-05 0.000357522 -0.190571)
(-3.15203e-05 0.000352159 -0.190766)
(-1.61522e-05 0.000355174 -0.190463)
(-1.4497e-05 0.000359157 -0.190045)
(-1.14921e-05 0.000355104 -0.190238)
(1.41363e-06 0.000348874 -0.190786)
(2.07669e-05 0.000349496 -0.190937)
(1.8306e-05 0.000379116 -0.196442)
(1.4922e-05 0.000391331 -0.195895)
(6.58855e-06 0.000402222 -0.195356)
(-1.66805e-05 0.000403005 -0.195333)
(-2.64845e-05 0.000392182 -0.195858)
(-3.24253e-05 0.000381414 -0.196282)
(-3.35312e-05 0.000375495 -0.196479)
(-1.78206e-05 0.000378363 -0.196185)
(-1.47546e-05 0.000382456 -0.195772)
(-1.00289e-05 0.000378246 -0.195963)
(3.35437e-06 0.000371851 -0.196504)
(2.23271e-05 0.000372726 -0.196651)
(1.81114e-05 0.000402859 -0.20196)
(1.48418e-05 0.000415883 -0.201423)
(6.38248e-06 0.000427633 -0.200889)
(-1.71507e-05 0.000428479 -0.200865)
(-2.71479e-05 0.000416951 -0.201382)
(-3.37122e-05 0.000405566 -0.201797)
(-3.55665e-05 0.000399049 -0.201995)
(-1.95434e-05 0.000401716 -0.201711)
(-1.49436e-05 0.00040589 -0.201304)
(-8.35596e-06 0.000401541 -0.201492)
(5.50825e-06 0.000395026 -0.202025)
(2.39976e-05 0.000396193 -0.202167)
(1.78955e-05 0.000426721 -0.207273)
(1.47528e-05 0.000440576 -0.206747)
(6.13647e-06 0.000453219 -0.20622)
(-1.76198e-05 0.000454131 -0.206194)
(-2.78354e-05 0.000441886 -0.206703)
(-3.50221e-05 0.000429876 -0.207107)
(-3.76086e-05 0.00042272 -0.207304)
(-2.13035e-05 0.000425126 -0.207032)
(-1.50484e-05 0.000429349 -0.206634)
(-6.46343e-06 0.000424882 -0.206817)
(7.884e-06 0.000418297 -0.20734)
(2.57864e-05 0.000419798 -0.207477)
(1.76662e-05 0.000450585 -0.212374)
(1.46595e-05 0.000465293 -0.211862)
(5.84764e-06 0.000478867 -0.211343)
(-1.80891e-05 0.000479847 -0.211315)
(-2.85515e-05 0.000466875 -0.211814)
(-3.63495e-05 0.000454229 -0.212205)
(-3.96366e-05 0.000446387 -0.212402)
(-2.30801e-05 0.000448471 -0.212142)
(-1.50512e-05 0.000452711 -0.211753)
(-4.342e-06 0.000448146 -0.211931)
(1.04895e-05 0.00044155 -0.212442)
(2.77017e-05 0.000443427 -0.212574)
(1.7432e-05 0.000474303 -0.217257)
(1.45663e-05 0.00048989 -0.216759)
(5.51376e-06 0.00050443 -0.216251)
(-1.85594e-05 0.000505482 -0.216221)
(-2.92995e-05 0.000491773 -0.216708)
(-3.76863e-05 0.000478476 -0.217085)
(-4.16261e-05 0.0004699 -0.21728)
(-2.48483e-05 0.000471597 -0.217034)
(-1.49326e-05 0.000475817 -0.216657)
(-1.98379e-06 0.000471182 -0.216829)
(1.33303e-05 0.000464634 -0.217325)
(2.97512e-05 0.000466935 -0.217452)
(1.72016e-05 0.000497699 -0.221914)
(1.4477e-05 0.000514191 -0.221434)
(5.13359e-06 0.000529735 -0.220937)
(-1.90297e-05 0.000530863 -0.220906)
(-3.00812e-05 0.000516405 -0.221378)
(-3.90217e-05 0.000502441 -0.22174)
(-4.35488e-05 0.000493083 -0.221931)
(-2.65787e-05 0.000494324 -0.221702)
(-1.46709e-05 0.000498483 -0.221338)
(6.1673e-07 0.000493808 -0.221502)
(1.6409e-05 0.000487377 -0.221981)
(3.19412e-05 0.00049015 -0.222102)
(1.69834e-05 0.000520594 -0.226338)
(1.43945e-05 0.000538016 -0.225877)
(4.7063e-06 0.000554599 -0.225395)
(-1.94979e-05 0.000555807 -0.225362)
(-3.08953e-05 0.000540589 -0.225819)
(-4.03407e-05 0.000525942 -0.226162)
(-4.53726e-05 0.000515753 -0.22635)
(-2.82376e-05 0.000516463 -0.226137)
(-1.42426e-05 0.000520519 -0.225788)
(3.46269e-06 0.000515837 -0.225943)
(1.9725e-05 0.000509597 -0.226403)
(3.42767e-05 0.000512895 -0.226519)
(1.67857e-05 0.000542796 -0.230523)
(1.43213e-05 0.000561173 -0.230084)
(4.23165e-06 0.00057883 -0.229618)
(-1.99607e-05 0.00058012 -0.229583)
(-3.17368e-05 0.000564134 -0.230022)
(-4.16243e-05 0.000548785 -0.230346)
(-4.70618e-05 0.000537714 -0.230529)
(-2.97866e-05 0.000537817 -0.230334)
(-1.3623e-05 0.000541724 -0.230001)
(6.55442e-06 0.000537072 -0.230147)
(2.32742e-05 0.000531105 -0.230586)
(3.67611e-05 0.000534984 -0.230696)
(1.66165e-05 0.000564104 -0.234462)
(1.4259e-05 0.000583461 -0.234046)
(3.7108e-06 0.000602223 -0.233599)
(-2.04132e-05 0.000603599 -0.233563)
(-3.25966e-05 0.000586835 -0.233982)
(-4.28484e-05 0.000570763 -0.234286)
(-4.85764e-05 0.00055876 -0.234462)
(-3.11824e-05 0.000558178 -0.234285)
(-1.27866e-05 0.000561886 -0.233971)
(9.88862e-06 0.000557306 -0.234106)
(2.70486e-05 0.0005517 -0.234521)
(3.93958e-05 0.000556216 -0.234625)
(1.64833e-05 0.000584313 -0.23815)
(1.42086e-05 0.000604675 -0.237759)
(3.14672e-06 0.000624569 -0.237333)
(-2.08477e-05 0.000626033 -0.237296)
(-3.34608e-05 0.000608484 -0.237693)
(-4.39836e-05 0.000591666 -0.237974)
(-4.98724e-05 0.000578683 -0.238143)
(-3.23772e-05 0.000577332 -0.237985)
(-1.17077e-05 0.000580789 -0.237691)
(1.34576e-05 0.000576327 -0.237815)
(3.1035e-05 0.000571176 -0.238205)
(4.21792e-05 0.00057639 -0.238303)
(1.63932e-05 0.00060322 -0.241583)
(1.41705e-05 0.000624608 -0.241218)
(2.54454e-06 0.00064566 -0.240815)
(-2.12542e-05 0.000647212 -0.240777)
(-3.43096e-05 0.000628871 -0.24115)
(-4.49951e-05 0.000611282 -0.241409)
(-5.0902e-05 0.000597274 -0.241569)
(-3.33188e-05 0.000595071 -0.24143)
(-1.0361e-05 0.00059822 -0.241156)
(1.72483e-05 0.000593928 -0.241269)
(3.52144e-05 0.000589332 -0.241632)
(4.51062e-05 0.000595305 -0.241724)
(1.63523e-05 0.00062063 -0.244756)
(1.41443e-05 0.000643067 -0.244419)
(1.91182e-06 0.000665294 -0.24404)
(-2.16193e-05 0.000666933 -0.244003)
(-3.51172e-05 0.000647793 -0.244351)
(-4.58424e-05 0.00062941 -0.244585)
(-5.16138e-05 0.000614334 -0.244735)
(-3.39514e-05 0.000611194 -0.244615)
(-8.72294e-06 0.000613977 -0.244363)
(2.1242e-05 0.000609911 -0.244464)
(3.95614e-05 0.000605974 -0.244799)
(4.81676e-05 0.000612768 -0.244886)
(1.63657e-05 0.00063636 -0.247669)
(1.41291e-05 0.000659863 -0.247361)
(1.25873e-06 0.000683278 -0.247008)
(-2.19264e-05 0.000685005 -0.246971)
(-3.58514e-05 0.000665059 -0.247292)
(-4.64798e-05 0.000645853 -0.247501)
(-5.19541e-05 0.000629669 -0.24764)
(-3.42165e-05 0.000625514 -0.247539)
(-6.77266e-06 0.000627874 -0.247309)
(2.54135e-05 0.000624088 -0.247398)
(4.4044e-05 0.000620921 -0.247704)
(5.13489e-05 0.000628603 -0.247786)
(1.64376e-05 0.000650239 -0.25032)
(1.41238e-05 0.000674827 -0.250042)
(5.98591e-07 0.000699428 -0.249717)
(-2.21559e-05 0.00070124 -0.24968)
(-3.6474e-05 0.000680489 -0.249973)
(-4.68569e-05 0.000660425 -0.250157)
(-5.18674e-05 0.000643098 -0.250284)
(-3.40548e-05 0.000637848 -0.250202)
(-4.49341e-06 0.000639726 -0.249995)
(2.97304e-05 0.000636279 -0.250071)
(4.8623e-05 0.000633996 -0.250348)
(5.46306e-05 0.000642628 -0.250425)
(1.65715e-05 0.000662117 -0.252714)
(1.41271e-05 0.000687804 -0.252465)
(-5.27006e-08 0.0007136 -0.252169)
(-2.22846e-05 0.000715483 -0.252133)
(-3.69417e-05 0.000693908 -0.252398)
(-4.69213e-05 0.000672969 -0.252557)
(-5.12982e-05 0.000654482 -0.252671)
(-3.34083e-05 0.00064805 -0.252605)
(-1.87346e-06 0.000649388 -0.25242)
(3.41542e-05 0.000646352 -0.252485)
(5.32513e-05 0.00064506 -0.252734)
(5.7987e-05 0.000654698 -0.252806)
(1.67705e-05 0.00067191 -0.254853)
(1.4139e-05 0.000698696 -0.254634)
(-6.75741e-07 0.000725667 -0.254368)
(-2.22875e-05 0.000727617 -0.254333)
(-3.72074e-05 0.000705217 -0.254569)
(-4.66194e-05 0.000683377 -0.254703)
(-5.0194e-05 0.00066371 -0.254804)
(-3.22221e-05 0.000656032 -0.254754)
(1.09148e-06 0.000656773 -0.254591)
(3.8639e-05 0.000654205 -0.254644)
(5.78751e-05 0.00065402 -0.254865)
(6.13856e-05 0.000664729 -0.254934)
(1.70374e-05 0.00067954 -0.256746)
(1.41604e-05 0.000707432 -0.256556)
(-1.24831e-06 0.000735547 -0.256321)
(-2.21375e-05 0.000737547 -0.256287)
(-3.72212e-05 0.000714324 -0.256494)
(-4.5899e-05 0.000691553 -0.256604)
(-4.85073e-05 0.0006707 -0.256691)
(-3.04481e-05 0.00066172 -0.256655)
(4.39682e-06 0.000661816 -0.256513)
(4.31327e-05 0.000659775 -0.256555)
(6.24329e-05 0.000660802 -0.256749)
(6.47863e-05 0.000672637 -0.256815)
(1.73741e-05 0.000684953 -0.258401)
(1.41931e-05 0.000713951 -0.258239)
(-1.74574e-06 0.000743177 -0.258035)
(-2.18061e-05 0.00074521 -0.258003)
(-3.69329e-05 0.000721157 -0.258181)
(-4.47116e-05 0.000697428 -0.258268)
(-4.61984e-05 0.000675391 -0.258342)
(-2.80492e-05 0.000665063 -0.258318)
(8.02803e-06 0.000664474 -0.258196)
(4.7577e-05 0.000663017 -0.258228)
(6.68564e-05 0.000665353 -0.258397)
(6.8141e-05 0.000678364 -0.258459)
(1.77806e-05 0.000688131 -0.259831)
(1.42398e-05 0.000718231 -0.259697)
(-2.14172e-06 0.000748522 -0.259522)
(-2.12647e-05 0.000750564 -0.259492)
(-3.62939e-05 0.000725678 -0.259642)
(-4.30152e-05 0.000700964 -0.259707)
(-4.32389e-05 0.000677756 -0.259768)
(-2.50028e-05 0.000666052 -0.259754)
(1.1959e-05 0.000664746 -0.25965)
(5.19083e-05 0.000663926 -0.259673)
(7.1071e-05 0.000667655 -0.259819)
(7.13935e-05 0.000681884 -0.259879)
(1.82551e-05 0.000689085 -0.261049)
(1.43025e-05 0.000720274 -0.26094)
(-2.40987e-06 0.000751572 -0.260794)
(-2.04864e-05 0.000753598 -0.260767)
(-3.52603e-05 0.000727875 -0.26089)
(-4.0778e-05 0.00070215 -0.260935)
(-3.96163e-05 0.000677794 -0.260982)
(-2.13057e-05 0.000664705 -0.260978)
(1.61506e-05 0.000662665 -0.260891)
(5.60586e-05 0.000662524 -0.260906)
(7.49968e-05 0.000667716 -0.26103)
(7.44794e-05 0.000683201 -0.261088)
(1.87923e-05 0.000687849 -0.26207)
(1.4383e-05 0.00072011 -0.261986)
(-2.52657e-06 0.000752347 -0.261867)
(-1.94508e-05 0.00075433 -0.261842)
(-3.37964e-05 0.000727765 -0.26194)
(-3.79829e-05 0.000701003 -0.261966)
(-3.53385e-05 0.000675535 -0.262001)
(-1.69787e-05 0.00066107 -0.262003)
(2.05495e-05 0.000658292 -0.261931)
(5.99603e-05 0.000658865 -0.261939)
(7.85533e-05 0.000665572 -0.262044)
(7.73296e-05 0.000682342 -0.2621)
(1.93865e-05 0.000684513 -0.262911)
(1.44829e-05 0.000717816 -0.262848)
(-2.47748e-06 0.000750911 -0.262756)
(-1.81487e-05 0.000752816 -0.262734)
(-3.18791e-05 0.000725404 -0.262807)
(-3.46303e-05 0.000697594 -0.262816)
(-3.0441e-05 0.000671064 -0.26284)
(-1.20722e-05 0.000655251 -0.262847)
(2.50904e-05 0.000651739 -0.262789)
(6.35523e-05 0.000653053 -0.262791)
(8.16685e-05 0.000661316 -0.262879)
(7.98769e-05 0.000679381 -0.262933)
(2.00379e-05 0.000679226 -0.26359)
(1.46162e-05 0.00071353 -0.263548)
(-2.25325e-06 0.000747386 -0.263479)
(-1.65866e-05 0.000749176 -0.263459)
(-2.95076e-05 0.000720925 -0.263511)
(-3.07443e-05 0.000692054 -0.263506)
(-2.49858e-05 0.000664522 -0.26352)
(-6.66898e-06 0.000647421 -0.263529)
(2.9697e-05 0.000643194 -0.263482)
(6.67829e-05 0.000645264 -0.263481)
(8.42857e-05 0.000655093 -0.263554)
(8.2061e-05 0.000674458 -0.263607)
(2.07472e-05 0.000672146 -0.26413)
(1.47962e-05 0.000707409 -0.264105)
(-1.84366e-06 0.000741917 -0.264057)
(-1.4775e-05 0.000743552 -0.26404)
(-2.67006e-05 0.000714471 -0.264072)
(-2.63684e-05 0.000684535 -0.264055)
(-1.90416e-05 0.000656071 -0.264061)
(-8.4669e-07 0.000637758 -0.264072)
(3.4309e-05 0.000632855 -0.264034)
(6.96198e-05 0.000635681 -0.264029)
(8.63693e-05 0.000647068 -0.26409)
(8.38368e-05 0.000667722 -0.264141)
(2.15083e-05 0.000663448 -0.264551)
(1.50296e-05 0.000699616 -0.264541)
(-1.24646e-06 0.000734665 -0.264512)
(-1.27322e-05 0.000736096 -0.264496)
(-2.34863e-05 0.000706196 -0.264512)
(-2.15513e-05 0.000675195 -0.264485)
(-1.26883e-05 0.000645878 -0.264484)
(5.31344e-06 0.000626453 -0.264496)
(3.88763e-05 0.000620923 -0.264465)
(7.20489e-05 0.000624495 -0.264457)
(8.7903e-05 0.00063741 -0.264508)
(8.51732e-05 0.000659333 -0.264558)
(2.231e-05 0.000653293 -0.264873)
(1.53252e-05 0.000690312 -0.264875)
(-4.68175e-07 0.000725785 -0.264861)
(-1.04899e-05 0.000726966 -0.264847)
(-1.99037e-05 0.000696254 -0.264849)
(-1.63537e-05 0.00066419 -0.264815)
(-6.02695e-06 0.000634106 -0.264808)
(1.17038e-05 0.000613693 -0.26482)
(4.33368e-05 0.000607602 -0.264795)
(7.40601e-05 0.0006119 -0.264786)
(8.88807e-05 0.000626288 -0.264828)
(8.60466e-05 0.000649444 -0.264877)
(2.31419e-05 0.000641835 -0.265112)
(1.56879e-05 0.000679648 -0.265125)
(4.81311e-07 0.000715427 -0.265123)
(-8.07913e-06 0.000716307 -0.265111)
(-1.6004e-05 0.000684789 -0.265101)
(-1.08517e-05 0.000651674 -0.265061)
(8.38355e-07 0.000620916 -0.265051)
(1.82165e-05 0.000599653 -0.265062)
(4.76332e-05 0.000593082 -0.265041)
(7.56487e-05 0.000598076 -0.265031)
(8.93071e-05 0.00061386 -0.265066)
(8.64438e-05 0.0006382 -0.265114)
(2.39938e-05 0.000629215 -0.265284)
(1.61201e-05 0.000667761 -0.265305)
(1.58805e-06 0.000703733 -0.265314)
(-5.53104e-06 0.000704256 -0.265303)
(-1.18452e-05 0.000671939 -0.265283)
(-5.12475e-06 0.000637789 -0.26524)
(7.80576e-06 0.000606453 -0.265226)
(2.47488e-05 0.000584495 -0.265236)
(5.17163e-05 0.000577535 -0.26522)
(7.68195e-05 0.000583185 -0.265208)
(8.91991e-05 0.000600271 -0.265238)
(8.63643e-05 0.000625735 -0.265284)
(2.48556e-05 0.000615563 -0.265402)
(1.66221e-05 0.00065478 -0.265429)
(2.83563e-06 0.000690832 -0.265446)
(-2.87544e-06 0.000690941 -0.265436)
(-7.4872e-06 0.000657829 -0.26541)
(7.47394e-07 0.00062267 -0.265363)
(1.47795e-05 0.000590857 -0.265348)
(3.12067e-05 0.000568366 -0.265357)
(5.55461e-05 0.000561118 -0.265343)
(7.75854e-05 0.000567379 -0.265331)
(8.8584e-05 0.000585657 -0.265356)
(8.58194e-05 0.000612173 -0.265401)
(2.57182e-05 0.000600989 -0.265478)
(1.71924e-05 0.000640814 -0.26551)
(4.20675e-06 0.000676841 -0.265532)
(-1.3888e-07 0.000676479 -0.265523)
(-2.98901e-06 0.000642572 -0.265492)
(6.68836e-06 0.000606437 -0.265443)
(2.1674e-05 0.00057425 -0.265427)
(3.75092e-05 0.000551396 -0.265436)
(5.90921e-05 0.000543968 -0.265424)
(7.79651e-05 0.000550791 -0.265411)
(8.74971e-05 0.000570137 -0.265433)
(8.48299e-05 0.000597623 -0.265476)
(2.65751e-05 0.00058559 -0.26552)
(1.78286e-05 0.000625959 -0.265556)
(5.68523e-06 0.000661861 -0.265583)
(2.6566e-06 0.000660968 -0.265574)
(1.59408e-06 0.000626268 -0.265539)
(1.26276e-05 0.000589197 -0.26549)
(2.84163e-05 0.000556739 -0.265473)
(4.35896e-05 0.000533696 -0.265482)
(6.23327e-05 0.000526203 -0.265471)
(7.79802e-05 0.000533534 -0.265458)
(8.59772e-05 0.000553814 -0.265476)
(8.34231e-05 0.000582178 -0.265518)
(2.74221e-05 0.000569441 -0.265537)
(1.85289e-05 0.000610292 -0.265576)
(7.25731e-06 0.000645976 -0.265605)
(5.49342e-06 0.000644493 -0.265597)
(6.2116e-06 0.000609 -0.265559)
(1.8502e-05 0.00057104 -0.26551)
(3.49458e-05 0.000538414 -0.265494)
(4.93953e-05 0.000515358 -0.265502)
(6.52536e-05 0.000507918 -0.265493)
(7.76537e-05 0.000515703 -0.265479)
(8.40633e-05 0.000536773 -0.265495)
(8.16299e-05 0.000565916 -0.265535)
(2.82577e-05 0.000552605 -0.265535)
(1.92924e-05 0.000593875 -0.265575)
(8.9122e-06 0.000629254 -0.265606)
(8.35756e-06 0.000627124 -0.265598)
(1.0818e-05 0.000590836 -0.265559)
(2.42552e-05 0.00055204 -0.265511)
(4.12126e-05 0.00051935 -0.265496)
(5.48847e-05 0.000496456 -0.265504)
(6.78461e-05 0.000489191 -0.265496)
(7.70073e-05 0.000497374 -0.265482)
(8.17923e-05 0.000519083 -0.265495)
(7.94815e-05 0.000548899 -0.265534)
(2.90829e-05 0.000535126 -0.265519)
(2.01191e-05 0.000576754 -0.265559)
(1.06419e-05 0.00061175 -0.265591)
(1.12371e-05 0.000608916 -0.265583)
(1.53719e-05 0.000571834 -0.265543)
(2.9837e-05 0.00053226 -0.265496)
(4.71746e-05 0.000499608 -0.265483)
(6.00245e-05 0.000477049 -0.265491)
(7.01045e-05 0.000470083 -0.265484)
(7.6061e-05 0.000478606 -0.265469)
(7.91976e-05 0.000500799 -0.265481)
(7.70079e-05 0.000531174 -0.265518)
(2.98996e-05 0.000517038 -0.265492)
(2.101e-05 0.000558964 -0.265532)
(1.24406e-05 0.000593504 -0.265564)
(1.41209e-05 0.000589916 -0.265556)
(1.98346e-05 0.00055204 -0.265516)
(3.52013e-05 0.000511749 -0.265471)
(5.27939e-05 0.000479236 -0.265459)
(6.47861e-05 0.000457184 -0.265468)
(7.20246e-05 0.000450639 -0.265461)
(7.48321e-05 0.000459447 -0.265447)
(7.63086e-05 0.000481963 -0.265456)
(7.42375e-05 0.000512779 -0.265492)
(3.07104e-05 0.000498364 -0.265458)
(2.19664e-05 0.00054053 -0.265497)
(1.43034e-05 0.000574548 -0.265528)
(1.69968e-05 0.000570159 -0.26552)
(2.41686e-05 0.000531493 -0.265481)
(4.03038e-05 0.000490548 -0.265438)
(5.80342e-05 0.000458272 -0.265428)
(6.91427e-05 0.000436894 -0.265437)
(7.36021e-05 0.000430895 -0.265431)
(7.33356e-05 0.000439932 -0.265416)
(7.31518e-05 0.000462609 -0.265424)
(7.11965e-05 0.000493739 -0.265458)
(3.15174e-05 0.000479119 -0.265418)
(2.29891e-05 0.000521468 -0.265456)
(1.62258e-05 0.000554906 -0.265486)
(1.98514e-05 0.000549674 -0.265478)
(2.83366e-05 0.000510224 -0.26544)
(4.51007e-05 0.00046869 -0.265399)
(6.28581e-05 0.000436745 -0.265391)
(7.30668e-05 0.000416203 -0.265401)
(7.48317e-05 0.000410875 -0.265396)
(7.15848e-05 0.000420086 -0.265381)
(6.97519e-05 0.000442759 -0.265387)
(6.79103e-05 0.000474074 -0.26542)
(3.23215e-05 0.000459312 -0.265375)
(2.40784e-05 0.000501789 -0.265411)
(1.82024e-05 0.000534597 -0.26544)
(2.26686e-05 0.000528489 -0.265433)
(3.22997e-05 0.000488262 -0.265395)
(4.9547e-05 0.000446204 -0.265357)
(6.72255e-05 0.000414679 -0.265351)
(7.65289e-05 0.000395131 -0.265361)
(7.5707e-05 0.000390594 -0.265357)
(6.95919e-05 0.000399929 -0.265342)
(6.61332e-05 0.000422433 -0.265347)
(6.44042e-05 0.000453798 -0.265378)
(3.31225e-05 0.000438949 -0.26533)
(2.52333e-05 0.000481503 -0.265365)
(2.02263e-05 0.000513636 -0.265392)
(2.54296e-05 0.000506627 -0.265384)
(3.60178e-05 0.000465635 -0.265348)
(5.35957e-05 0.000423116 -0.265313)
(7.10927e-05 0.000392096 -0.265309)
(7.9497e-05 0.00037369 -0.26532)
(7.622e-05 0.000370064 -0.265316)
(6.73696e-05 0.000379475 -0.265301)
(6.23213e-05 0.000401646 -0.265305)
(6.07051e-05 0.000432922 -0.265334)
(3.39181e-05 0.00041803 -0.265285)
(2.64517e-05 0.000460613 -0.265317)
(2.22892e-05 0.000492038 -0.265343)
(2.81133e-05 0.00048411 -0.265335)
(3.945e-05 0.000442369 -0.2653)
(5.71977e-05 0.000399449 -0.265268)
(7.44123e-05 0.000369011 -0.265266)
(8.19364e-05 0.000351889 -0.265278)
(7.63622e-05 0.000349289 -0.265275)
(6.49318e-05 0.000358733 -0.26526)