
400
(
0.000782167
0.000780686
0.000784419
0.00122207
0.000787363
0.00123444
0.000789475
0.0012401
0.000790656
0.00123749
0.000793155
0.00122782
0.000797826
0.00122628
0.000802106
0.00122454
0.000804363
0.00121666
0.00080423
0.00120386
0.000801675
0.00118682
0.000796877
0.00116629
0.000790225
0.00114302
0.000782274
0.00111839
0.000773444
0.00109361
0.000763956
0.00106863
0.000754012
0.00104342
0.000743852
0.00101785
0.000733663
0.000991673
0.000723465
0.000964607
0.000713162
0.0009365
0.000702563
0.000907311
0.000691374
0.000877115
0.000679379
0.000845792
0.000666491
0.000813603
0.000652684
0.000780726
0.000637978
0.000747351
0.000622398
0.000713681
0.000605991
0.000679753
0.000588862
0.000645649
0.000571152
0.000611539
0.000552943
0.000577588
0.00053431
0.000544099
0.00051507
0.000511626
0.000496094
0.000478314
0.000479203
0.000454302
0.000463957
0.000443621
0.000448622
0.00043395
0.000432594
0.000420673
0.000416153
0.0004043
0.000399646
0.00038708
0.000383066
0.000369582
0.000366233
0.000351252
0.000349003
0.000331737
0.000331417
0.000311458
0.000313625
0.000291014
0.000295792
0.000270574
0.000278151
0.00025068
0.000260888
0.000231997
0.000244039
0.00021469
0.000227589
0.000198469
0.000211578
0.000183291
0.000196058
0.000169325
0.000181026
0.000156498
0.000166458
0.000144641
0.000152351
0.000133619
0.000138718
0.000123215
0.000125577
0.000113252
0.000112939
0.000103579
0.000100798
9.40797e-05
8.91388e-05
8.46631e-05
7.79447e-05
7.52726e-05
6.72014e-05
6.58854e-05
5.69129e-05
5.65171e-05
4.71329e-05
4.72514e-05
3.79788e-05
3.82656e-05
2.96124e-05
2.98191e-05
2.22085e-05
2.21969e-05
1.5921e-05
1.56638e-05
1.08422e-05
1.03999e-05
6.969e-06
6.44364e-06
4.19658e-06
3.68395e-06
2.34348e-06
1.90685e-06
1.1948e-06
8.6226e-07
5.42402e-07
3.15536e-07
2.10384e-07
7.35029e-08
6.52267e-08
-6.3593e-09
1.52777e-08
-1.65152e-08
3.44287e-09
-7.17046e-09
1.75916e-09
-9.02368e-10
0.000792833
0.000786589
0.000787273
0.000790202
0.00079132
0.000791297
0.000789958
0.000786866
0.000781636
0.000774118
0.000764396
0.000752724
0.000739447
0.000724999
0.000709895
0.000694329
0.000678254
0.000664207
0.000656057
0.000652726
0.000653243
0.00065645
0.000658469
0.000658081
0.000655304
0.000650197
0.000642914
0.000633647
0.000622643
0.000610166
0.000596441
0.000581669
0.000566019
0.000549644
0.000532692
0.000515308
0.000497579
0.000479481
0.000460906
0.000442046
0.000423707
0.000406758
0.000391273
0.000376461
0.000361538
0.00034623
0.000330537
0.000314511
0.000298216
0.000281728
0.000265119
0.000248461
0.000231811
0.000215194
0.000198632
0.0001822
0.000166002
0.000150143
0.000134713
0.000119784
0.000105405
9.16235e-05
7.84818e-05
6.603e-05
5.43493e-05
4.35649e-05
3.38288e-05
2.52979e-05
1.81047e-05
1.23204e-05
7.92027e-06
4.77469e-06
2.67259e-06
1.36773e-06
6.23888e-07
2.43146e-07
7.57112e-08
1.7993e-08
4.25414e-09
2.18504e-09
0.000794315
0.000773707
0.000760941
0.000752756
0.000745395
0.000738731
0.000731307
0.000721981
0.000710455
0.000696821
0.000681461
0.000664986
0.00064803
0.000631075
0.000614773
0.000599643
0.000585741
0.000575326
0.000571663
0.000572956
0.000577668
0.000584385
0.000589259
0.000591198
0.000590371
0.000586981
0.000581281
0.000573545
0.000564049
0.000553033
0.000540741
0.000527487
0.000513529
0.000499028
0.000484227
0.000469376
0.000454519
0.000439421
0.000423746
0.000407539
0.000391542
0.000376611
0.000362887
0.000349774
0.00033665
0.000323291
0.000309707
0.000295948
0.00028205
0.000268035
0.00025392
0.000239717
0.000225435
0.000211089
0.000196709
0.000182329
0.000167985
0.000153712
0.000139544
0.000125517
0.000111671
9.80564e-05
8.47345e-05
7.17982e-05
5.94037e-05
4.77614e-05
3.71133e-05
2.77076e-05
1.97549e-05
1.33734e-05
8.54701e-06
5.1231e-06
2.85302e-06
1.45366e-06
6.60396e-07
2.56121e-07
7.88674e-08
1.759e-08
3.20449e-09
1.3987e-09
0.000782167
0.000771537
0.000761031
0.000752029
0.000744731
0.000740588
0.000739174
0.000737222
0.000733181
0.000726933
0.000718739
0.000709138
0.000698808
0.000688351
0.000678323
0.00066927
0.000661499
0.000654971
0.000649269
0.000643695
0.000637587
0.000630498
0.000622164
0.000612496
0.000601559
0.000589469
0.000576345
0.000562297
0.000547397
0.00053173
0.000515453
0.000498761
0.00048182
0.000464454
0.000447628
0.000433271
0.000420897
0.000408561
0.000395434
0.000381646
0.000367481
0.000352918
0.000337847
0.000322315
0.000306529
0.000290687
0.000274963
0.000259588
0.000244722
0.000230346
0.00021639
0.000202834
0.000189681
0.000176921
0.000164535
0.00015248
0.000140701
0.000129146
0.000117769
0.000106531
9.54045e-05
8.43777e-05
7.34541e-05
6.26812e-05
5.21873e-05
4.21753e-05
3.28968e-05
2.46182e-05
1.75712e-05
1.18952e-05
7.59574e-06
4.54498e-06
2.52391e-06
1.28073e-06
5.78911e-07
2.23359e-07
6.83829e-08
1.48747e-08
2.39321e-09
9.72813e-10
)
