
400
(
(-0.00158983 -0.00164792 -0.265718)
(0.000653214 -0.00124971 -0.269739)
(0.00059879 -0.00127412 -0.269446)
(0.000205086 -0.00394993 -0.287519)
(0.000548471 -0.00132422 -0.269006)
(3.09301e-05 -0.00425785 -0.286477)
(0.000501945 -0.00133381 -0.268355)
(-0.000124681 -0.00454402 -0.285116)
(0.000459473 -0.00121382 -0.267364)
(-0.000244975 -0.00450252 -0.28287)
(0.000400188 -0.00108694 -0.266172)
(-0.000334673 -0.00390531 -0.279351)
(0.000299894 -0.00115205 -0.265267)
(-0.000547578 -0.00395263 -0.276225)
(0.000177452 -0.00125437 -0.264687)
(-0.000901034 -0.00471807 -0.275483)
(5.73259e-05 -0.00123994 -0.264048)
(-0.00123262 -0.00484099 -0.275152)
(-6.058e-05 -0.00118719 -0.263219)
(-0.00154603 -0.00473184 -0.27449)
(-0.000178227 -0.00115437 -0.262234)
(-0.00185126 -0.00468487 -0.273657)
(-0.000294734 -0.00114114 -0.261127)
(-0.00214103 -0.00474456 -0.272824)
(-0.00040867 -0.00113004 -0.259903)
(-0.00240534 -0.00480574 -0.271984)
(-0.000519362 -0.00111833 -0.258568)
(-0.00263752 -0.00485123 -0.271114)
(-0.000626515 -0.00110731 -0.257133)
(-0.00283392 -0.00489536 -0.270208)
(-0.000729534 -0.00109651 -0.255608)
(-0.00299191 -0.00493636 -0.26926)
(-0.000827784 -0.00108669 -0.254002)
(-0.00311039 -0.00497551 -0.268268)
(-0.000920834 -0.00107978 -0.252325)
(-0.00318919 -0.00501188 -0.267238)
(-0.00100811 -0.00107644 -0.250604)
(-0.00322852 -0.00504395 -0.266172)
(-0.00108935 -0.00107669 -0.248872)
(-0.00322902 -0.00507069 -0.265059)
(-0.00116505 -0.00108075 -0.247147)
(-0.00319125 -0.00509148 -0.263878)
(-0.00123553 -0.00108757 -0.245437)
(-0.00311497 -0.0051052 -0.262623)
(-0.00130072 -0.00109543 -0.243738)
(-0.00300001 -0.00511169 -0.261292)
(-0.00136069 -0.00110295 -0.242042)
(-0.00284647 -0.00511191 -0.259891)
(-0.00141564 -0.00110984 -0.240345)
(-0.00265433 -0.00510671 -0.258429)
(-0.00146559 -0.00111637 -0.238644)
(-0.00242344 -0.0050967 -0.256908)
(-0.00151028 -0.00112205 -0.236936)
(-0.00215388 -0.00508206 -0.255329)
(-0.00154914 -0.00112581 -0.235216)
(-0.00184585 -0.00505933 -0.25369)
(-0.00158161 -0.00112783 -0.233481)
(-0.00149967 -0.00502541 -0.25199)
(-0.00160778 -0.00113548 -0.231728)
(-0.0011164 -0.00498551 -0.250225)
(-0.00162837 -0.00113906 -0.229952)
(-0.000700294 -0.00498541 -0.248395)
(-0.00161713 -0.0011143 -0.228118)
(-0.000255235 -0.00490442 -0.246495)
(-0.0015145 -0.00108886 -0.226115)
(0.00040456 -0.00470274 -0.244295)
(-0.00127777 -0.00111269 -0.223772)
(0.0014822 -0.00463936 -0.241297)
(-0.000909432 -0.00118545 -0.221034)
(0.00301132 -0.00478266 -0.236932)
(-0.000566926 -0.00121388 -0.218304)
(0.00488849 -0.00501625 -0.23156)
(-0.000418595 -0.00114634 -0.215956)
(0.00609829 -0.00480391 -0.22775)
(-0.000415818 -0.00105842 -0.213791)
(0.00661759 -0.00441084 -0.225188)
(-0.000446398 -0.000997266 -0.211524)
(0.00696968 -0.00414915 -0.222469)
(-0.000465728 -0.000981713 -0.209143)
(0.00736316 -0.00396031 -0.219212)
(-0.00047882 -0.00100903 -0.206773)
(0.00778515 -0.00398762 -0.216022)
(-0.000492968 -0.00102457 -0.204438)
(0.00816496 -0.00404713 -0.2132)
(-0.000500764 -0.00100969 -0.20206)
(0.00852367 -0.00394073 -0.210462)
(-0.000495777 -0.000983294 -0.199578)
(0.00889543 -0.00379075 -0.207526)
(-0.000477237 -0.000956596 -0.196965)
(0.00928014 -0.00362826 -0.204311)
(-0.00044548 -0.000932499 -0.194199)
(0.00967453 -0.00348493 -0.200805)
(-0.000401664 -0.000903834 -0.191258)
(0.010077 -0.00334106 -0.19691)
(-0.000345645 -0.000874849 -0.188154)
(0.0104792 -0.00316544 -0.192634)
(-0.000272274 -0.000856014 -0.184911)
(0.0108886 -0.00302771 -0.188129)
(-0.000174824 -0.000842701 -0.181514)
(0.0113302 -0.00292809 -0.183438)
(-5.08462e-05 -0.000826266 -0.177924)
(0.0118175 -0.0028242 -0.178451)
(9.25775e-05 -0.00080178 -0.174124)
(0.0123432 -0.00270366 -0.173086)
(0.000241653 -0.000769502 -0.170118)
(0.0128574 -0.0025542 -0.167402)
(0.00038759 -0.000734972 -0.165904)
(0.0133147 -0.00239476 -0.161467)
(0.000528885 -0.000701328 -0.161465)
(0.013705 -0.00224454 -0.155302)
(0.0006662 -0.000668227 -0.156784)
(0.0140264 -0.00210178 -0.148914)
(0.000799666 -0.000634682 -0.151844)
(0.0142773 -0.00196471 -0.142317)
(0.000927929 -0.000599806 -0.146632)
(0.0144525 -0.00182945 -0.135518)
(0.00104847 -0.000563469 -0.141139)
(0.0145448 -0.00169345 -0.128527)
(0.00115847 -0.000525934 -0.13536)
(0.0145466 -0.00155841 -0.121356)
(0.00125554 -0.000487521 -0.129292)
(0.0144509 -0.00142506 -0.114019)
(0.00133791 -0.000448787 -0.122931)
(0.014254 -0.00129469 -0.106532)
(0.00140354 -0.00041017 -0.116277)
(0.0139543 -0.00116934 -0.0989139)
(0.00144957 -0.000371665 -0.109325)
(0.0135475 -0.0010491 -0.0911718)
(0.00147262 -0.000333139 -0.102081)
(0.0130285 -0.0009326 -0.0833176)
(0.00146939 -0.000294964 -0.0945769)
(0.0123935 -0.00081933 -0.0754075)
(0.001438 -0.000257839 -0.0868759)
(0.0116445 -0.000711709 -0.06754)
(0.00137868 -0.000222183 -0.0790651)
(0.0107933 -0.000611066 -0.059836)
(0.00129349 -0.000188337 -0.0712475)
(0.00985891 -0.000517086 -0.0524182)
(0.00118585 -0.000156742 -0.0635305)
(0.00886509 -0.000430463 -0.0453981)
(0.00106013 -0.00012777 -0.0560105)
(0.00783746 -0.000351793 -0.0388577)
(0.000921376 -0.000101672 -0.0487592)
(0.00679972 -0.000281227 -0.0328404)
(0.000775401 -7.86066e-05 -0.0418175)
(0.00577288 -0.000218737 -0.0273523)
(0.000629642 -5.86445e-05 -0.0351939)
(0.00477608 -0.00016425 -0.0223684)
(0.00049532 -4.18232e-05 -0.0288649)
(0.0038316 -0.000117399 -0.0178335)
(0.000391505 -2.81682e-05 -0.0227676)
(0.00297368 -7.85808e-05 -0.0136457)
(0.000352028 -1.69957e-05 -0.0167891)
(0.00226249 -4.84789e-05 -0.00962075)
(0.000356112 -8.66951e-06 -0.0108575)
(0.00180632 -1.84387e-05 -0.00545205)
(0.000270057 -3.23664e-06 -0.00514954)
(0.0013686 -1.04873e-05 -0.00132276)
(0 0 0)
(0.000496208 2.94493e-06 0.0017811)
(-0.0010407 0.000291634 -0.275789)
(-0.000962205 0.000283516 -0.274061)
(-0.000833319 0.000328785 -0.27201)
(-0.000753578 0.000332001 -0.270619)
(-0.000717586 0.000298342 -0.269682)
(-0.000701203 0.000281097 -0.268889)
(-0.000681266 0.000277358 -0.268028)
(-0.000649704 0.000273512 -0.267033)
(-0.000607689 0.000266991 -0.265909)
(-0.000556756 0.000260154 -0.264661)
(-0.000498441 0.000254809 -0.263297)
(-0.000434182 0.000251873 -0.261816)
(-0.000365122 0.000241507 -0.260221)
(-0.000291552 0.000212117 -0.258535)
(-0.000213425 0.000193826 -0.256808)
(-0.00013482 0.000236426 -0.255012)
(-7.08403e-05 0.000325874 -0.252851)
(-2.75287e-05 0.000337258 -0.249886)
(4.96843e-05 0.000225457 -0.24633)
(0.00021776 0.000144308 -0.242647)
(0.0004249 0.000178519 -0.239112)
(0.000583526 0.000241598 -0.23615)
(0.000686003 0.000258039 -0.233788)
(0.000768742 0.000235773 -0.231729)
(0.000846124 0.000216728 -0.229773)
(0.000915251 0.000215325 -0.227836)
(0.000975456 0.000214559 -0.225895)
(0.00102824 0.00021013 -0.223948)
(0.00107468 0.000206522 -0.221991)
(0.00111518 0.000203703 -0.22002)
(0.00114935 0.00020091 -0.218032)
(0.00117653 0.000197722 -0.216024)
(0.00119617 0.000194837 -0.213993)
(0.00120812 0.000192392 -0.211937)
(0.00121326 0.000183928 -0.209853)
(0.00121399 0.000168834 -0.207741)
(0.00121433 0.000163466 -0.205605)
(0.00121865 0.000177572 -0.203434)
(0.00122618 0.000200643 -0.201153)
(0.00122706 0.000200703 -0.198619)
(0.00120622 0.00016647 -0.195764)
(0.00115756 0.000137846 -0.192725)
(0.00109295 0.000134997 -0.189751)
(0.00103243 0.000143128 -0.186963)
(0.00099055 0.000143688 -0.184296)
(0.0009665 0.000129767 -0.181651)
(0.000949074 0.000116011 -0.178966)
(0.000931981 0.000107232 -0.176216)
(0.000915394 9.77737e-05 -0.173391)
(0.000900286 8.77139e-05 -0.170481)
(0.00088724 7.81269e-05 -0.167473)
(0.00087667 6.90824e-05 -0.164354)
(0.000868984 6.03424e-05 -0.161107)
(0.00086477 5.18025e-05 -0.157712)
(0.000864658 4.359e-05 -0.154145)
(0.000868864 3.59231e-05 -0.150377)
(0.000876844 2.90499e-05 -0.146383)
(0.000887403 2.30662e-05 -0.142138)
(0.00089928 1.79239e-05 -0.137624)
(0.000911398 1.35241e-05 -0.13282)
(0.000922604 9.69062e-06 -0.12771)
(0.000931445 6.50225e-06 -0.122276)
(0.000936059 4.2475e-06 -0.116501)
(0.000934386 2.96962e-06 -0.110369)
(0.000924379 2.4385e-06 -0.103867)
(0.000904007 2.36475e-06 -0.0970003)
(0.000871735 2.63763e-06 -0.0898031)
(0.000826995 3.18556e-06 -0.0823366)
(0.000770279 3.79935e-06 -0.0746876)
(0.000703096 4.2571e-06 -0.0669602)
(0.000627831 4.38281e-06 -0.0592614)
(0.000547625 4.07484e-06 -0.0516852)
(0.000466337 3.3415e-06 -0.0443008)
(0.000388951 2.2639e-06 -0.0371523)
(0.000322801 9.63812e-07 -0.0302662)
(0.000280143 -3.87125e-07 -0.0236657)
(0.000282667 -1.50427e-06 -0.0173951)
(0.000303029 -1.68448e-06 -0.0114585)
(0.000229016 -1.17828e-06 -0.00571786)
(0 0 0)
(-0.00328374 -0.000106575 -0.271767)
(-0.00333791 -0.000203425 -0.270337)
(-0.00332829 -0.000237235 -0.268561)
(-0.00333304 -0.000302507 -0.26727)
(-0.00334085 -0.00039978 -0.266211)
(-0.00333443 -0.000481214 -0.265136)
(-0.00330277 -0.000550481 -0.263951)
(-0.00324693 -0.000619561 -0.262673)
(-0.00317163 -0.000685121 -0.26133)
(-0.00307872 -0.000745151 -0.259933)
(-0.00296862 -0.000800121 -0.258482)
(-0.00284158 -0.00084923 -0.256976)
(-0.00269839 -0.00090194 -0.255418)
(-0.00253994 -0.000969374 -0.253834)
(-0.00236697 -0.00102204 -0.252281)
(-0.00218365 -0.00101184 -0.250726)
(-0.00200414 -0.000951497 -0.248872)
(-0.00183364 -0.00096156 -0.246258)
(-0.00161837 -0.00108533 -0.243048)
(-0.00130232 -0.00116911 -0.239643)
(-0.0009367 -0.00112828 -0.236295)
(-0.000608846 -0.00105064 -0.23343)
(-0.00032733 -0.0010141 -0.231091)
(-5.64769e-05 -0.0010134 -0.228999)
(0.000218047 -0.00100761 -0.226968)
(0.000493411 -0.000982045 -0.224916)
(0.000768704 -0.000953737 -0.222823)
(0.00104488 -0.000927205 -0.220688)
(0.00132247 -0.000898054 -0.218508)
(0.00160144 -0.000866414 -0.216276)
(0.00188041 -0.000833235 -0.213988)
(0.00215745 -0.000798875 -0.211643)
(0.00243358 -0.000762636 -0.209231)
(0.00271357 -0.000725602 -0.206719)
(0.0029996 -0.00069559 -0.204086)
(0.0032857 -0.000673433 -0.201358)
(0.00356278 -0.000642183 -0.198598)
(0.00382597 -0.000591109 -0.195844)
(0.00407231 -0.000530314 -0.19303)
(0.00429436 -0.000491819 -0.19)
(0.00447981 -0.000486428 -0.186661)
(0.00462433 -0.000473609 -0.18313)
(0.00474073 -0.000433133 -0.179632)
(0.00484937 -0.000380461 -0.176274)
(0.00496458 -0.000335108 -0.172993)
(0.00508488 -0.000304655 -0.169696)
(0.00519815 -0.000274922 -0.166331)
(0.00529722 -0.000241445 -0.162883)
(0.00538159 -0.000210083 -0.159349)
(0.00545164 -0.00018092 -0.155725)
(0.00550728 -0.000153115 -0.152003)
(0.00554802 -0.000126867 -0.148177)
(0.00557322 -0.000102522 -0.144235)
(0.00558219 -8.02061e-05 -0.140164)
(0.00557394 -5.99702e-05 -0.135955)
(0.00554715 -4.18927e-05 -0.131596)
(0.00550015 -2.58689e-05 -0.127077)
(0.00543113 -1.16589e-05 -0.122387)
(0.00533884 7.85775e-07 -0.117512)
(0.00522238 1.1332e-05 -0.112441)
(0.0050809 1.9836e-05 -0.107161)
(0.00491339 2.64169e-05 -0.10166)
(0.00471864 3.1474e-05 -0.0959225)
(0.00449555 3.52097e-05 -0.0899249)
(0.00424395 3.75675e-05 -0.0836573)
(0.00396525 3.84833e-05 -0.0771359)
(0.00366264 3.80485e-05 -0.0704039)
(0.00334125 3.64995e-05 -0.0635331)
(0.00300785 3.40084e-05 -0.0566205)
(0.00267009 3.0708e-05 -0.0497776)
(0.00233543 2.6789e-05 -0.0431142)
(0.00201035 2.24917e-05 -0.0367215)
(0.00169994 1.81051e-05 -0.0306632)
(0.00140842 1.39174e-05 -0.024977)
(0.00114018 1.01415e-05 -0.0196883)
(0.000901751 6.74351e-06 -0.0148321)
(0.000704569 4.62451e-06 -0.0104892)
(0.000529387 2.23427e-06 -0.00671838)
(0.000306405 5.69754e-07 -0.00334249)
(0 0 0)
(-0.00158983 -0.00164792 -0.265718)
(-0.00177692 -0.00176106 -0.265721)
(-0.0019465 -0.00189024 -0.265557)
(-0.00207752 -0.00196832 -0.265006)
(-0.00216379 -0.00191194 -0.263894)
(-0.00223304 -0.00184925 -0.26242)
(-0.00232161 -0.00197989 -0.26119)
(-0.00241978 -0.00214744 -0.260327)
(-0.00250662 -0.00219205 -0.25947)
(-0.00258254 -0.00219249 -0.258491)
(-0.00264841 -0.0022093 -0.25742)
(-0.00270213 -0.00224224 -0.256287)
(-0.00274193 -0.00227349 -0.2551)
(-0.00276775 -0.00229982 -0.253868)
(-0.00278006 -0.00232317 -0.252606)
(-0.00277836 -0.00234478 -0.251322)
(-0.00276109 -0.00236407 -0.250022)
(-0.00272695 -0.0023786 -0.248698)
(-0.00267617 -0.00238722 -0.247322)
(-0.00260943 -0.00239011 -0.245867)
(-0.00252664 -0.00238754 -0.24433)
(-0.0024279 -0.00237981 -0.242717)
(-0.00231406 -0.00236757 -0.24104)
(-0.00218591 -0.00235212 -0.239312)
(-0.00204372 -0.00233418 -0.23754)
(-0.00188743 -0.00231374 -0.235724)
(-0.00171703 -0.00229035 -0.233864)
(-0.0015325 -0.00226315 -0.231956)
(-0.00133382 -0.00223241 -0.229998)
(-0.00112152 -0.00220559 -0.227983)
(-0.000897311 -0.0021732 -0.225908)
(-0.000636205 -0.0021109 -0.223737)
(-0.00027709 -0.00204634 -0.221352)
(0.00022768 -0.00203069 -0.218554)
(0.000876906 -0.00206497 -0.215267)
(0.00150478 -0.00205615 -0.211922)
(0.00192985 -0.00195199 -0.208949)
(0.0021915 -0.00182711 -0.2062)
(0.00239973 -0.00172822 -0.203402)
(0.00260157 -0.00167424 -0.200524)
(0.00279477 -0.00166193 -0.19767)
(0.00297379 -0.00163603 -0.194842)
(0.00314702 -0.00157782 -0.191941)
(0.00332116 -0.00150688 -0.188889)
(0.00349679 -0.00143539 -0.185662)
(0.0036729 -0.00136692 -0.182244)
(0.00384741 -0.00129477 -0.178623)
(0.0040196 -0.00122353 -0.174822)
(0.00419392 -0.00116387 -0.170869)
(0.00437653 -0.00111134 -0.166757)
(0.0045692 -0.00105751 -0.162454)
(0.00476393 -0.000997729 -0.157947)
(0.00494589 -0.000932366 -0.153246)
(0.00510501 -0.000866981 -0.148356)
(0.00523816 -0.000804888 -0.143275)
(0.00534449 -0.000746043 -0.138003)
(0.00542297 -0.000689601 -0.132538)
(0.00547166 -0.000634531 -0.12688)
(0.00548803 -0.000580607 -0.121027)
(0.00546945 -0.000528126 -0.114981)
(0.00541383 -0.000477376 -0.108742)
(0.00531986 -0.000428872 -0.102315)
(0.00518612 -0.000382944 -0.0956976)
(0.00501073 -0.000339425 -0.0888802)
(0.00479219 -0.00029801 -0.0818713)
(0.00453063 -0.000258846 -0.0747125)
(0.0042289 -0.000222428 -0.0674767)
(0.00389294 -0.000188869 -0.0602615)
(0.00353107 -0.000158128 -0.0531804)
(0.00315284 -0.000130291 -0.046348)
(0.00276773 -0.000105364 -0.0398632)
(0.0023841 -8.32553e-05 -0.0337956)
(0.00200901 -6.3843e-05 -0.0281799)
(0.00164911 -4.6991e-05 -0.0230186)
(0.0013127 -3.26455e-05 -0.0182871)
(0.00101311 -2.10375e-05 -0.013934)
(0.00077393 -1.08669e-05 -0.00988315)
(0.000582471 -4.75076e-06 -0.0061173)
(0.000347447 -1.48861e-06 -0.00277417)
(0 0 0)
)
