/*--------------------------------*- C++ -*----------------------------------*\
| =========                 |                                                 |
| \\      /  F ield         | OpenFOAM: The Open Source CFD Toolbox           |
|  \\    /   O peration     | Version:  v1912                                 |
|   \\  /    A nd           | Website:  www.openfoam.com                      |
|    \\/     M anipulation  |                                                 |
\*---------------------------------------------------------------------------*/
FoamFile
{
    version     2.0;
    format      ascii;
    class       volScalarField;
    location    "199.6";
    object      omega;
}
// * * * * * * * * * * * * * * * * * * * * * * * * * * * * * * * * * * * * * //

dimensions      [0 0 -1 0 0 0 0];


internalField   nonuniform List<scalar> 
10077
(
20.3397
19.2162
18.8683
18.99
19.1227
19.2094
19.2323
19.2514
19.2539
19.2505
19.2301
19.2064
19.1194
18.9884
18.8678
19.2142
20.3139
19.3909
19.1785
19.3289
19.4599
19.5289
19.5333
19.5426
19.5417
19.5425
19.5325
19.5275
19.4577
19.3283
19.1792
19.3903
20.394
19.6525
19.5677
19.7476
19.8789
19.9331
19.9222
19.9218
19.918
19.9224
19.9225
19.933
19.8777
19.7478
19.5694
19.6531
20.574
19.9971
20.0318
20.2409
20.3741
20.4155
20.392
20.3825
20.3761
20.3838
20.3934
20.4165
20.3737
20.2417
20.0344
19.9988
20.848
20.4214
20.5671
20.8045
20.9407
20.9708
20.9367
20.9192
20.9104
20.9209
20.9389
20.9726
20.9409
20.8058
20.5704
20.4241
21.2119
20.9223
21.1701
21.4345
21.5746
21.5943
21.5514
21.527
21.5161
21.5291
21.5543
21.5968
21.5753
21.4363
21.1741
20.926
21.6618
21.4973
21.8382
22.1281
22.2726
22.2825
22.2321
22.2017
22.189
22.2042
22.2356
22.2855
22.2736
22.1301
21.8427
21.5019
22.1946
22.1439
22.5686
22.8813
23.0304
23.0324
22.9752
22.9399
22.9256
22.9427
22.9792
23.0358
23.0316
22.8834
22.5736
22.1493
22.8077
22.8601
23.3593
23.6901
23.8439
23.8406
23.7777
23.7387
23.7231
23.7418
23.782
23.844
23.8451
23.6923
23.3647
22.8662
23.4988
23.6443
24.2088
24.5532
24.7114
24.7036
24.6365
24.5954
24.5787
24.5986
24.6409
24.7072
24.7127
24.5555
24.2144
23.651
24.2659
24.4951
25.1154
25.4706
25.6331
25.6209
25.55
25.5077
25.4902
25.5111
25.5547
25.6246
25.6344
25.4729
25.1213
24.5023
25.1077
25.4117
26.0782
26.4427
26.6096
26.5924
26.5184
26.4755
26.4572
26.479
26.5233
26.5962
26.6108
26.445
26.0847
25.4194
26.0232
26.3937
27.0976
27.4704
27.6419
27.6188
27.5423
27.4994
27.4805
27.503
27.5474
27.6227
27.6431
27.4728
27.105
26.4018
27.0116
27.4409
28.1752
28.5547
28.7312
28.7004
28.6228
28.5806
28.561
28.5842
28.6281
28.7044
28.7323
28.5572
28.1834
27.4494
28.0729
28.5538
29.3126
29.6968
29.8785
29.8385
29.7607
29.7201
29.7001
29.7238
29.7661
29.8426
29.8795
29.6993
29.3211
28.5625
29.2073
29.7328
30.5111
30.8975
31.0847
31.0349
30.9561
30.9184
30.898
30.9222
30.9616
31.0389
31.0855
30.9001
30.5197
29.7417
30.4155
30.9791
31.7728
32.1581
32.3508
32.2918
32.2091
32.1758
32.1552
32.1796
32.2147
32.2957
32.3513
32.1607
31.7813
30.9881
31.6988
32.2941
33.1011
33.4815
33.6792
33.612
33.5223
33.4936
33.4729
33.4974
33.5279
33.6157
33.6795
33.484
33.109
32.3032
33.0589
33.6799
34.4993
34.8717
35.0739
34.9989
34.8993
34.8735
34.8528
34.8773
34.9048
35.0024
35.0739
34.8741
34.5072
33.689
34.4985
35.1389
35.9701
36.334
36.5399
36.4566
36.3445
36.3204
36.2994
36.3241
36.3498
36.46
36.5395
36.3361
35.9788
35.148
36.0208
36.6742
37.5175
37.875
38.0834
37.9901
37.8631
37.8396
37.8183
37.8432
37.8683
37.9933
38.0825
37.8767
37.5274
36.6832
37.6298
38.2893
39.147
39.4987
39.7111
39.6048
39.4617
39.437
39.4154
39.4405
39.4667
39.6077
39.7098
39.5004
39.1577
38.298
39.3305
39.988
40.8645
41.2088
41.4278
41.3067
41.1482
41.1194
41.0977
41.1228
41.153
41.3095
41.4261
41.2111
40.8758
39.9963
41.1287
41.7746
42.677
43.0106
43.239
43.1027
42.9307
42.8943
42.8727
42.8976
42.9354
43.1052
43.2372
43.0133
42.6887
41.7824
43.0312
43.6545
44.5919
44.9121
45.1502
45.0002
44.8167
44.7704
44.7496
44.7735
44.8212
45.0025
45.1484
44.915
44.6039
43.6621
45.0458
45.6401
46.6174
46.9219
47.1684
47.0075
46.8141
46.7594
46.74
46.7623
46.8184
47.0096
47.1667
46.925
46.6296
45.6478
47.1805
47.7434
48.7627
49.0495
49.3034
49.1336
48.9318
48.8709
48.8531
48.8737
48.9361
49.1355
49.3015
49.0527
48.7751
47.7514
49.444
49.977
51.0379
51.3053
51.5664
51.3888
51.1801
51.1149
51.0987
51.1176
51.1842
51.3905
51.5645
51.3086
51.0504
49.9853
51.8448
52.353
53.4557
53.7048
53.9739
53.7877
53.5715
53.503
53.4885
53.5056
53.5755
53.7893
53.972
53.7083
53.4683
52.3617
54.3914
54.8865
56.0353
56.2666
56.5435
56.3489
56.125
56.054
56.0413
56.0565
56.129
56.3505
56.5417
56.2703
56.048
54.8959
57.0999
57.6015
58.7965
59.0062
59.2895
59.0893
58.8605
58.7894
58.7789
58.7919
58.8646
59.0909
59.2877
59.0101
58.8094
57.613
59.9857
60.5264
61.7536
61.9374
62.2254
62.0227
61.7927
61.7245
61.7161
61.727
61.7967
62.0244
62.2237
61.9415
61.7666
60.5401
63.0661
63.6836
64.9188
65.0738
65.3647
65.1621
64.9338
64.8715
64.865
64.8739
64.9379
65.164
65.3633
65.078
64.9318
63.699
66.3674
67.0815
68.3031
68.4279
68.7208
68.5198
68.2953
68.241
68.2364
68.2435
68.2997
68.5221
68.7196
68.4325
68.316
67.0983
69.9126
70.7239
71.9166
72.0118
72.3057
72.1075
71.888
71.8429
71.8401
71.8455
71.8926
72.1102
72.3051
72.0167
71.9296
70.7417
73.7122
74.614
75.769
75.836
76.1305
75.9356
75.7218
75.6865
75.6853
75.6892
75.7268
75.9388
76.1306
75.8414
75.7821
74.6325
77.7831
78.7561
79.8691
79.9098
80.2048
80.0133
79.8056
79.7803
79.7808
79.7833
79.8112
80.0173
80.2057
79.916
79.8824
78.7753
82.1575
83.1648
84.2249
84.2418
84.5369
84.3491
84.148
84.1324
84.1347
84.1357
84.1542
84.3541
84.5389
84.2488
84.2385
83.1841
86.8564
87.868
88.862
88.8538
89.1466
88.9653
88.7736
88.7688
88.7728
88.7723
88.7805
88.9713
89.1496
88.8616
88.8758
87.887
91.8849
92.8857
93.8107
93.7754
94.0637
93.8916
93.7119
93.7189
93.7246
93.7228
93.7195
93.8984
94.0677
93.7839
93.8242
92.9044
97.2491
98.2257
99.0817
99.0206
99.3045
99.1416
98.9745
98.993
99.0006
98.9972
98.9828
99.1496
99.3099
99.03
99.0952
98.2441
102.956
103.895
104.681
104.595
104.874
104.721
104.567
104.597
104.607
104.602
104.577
104.731
104.881
104.605
104.694
103.913
109.013
109.902
110.614
110.504
110.779
110.636
110.497
110.538
110.55
110.543
110.508
110.647
110.787
110.516
110.628
109.92
115.43
116.255
116.89
116.757
117.026
116.895
116.772
116.824
116.838
116.83
116.784
116.908
117.037
116.77
116.905
116.272
122.22
122.965
123.526
123.367
123.632
123.512
123.405
123.467
123.483
123.474
123.418
123.527
123.645
123.382
123.541
122.981
129.4
130.054
130.54
130.355
130.616
130.507
130.416
130.487
130.507
130.495
130.432
130.525
130.632
130.373
130.556
130.07
136.992
137.551
137.96
137.75
138.006
137.91
137.836
137.915
137.938
137.924
137.854
137.93
138.025
137.769
137.977
137.566
145.034
145.493
145.821
145.586
145.837
145.755
145.7
145.786
145.813
145.796
145.72
145.778
145.859
145.608
145.839
145.508
153.576
153.927
154.168
153.901
154.134
154.066
154.031
154.123
154.154
154.134
154.054
154.092
154.159
153.924
154.187
153.941
162.677
162.912
163.035
162.72
162.931
162.882
162.871
162.966
163.001
162.978
162.896
162.912
162.961
162.745
163.053
162.925
172.378
172.473
172.473
172.119
172.303
172.272
172.285
172.391
172.431
172.405
172.312
172.306
172.335
172.145
172.491
172.484
182.747
182.686
182.56
182.173
182.329
182.321
182.36
182.476
182.519
182.49
182.389
182.358
182.364
182.201
182.578
182.695
193.876
193.644
193.391
192.978
193.103
193.122
193.189
193.313
193.361
193.329
193.221
193.163
193.142
193.008
193.408
193.651
205.878
205.464
205.081
204.649
204.742
204.79
204.887
205.019
205.07
205.036
204.921
204.834
204.784
204.68
205.098
205.469
218.896
218.286
217.771
217.325
217.385
217.465
217.594
217.733
217.787
217.752
217.631
217.512
217.43
217.358
217.787
218.289
233.095
232.279
231.629
231.177
231.203
231.317
231.48
231.626
231.682
231.646
231.52
231.368
231.251
231.212
231.646
232.279
248.665
247.634
246.85
246.398
246.389
246.54
246.738
246.89
246.948
246.911
246.78
246.594
246.442
246.435
246.867
247.632
265.827
264.579
263.661
263.218
263.177
263.365
263.598
263.756
263.816
263.779
263.643
263.422
263.233
263.259
263.678
264.574
284.867
283.404
282.358
281.934
281.862
282.087
282.356
282.519
282.581
282.543
282.403
282.148
281.923
281.978
282.376
283.397
306.158
304.49
303.325
302.932
302.833
303.094
303.398
303.564
303.628
303.589
303.447
303.159
302.899
302.979
303.345
304.481
330.201
328.346
327.078
326.727
326.608
326.903
327.238
327.406
327.473
327.433
327.29
326.971
326.679
326.779
327.1
328.336
357.679
355.67
354.322
354.025
353.893
354.218
354.581
354.75
354.819
354.779
354.636
354.29
353.969
354.082
354.346
355.659
389.559
387.446
386.054
385.823
385.687
386.037
386.421
386.59
386.66
386.619
386.478
386.113
385.768
385.884
386.082
387.435
427.256
425.117
423.735
423.58
423.462
423.823
424.216
424.379
424.451
424.41
424.274
423.903
423.548
423.646
423.767
425.107
472.921
470.836
469.517
469.449
469.374
469.732
470.118
470.27
470.343
470.301
470.178
469.814
469.464
469.521
469.553
470.83
529.685
527.74
526.533
526.561
526.53
526.889
527.258
527.392
527.465
527.423
527.319
526.973
526.622
526.638
526.574
527.737
602.276
600.61
599.61
599.725
599.737
600.085
600.43
600.556
600.629
600.588
600.491
600.169
599.829
599.803
599.657
600.612
698.433
697.254
696.617
696.778
696.869
697.169
697.459
697.574
697.645
697.605
697.518
697.25
696.956
696.853
696.666
697.263
830.962
830.544
830.468
830.641
830.876
831.077
831.254
831.34
831.406
831.368
831.309
831.15
830.952
830.708
830.514
830.561
1021.08
1021.75
1022.47
1022.63
1023.09
1023.12
1023.12
1023.15
1023.21
1023.17
1023.17
1023.18
1023.15
1022.69
1022.51
1021.78
1304.3
1306.39
1308.19
1308.33
1309.09
1308.9
1308.64
1308.59
1308.64
1308.61
1308.68
1308.94
1309.12
1308.36
1308.23
1306.43
1742.43
1746.23
1749.36
1749.47
1750.59
1750.14
1749.58
1749.42
1749.46
1749.43
1749.6
1750.16
1750.59
1749.48
1749.39
1746.28
2450.96
2456.73
2461.4
2461.48
2463.03
2462.29
2461.39
2461.11
2461.14
2461.12
2461.4
2462.29
2463.01
2461.47
2461.43
2456.81
3668.74
3676.83
3683.3
3683.37
3685.45
3684.37
3683.08
3682.67
3682.7
3682.67
3683.09
3684.35
3685.4
3683.34
3683.34
3676.93
5957.01
5967.99
5976.74
5976.8
5979.58
5978.08
5976.31
5975.74
5975.76
5975.74
5976.31
5978.04
5979.48
5976.74
5976.78
5968.12
10874.2
10889.2
10901.1
10901.2
10904.9
10902.8
10900.4
10899.7
10899.7
10899.6
10900.4
10902.8
10904.8
10901.1
10901.1
10889.4
23922.6
23943.4
23959.9
23960
23965.2
23962.3
23958.9
23957.9
23957.9
23957.8
23958.9
23962.2
23965
23959.8
23959.9
23943.6
73406.1
73433.5
73455.3
73455.4
73462.3
73458.5
73454.1
73452.7
73452.7
73452.6
73454.1
73458.4
73462
73455.3
73455.4
73433.8
439448
439448
439448
439448
439448
439448
439448
439448
439448
439448
439448
439448
439448
439448
439448
439448
20.3014
19.2376
18.8392
18.958
19.0933
19.1982
19.2399
19.27
19.2737
19.269
19.2372
19.1939
19.0888
18.9553
18.8388
19.2355
20.3612
19.4509
19.1505
19.2884
19.4225
19.5115
19.5403
19.5616
19.5626
19.5613
19.5391
19.5088
19.4193
19.2867
19.1508
19.4499
20.5151
19.7481
19.5416
19.7006
19.8353
19.9114
19.9288
19.9423
19.9407
19.9427
19.9287
19.91
19.8332
19.6998
19.5426
19.7481
20.7613
20.1254
20.0085
20.1895
20.3263
20.392
20.3992
20.4057
20.4017
20.4067
20.4
20.3916
20.325
20.1893
20.01
20.1262
21.0953
20.5795
20.5476
20.7507
20.8907
20.948
20.946
20.9465
20.9403
20.9479
20.9476
20.9485
20.8901
20.751
20.5495
20.5811
21.513
21.1075
21.1556
21.3804
21.5245
21.5753
21.565
21.5603
21.5521
21.5621
21.5672
21.5765
21.5244
21.381
21.1578
21.1098
22.0116
21.7074
21.8299
22.0755
22.2244
22.2704
22.2527
22.2437
22.2336
22.2459
22.2555
22.2722
22.2246
22.0763
21.8324
21.7104
22.5884
22.3773
22.5686
22.8333
22.9874
23.0292
23.0049
22.9923
22.9806
22.9948
23.0082
23.0313
22.9879
22.8343
22.571
22.3808
23.2414
23.1148
23.3694
23.6507
23.8092
23.8464
23.8165
23.8008
23.7878
23.8035
23.82
23.8487
23.8097
23.6518
23.3716
23.1188
23.9686
23.9175
24.2305
24.5241
24.6856
24.719
24.6842
24.6662
24.6519
24.669
24.6879
24.7214
24.6861
24.5252
24.2325
23.9219
24.7679
24.7843
25.1498
25.4514
25.6154
25.6464
25.6072
25.5874
25.5721
25.5904
25.611
25.6488
25.6159
25.4526
25.1515
24.7891
25.6385
25.715
26.1271
26.4326
26.5988
26.6295
26.5861
26.5652
26.5489
26.5682
26.5901
26.6318
26.5993
26.4338
26.128
25.7201
26.5802
26.7104
27.1632
27.4685
27.637
27.67
27.6227
27.6008
27.5838
27.6039
27.6267
27.6721
27.6375
27.4696
27.1629
26.7158
27.5936
27.7718
28.2592
28.5603
28.7314
28.7705
28.719
28.6965
28.6787
28.6996
28.723
28.7724
28.7319
28.5615
28.258
27.7773
28.68
28.9007
29.4175
29.7117
29.8837
29.9334
29.8777
29.8546
29.8362
29.8578
29.8817
29.9351
29.8841
29.7125
29.4153
28.9065
29.8406
30.0991
30.6407
30.9276
31.0971
31.1609
31.1016
31.078
31.059
31.0811
31.1055
31.1624
31.0972
30.9274
30.6377
30.105
31.0773
31.3692
31.9317
32.2114
32.3753
32.4552
32.3945
32.3697
32.3502
32.3728
32.3982
32.4565
32.375
32.2102
31.9279
31.3752
32.392
32.7134
33.2935
33.5662
33.7245
33.8189
33.7591
33.7335
33.7135
33.7366
33.7627
33.8199
33.7234
33.564
33.289
32.7195
33.7872
34.1345
34.7293
34.9952
35.1483
35.2552
35.1983
35.1738
35.1534
35.1768
35.2017
35.256
35.1466
34.9921
34.7241
34.1407
35.2655
35.6358
36.2423
36.5018
36.6499
36.7673
36.7153
36.6933
36.6726
36.6962
36.7185
36.7678
36.6474
36.4978
36.2365
35.6421
36.8303
37.2211
37.8357
38.0889
38.2323
38.3581
38.3128
38.2945
38.2737
38.2973
38.3159
38.3582
38.2292
38.0842
37.8295
37.2276
38.4869
38.8954
39.5137
39.7609
39.9001
40.032
39.9944
39.9813
39.9604
39.984
39.9974
40.0319
39.8964
39.7555
39.5072
38.9021
40.2492
40.6657
41.282
41.5228
41.6585
41.7946
41.7643
41.7588
41.7379
41.7614
41.767
41.7942
41.6543
41.5169
41.2751
40.6728
42.1308
42.5402
43.1463
43.3805
43.5131
43.6519
43.6271
43.6327
43.6116
43.6353
43.6296
43.6512
43.5085
43.3741
43.1391
42.548
44.1357
44.5342
45.1134
45.3405
45.4705
45.6106
45.5897
45.609
45.5872
45.6114
45.5921
45.6097
45.4655
45.3337
45.1059
44.542
46.2652
46.6584
47.1903
47.4101
47.5381
47.6781
47.66
47.6918
47.6686
47.6942
47.6622
47.677
47.5328
47.4031
47.1826
46.6657
48.5212
48.9168
49.3861
49.5978
49.7245
49.8635
49.8483
49.8932
49.8685
49.8955
49.8504
49.8623
49.719
49.5907
49.3781
48.9235
50.9089
51.3119
51.7151
51.9173
52.0431
52.1812
52.1689
52.2271
52.2009
52.2293
52.171
52.1798
52.0374
51.91
51.7067
51.3181
53.4368
53.8481
54.1923
54.3848
54.5102
54.6462
54.6349
54.7039
54.6763
54.7061
54.6369
54.6449
54.5044
54.3774
54.1837
53.8541
56.1171
56.5315
56.829
57.0131
57.1384
57.2698
57.257
57.3339
57.3053
57.3361
57.2591
57.2686
57.1327
57.0058
56.8203
56.5371
58.9577
59.3673
59.6351
59.8121
59.9377
60.0619
60.046
60.1281
60.0988
60.1304
60.0483
60.0609
59.9323
59.8052
59.6267
59.3716
61.9701
62.3681
62.621
62.7913
62.9173
63.0326
63.013
63.0984
63.0688
63.1008
63.0155
63.032
62.9123
62.7849
62.6131
62.3716
65.1711
65.5503
65.797
65.9601
66.0868
66.1923
66.169
66.2567
66.2272
66.2593
66.1718
66.1921
66.0823
65.9544
65.7897
65.5532
68.5794
68.9288
69.1736
69.3284
69.4561
69.5516
69.5252
69.6148
69.5856
69.6175
69.5285
69.552
69.4523
69.3236
69.1671
68.9314
72.2106
72.5167
72.7612
72.9065
73.0355
73.1211
73.0925
73.1836
73.1551
73.1866
73.0962
73.1221
73.0326
72.9026
72.7556
72.5191
76.0736
76.3253
76.5699
76.7043
76.8354
76.9112
76.8814
76.9739
76.9464
76.9771
76.8858
76.9131
76.8335
76.7016
76.5653
76.3277
80.1732
80.3646
80.6096
80.7319
80.866
80.9321
80.9019
80.9956
80.9696
80.9992
80.9071
80.9351
80.8653
80.7306
80.6061
80.367
84.5088
84.6432
84.8897
84.9989
85.1368
85.1935
85.1638
85.2582
85.234
85.2622
85.1698
85.1976
85.1376
84.9991
84.8875
84.6459
89.0842
89.1694
89.419
89.5142
89.6573
89.7043
89.6758
89.7706
89.7487
89.7751
89.6829
89.7099
89.6596
89.5162
89.4182
89.1725
93.9168
93.9666
94.225
94.3041
94.4531
94.4888
94.4614
94.5549
94.5359
94.5599
94.4695
94.4958
94.4571
94.3078
94.2257
93.9704
99.0365
99.064
99.3379
99.3988
99.555
99.5772
99.5504
99.641
99.6257
99.6465
99.5595
99.5857
99.5606
99.4042
99.3402
99.0689
104.463
104.475
104.769
104.81
104.976
104.984
104.958
105.045
105.034
105.051
104.968
104.994
104.983
104.818
104.773
104.481
110.205
110.207
110.527
110.547
110.724
110.716
110.691
110.773
110.767
110.78
110.703
110.728
110.734
110.557
110.533
110.215
116.275
116.274
116.609
116.621
116.799
116.787
116.762
116.839
116.839
116.846
116.776
116.801
116.811
116.633
116.617
116.284
122.689
122.692
123.032
123.039
123.217
123.202
123.183
123.257
123.259
123.265
123.198
123.219
123.231
123.053
123.041
122.702
129.471
129.475
129.817
129.823
130
129.986
129.973
130.044
130.049
130.054
129.99
130.005
130.017
129.839
129.828
129.486
136.655
136.653
136.995
137.004
137.178
137.166
137.164
137.231
137.239
137.241
137.182
137.189
137.199
137.023
137.008
136.664
144.265
144.26
144.602
144.619
144.79
144.78
144.79
144.851
144.862
144.863
144.81
144.806
144.814
144.641
144.617
144.272
152.341
152.34
152.685
152.721
152.897
152.893
152.915
152.969
152.985
152.982
152.938
152.921
152.924
152.745
152.702
152.353
160.934
160.944
161.317
161.38
161.563
161.564
161.598
161.644
161.664
161.659
161.623
161.594
161.593
161.408
161.337
160.958
170.132
170.175
170.578
170.666
170.856
170.861
170.908
170.945
170.97
170.961
170.935
170.894
170.889
170.697
170.601
170.191
180.022
180.114
180.55
180.66
180.858
180.867
180.928
180.955
180.986
180.972
180.957
180.903
180.895
180.696
180.576
180.132
190.703
190.86
191.328
191.46
191.665
191.679
191.753
191.77
191.807
191.788
191.784
191.718
191.705
191.5
191.358
190.88
202.291
202.526
203.028
203.18
203.39
203.41
203.499
203.505
203.55
203.524
203.532
203.452
203.435
203.223
203.062
202.549
214.925
215.253
215.788
215.957
216.172
216.199
216.302
216.299
216.35
216.319
216.337
216.243
216.22
216.003
215.825
215.279
228.774
229.209
229.774
229.957
230.175
230.211
230.331
230.319
230.378
230.34
230.368
230.259
230.227
230.008
229.815
229.237
244.036
244.587
245.181
245.375
245.592
245.641
245.779
245.759
245.826
245.781
245.817
245.692
245.648
245.43
245.225
244.62
260.943
261.618
262.234
262.434
262.645
262.711
262.87
262.847
262.92
262.87
262.911
262.766
262.705
262.493
262.281
261.654
279.789
280.592
281.22
281.42
281.617
281.707
281.889
281.867
281.946
281.892
281.933
281.765
281.681
281.483
281.271
280.632
300.961
301.889
302.515
302.704
302.915
303.014
303.21
303.195
303.278
303.22
303.256
303.076
302.985
302.771
302.568
301.932
324.973
326.016
326.619
326.827
327.082
327.182
327.379
327.348
327.436
327.375
327.426
327.248
327.157
326.9
326.674
326.063
352.532
353.67
354.227
354.511
354.807
354.914
355.113
355.063
355.158
355.091
355.163
354.983
354.889
354.592
354.287
353.721
384.64
385.839
386.367
386.737
387.071
387.188
387.39
387.327
387.425
387.355
387.442
387.261
387.158
386.824
386.436
385.892
422.77
423.972
424.493
424.938
425.303
425.436
425.643
425.574
425.673
425.603
425.697
425.513
425.395
425.031
424.569
424.027
469.073
470.213
470.749
471.261
471.652
471.805
472.017
471.948
472.046
471.978
472.073
471.885
471.748
471.358
470.831
470.267
526.668
527.678
528.26
528.825
529.237
529.412
529.629
529.566
529.661
529.597
529.686
529.494
529.336
528.926
528.346
527.728
600.404
601.21
601.799
602.388
602.806
603.004
603.226
603.18
603.269
603.21
603.283
603.086
602.905
602.489
601.885
601.26
698.171
698.654
699.169
699.73
700.127
700.349
700.576
700.561
700.642
700.591
700.631
700.427
700.22
699.824
699.247
698.699
832.943
832.918
833.24
833.697
834.034
834.281
834.512
834.548
834.616
834.575
834.562
834.348
834.113
833.774
833.301
832.952
1026.1
1025.31
1025.29
1025.56
1025.79
1026.06
1026.3
1026.4
1026.46
1026.43
1026.34
1026.11
1025.84
1025.61
1025.33
1025.32
1313.24
1311.41
1310.92
1310.91
1310.99
1311.28
1311.53
1311.74
1311.77
1311.75
1311.56
1311.31
1311.01
1310.92
1310.92
1311.4
1756.12
1753.03
1751.95
1751.59
1751.49
1751.82
1752.09
1752.41
1752.42
1752.42
1752.1
1751.81
1751.47
1751.56
1751.9
1752.98
2470.25
2465.67
2463.92
2463.17
2462.86
2463.24
2463.55
2464
2464
2464
2463.54
2463.2
2462.8
2463.09
2463.81
2465.59
3694.77
3688.43
3685.9
3684.72
3684.19
3684.63
3685
3685.61
3685.59
3685.61
3684.98
3684.56
3684.08
3684.58
3685.73
3688.31
5991.69
5983.13
5979.64
5977.94
5977.15
5977.69
5978.15
5978.97
5978.94
5978.96
5978.11
5977.59
5976.98
5977.73
5979.4
5982.95
10921
10909.4
10904.6
10902.2
10901.1
10901.8
10902.4
10903.5
10903.5
10903.5
10902.4
10901.7
10900.9
10901.9
10904.3
10909.2
23987.3
23971.2
23964.5
23961.2
23959.6
23960.5
23961.4
23962.9
23962.8
23962.9
23961.3
23960.3
23959.2
23960.8
23964.1
23970.9
73491.5
73470.2
73461.4
73456.9
73454.8
73456
73457.1
73459.1
73459.1
73459.1
73457
73455.8
73454.3
73456.3
73460.7
73469.7
439448
439448
439448
439448
439448
439448
439448
439448
439448
439448
439448
439448
439448
439448
439448
439448
20.3423
19.2329
18.8406
18.9772
19.114
19.2053
19.2413
19.2679
19.2706
19.2666
19.2384
19.2007
19.1093
18.975
18.8412
19.2309
20.335
19.4092
19.1558
19.3169
19.4503
19.5183
19.5368
19.5507
19.5503
19.5502
19.5353
19.5154
19.447
19.3158
19.1574
19.4085
20.426
19.6728
19.5502
19.7383
19.8708
19.9189
19.9223
19.9252
19.922
19.9255
19.922
19.9174
19.8686
19.738
19.5528
19.6734
20.6131
20.0202
20.0198
20.2363
20.37
20.4005
20.3911
20.3847
20.3789
20.3855
20.3918
20.4001
20.3687
20.2367
20.0233
20.022
20.892
20.4484
20.5612
20.8069
20.9435
20.9577
20.9376
20.9234
20.9153
20.9248
20.9392
20.9583
20.9428
20.8078
20.5654
20.4513
21.2596
20.9548
21.1713
21.4469
21.5874
21.5863
21.5573
21.5365
21.5264
21.5384
21.5596
21.5875
21.5871
21.4482
21.1764
20.9587
21.7132
21.5371
21.8479
22.1518
22.2971
22.2828
22.2463
22.2202
22.2083
22.2224
22.249
22.2847
22.2971
22.1534
21.8538
21.5418
22.2508
22.1931
22.5898
22.9164
23.0667
23.043
23.0006
22.9711
22.9576
22.9736
23.0038
23.0452
23.0668
22.918
22.5964
22.1987
22.8704
22.9212
23.3958
23.7369
23.8921
23.862
23.8153
23.7845
23.7698
23.7872
23.8187
23.8644
23.8922
23.7386
23.4032
22.9275
23.5704
23.7201
24.2627
24.6127
24.7725
24.7372
24.6857
24.6555
24.6402
24.6584
24.6893
24.7397
24.7726
24.6144
24.2705
23.7269
24.3497
24.5886
25.1889
25.5446
25.7088
25.669
25.6113
25.5825
25.5665
25.5854
25.6151
25.6715
25.7088
25.5462
25.1969
24.596
25.2073
25.5265
26.1747
26.5345
26.7028
26.6587
26.5933
26.5654
26.5489
26.5684
26.5971
26.6612
26.7026
26.5358
26.1829
25.5344
26.1428
26.5337
27.2213
27.5849
27.757
27.7083
27.6333
27.6053
27.5882
27.6083
27.6372
27.7108
27.7565
27.586
27.2295
26.5419
27.1562
27.6106
28.3306
28.6993
28.8746
28.8203
28.7337
28.705
28.6873
28.7081
28.7376
28.8227
28.8736
28.6999
28.3388
27.6192
28.2481
28.7581
29.505
29.8794
30.059
29.9972
29.8974
29.8675
29.8493
29.8707
29.9013
29.9994
30.0576
29.8798
29.5132
28.7669
29.4194
29.9774
30.7472
31.1259
31.3125
31.2416
31.1275
31.0959
31.077
31.099
31.1314
31.2436
31.3108
31.1265
30.7553
29.9864
30.6714
31.27
32.0602
32.4411
32.6372
32.5559
32.4277
32.3933
32.374
32.3964
32.4315
32.5578
32.6351
32.4419
32.0683
31.2791
32.0062
32.6379
33.447
33.8281
34.0333
33.9429
33.8021
33.7633
33.7435
33.7664
33.8059
33.9445
34.031
33.8288
33.4551
32.6471
33.4263
34.0832
34.9109
35.2899
35.5034
35.4052
35.2538
35.2097
35.1894
35.2127
35.2577
35.4065
35.5008
35.2906
34.9189
34.0924
34.935
35.6085
36.4555
36.8289
37.0497
36.9445
36.7848
36.7351
36.7147
36.7381
36.7886
36.9455
37.0469
36.8294
36.4634
35.6175
36.5362
37.2165
38.0834
38.4478
38.6752
38.5635
38.3974
38.3425
38.3221
38.3453
38.4011
38.5642
38.672
38.4481
38.0913
37.2253
38.2349
38.9103
39.7981
40.1514
40.385
40.2669
40.0957
40.036
40.0158
40.0388
40.0993
40.2673
40.3814
40.1514
39.8059
38.9187
40.0371
40.6985
41.6047
41.9452
42.1846
42.0602
41.8849
41.821
41.801
41.8237
41.8885
42.0603
42.1807
41.9451
41.6125
40.7068
41.9486
42.5908
43.5093
43.8367
44.0837
43.9496
43.7711
43.7036
43.684
43.7063
43.7745
43.9495
44.0795
43.8365
43.5171
42.5991
43.975
44.5973
45.5189
45.8379
46.0944
45.9464
45.7623
45.6908
45.6722
45.6935
45.7657
45.9462
46.0899
45.8378
45.5268
44.6055
46.1214
46.7263
47.6465
47.9603
48.2255
48.064
47.8718
47.7949
47.7785
47.7977
47.8752
48.0636
48.2208
47.9602
47.6547
46.7342
48.3933
48.9837
49.9071
50.2106
50.4827
50.311
50.1132
50.0321
50.0179
50.0349
50.1166
50.3106
50.4779
50.2105
49.9156
48.9912
50.7967
51.3739
52.3096
52.5952
52.8724
52.6949
52.4949
52.4127
52.4009
52.4157
52.4984
52.6944
52.8675
52.5952
52.3183
51.381
53.3384
53.9047
54.8612
55.1222
55.4026
55.2229
55.0243
54.9443
54.9348
54.9473
55.0279
55.2226
55.3978
55.1221
54.87
53.9117
56.0264
56.591
57.5688
57.8005
58.0826
57.9035
57.7087
57.6333
57.6264
57.6364
57.7125
57.9033
58.078
57.8005
57.5776
56.5982
58.8691
59.4466
60.44
60.64
60.9224
60.7456
60.5564
60.487
60.4828
60.4903
60.5604
60.7458
60.918
60.6402
60.4488
59.4542
61.8838
62.4822
63.483
63.6506
63.9321
63.7589
63.5763
63.5137
63.5122
63.5171
63.5806
63.7594
63.9281
63.6511
63.4918
62.4905
65.0934
65.7109
66.7062
66.8423
67.1218
66.9528
66.7776
66.7219
66.7232
66.7255
66.7823
66.9539
67.1183
66.8432
66.715
65.7211
68.5105
69.1412
70.1182
70.2245
70.501
70.337
70.1695
70.1206
70.1247
70.1244
70.1746
70.3386
70.4982
70.2258
70.1271
69.1531
72.1388
72.7771
73.7274
73.8062
74.079
73.9204
73.761
73.7186
73.7255
73.7227
73.7666
73.9229
74.077
73.8082
73.7365
72.7902
75.9799
76.6239
77.5423
77.5964
77.8646
77.7122
77.561
77.525
77.5346
77.5294
77.5672
77.7155
77.8636
77.5992
77.5518
76.638
80.0362
80.6878
81.5713
81.6036
81.8663
81.7209
81.5781
81.5484
81.5607
81.5532
81.5852
81.7254
81.8666
81.6073
81.5812
80.7029
84.3218
84.9762
85.8224
85.836
86.0923
85.9551
85.8209
85.7974
85.8121
85.8026
85.8289
85.9608
86.094
85.8408
85.8328
84.9919
88.865
89.508
90.3035
90.3016
90.5502
90.4225
90.2972
90.2801
90.297
90.2858
90.3062
90.4297
90.5534
90.3075
90.3145
89.5239
93.687
94.3141
95.0444
95.027
95.2657
95.1502
95.0365
95.0273
95.046
95.0336
95.0465
95.1587
95.2705
95.0339
95.0556
94.3296
98.7979
99.4116
100.077
100.043
100.272
100.169
100.068
100.068
100.088
100.075
100.079
100.179
100.278
100.051
100.089
99.4266
104.209
104.805
105.411
105.363
105.581
105.492
105.402
105.411
105.432
105.419
105.414
105.503
105.589
105.371
105.422
104.819
109.931
110.503
111.052
110.992
111.201
111.125
111.047
111.065
111.087
111.073
111.06
111.138
111.211
111.002
111.064
110.516
115.98
116.518
117.022
116.943
117.151
117.079
117.012
117.041
117.063
117.049
117.027
117.094
117.163
116.955
117.035
116.531
122.374
122.87
123.333
123.237
123.444
123.377
123.322
123.356
123.382
123.366
123.338
123.394
123.458
123.251
123.347
122.883
129.133
129.583
130.005
129.895
130.098
130.038
129.997
130.038
130.066
130.048
130.014
130.058
130.114
129.911
130.019
129.596
136.284
136.687
137.065
136.947
137.143
137.094
137.066
137.114
137.145
137.124
137.086
137.116
137.162
136.965
137.081
136.702
143.87
144.225
144.555
144.42
144.611
144.569
144.553
144.603
144.642
144.614
144.574
144.594
144.633
144.44
144.571
144.239
151.934
152.239
152.514
152.338
152.525
152.488
152.48
152.534
152.581
152.546
152.503
152.515
152.55
152.36
152.531
152.253
160.531
160.781
160.983
160.752
160.928
160.901
160.905
160.965
161.019
160.978
160.93
160.931
160.956
160.775
161
160.795
169.73
169.914
170.009
169.731
169.892
169.88
169.899
169.965
170.025
169.979
169.926
169.913
169.922
169.757
170.027
169.929
179.61
179.711
179.678
179.361
179.502
179.51
179.546
179.62
179.683
179.634
179.575
179.544
179.535
179.388
179.697
179.724
190.27
190.256
190.091
189.742
189.859
189.891
189.947
190.028
190.094
190.044
189.977
189.927
189.895
189.771
190.111
190.268
201.828
201.67
201.369
200.996
201.087
201.144
201.223
201.312
201.38
201.328
201.254
201.183
201.125
201.027
201.389
201.68
214.425
214.097
213.659
213.27
213.333
213.419
213.521
213.617
213.686
213.634
213.553
213.46
213.374
213.303
213.679
214.106
228.234
227.715
227.137
226.743
226.777
226.893
227.019
227.123
227.191
227.14
227.053
226.936
226.821
226.778
227.158
227.721
243.453
242.723
242.009
241.622
241.63
241.776
241.926
242.036
242.104
242.054
241.961
241.822
241.678
241.659
242.031
242.728
260.317
259.364
258.52
258.156
258.144
258.318
258.49
258.604
258.67
258.623
258.527
258.366
258.196
258.197
258.544
259.367
279.121
277.94
276.981
276.659
276.638
276.834
277.027
277.14
277.205
277.16
277.065
276.885
276.694
276.704
277.007
277.94
300.251
298.844
297.793
297.54
297.484
297.721
297.944
298.051
298.115
298.072
297.984
297.775
297.544
297.59
297.823
298.843
324.215
322.597
321.49
321.293
321.177
321.462
321.727
321.854
321.915
321.875
321.77
321.52
321.241
321.346
321.526
322.595
351.704
349.906
348.786
348.597
348.431
348.761
349.062
349.214
349.269
349.237
349.107
348.823
348.5
348.653
348.824
349.904
383.69
381.767
380.63
380.457
380.253
380.622
380.952
381.126
381.175
381.15
381
380.688
380.328
380.517
380.668
381.765
421.587
419.628
418.483
418.346
418.123
418.518
418.867
419.056
419.102
419.082
418.918
418.589
418.202
418.41
418.52
419.628
467.518
465.611
464.467
464.38
464.157
464.569
464.924
465.125
465.166
465.151
464.977
464.643
464.24
464.448
464.505
465.615
524.566
522.798
521.661
521.63
521.425
521.843
522.193
522.4
522.438
522.428
522.247
521.919
521.511
521.701
521.701
522.807
597.413
595.891
594.86
594.889
594.733
595.136
595.458
595.662
595.698
595.69
595.513
595.213
594.82
594.961
594.902
595.9
693.722
692.637
691.879
691.967
691.91
692.263
692.519
692.701
692.736
692.728
692.573
692.337
691.991
692.035
691.922
692.649
826.172
825.829
825.573
825.71
825.818
826.075
826.213
826.346
826.382
826.37
826.261
826.139
825.887
825.771
825.614
825.848
1015.85
1016.66
1017.17
1017.34
1017.69
1017.8
1017.75
1017.8
1017.84
1017.82
1017.79
1017.84
1017.74
1017.39
1017.21
1016.69
1298.26
1300.62
1302.15
1302.36
1303.03
1302.92
1302.64
1302.57
1302.62
1302.59
1302.67
1302.95
1303.05
1302.38
1302.19
1300.66
1735.17
1739.45
1742.23
1742.46
1743.52
1743.17
1742.59
1742.39
1742.45
1742.39
1742.6
1743.16
1743.5
1742.46
1742.27
1739.51
2442.04
2448.55
2452.78
2453.04
2454.56
2453.93
2453.02
2452.66
2452.73
2452.65
2453.01
2453.9
2454.51
2453.01
2452.81
2448.63
3657.6
3666.73
3672.66
3672.97