-0.0075 	0 	0 	0
-0.0075 	-7.94439e-37 	-2.64025e-36 	1.8548e-31
-0.00745622 	-6.52582e-08 	-2.1688e-07 	0.015236
-0.00745622 	-6.52582e-08 	-2.1688e-07 	0.015236
-0.00741165 	-5.54611e-07 	-7.25072e-07 	0.0296595
-0.00741165 	-5.54611e-07 	-7.25072e-07 	0.0296595
-0.00736628 	-1.13168e-06 	-1.59733e-06 	0.0433752
-0.00736628 	-1.13168e-06 	-1.59733e-06 	0.0433752
-0.0073201 	-1.6122e-06 	-2.83581e-06 	0.0564113
-0.0073201 	-1.6122e-06 	-2.83581e-06 	0.0564113
-0.00727309 	-2.00556e-06 	-4.47162e-06 	0.0687917
-0.00727309 	-2.00556e-06 	-4.47162e-06 	0.0687917
-0.00722524 	-2.34445e-06 	-6.51032e-06 	0.0805374
-0.00722524 	-2.34445e-06 	-6.51032e-06 	0.0805374
-0.00717653 	-2.63869e-06 	-8.96655e-06 	0.0916583
-0.00717653 	-2.63869e-06 	-8.96655e-06 	0.0916583
-0.00712695 	-2.8932e-06 	-1.18587e-05 	0.102143
-0.00712695 	-2.8932e-06 	-1.18587e-05 	0.102143
-0.00707647 	-3.11129e-06 	-1.52195e-05 	0.111964
-0.00707647 	-3.11129e-06 	-1.52195e-05 	0.111964
-0.0070251 	-3.29464e-06 	-1.91023e-05 	0.121093
-0.0070251 	-3.29464e-06 	-1.91023e-05 	0.121093
-0.0069728 	-3.44354e-06 	-2.35758e-05 	0.129525
-0.0069728 	-3.44354e-06 	-2.35758e-05 	0.129525
-0.00691956 	-3.55762e-06 	-2.87112e-05 	0.137278
-0.00691956 	-3.55762e-06 	-2.87112e-05 	0.137278
-0.00686537 	-3.63657e-06 	-3.45718e-05 	0.14439
-0.00686537 	-3.63657e-06 	-3.45718e-05 	0.14439
-0.00681021 	-3.68096e-06 	-4.12211e-05 	0.150918
-0.00681021 	-3.68096e-06 	-4.12211e-05 	0.150918
-0.00675406 	-3.69214e-06 	-4.87272e-05 	0.156921
-0.00675406 	-3.69214e-06 	-4.87272e-05 	0.156921
-0.0066969 	-3.67171e-06 	-5.71522e-05 	0.162454
-0.0066969 	-3.67171e-06 	-5.71522e-05 	0.162454
-0.00663871 	-3.62161e-06 	-6.65393e-05 	0.167564
-0.00663871 	-3.62161e-06 	-6.65393e-05 	0.167564
-0.00657949 	-3.54386e-06 	-7.68929e-05 	0.172293
-0.00657949 	-3.54386e-06 	-7.68929e-05 	0.172293
-0.0065192 	-3.44051e-06 	-8.81795e-05 	0.176682
-0.0065192 	-3.44051e-06 	-8.81795e-05 	0.176682
-0.00645783 	-3.31358e-06 	-0.000100351 	0.180773
-0.00645783 	-3.31358e-06 	-0.000100351 	0.180773
-0.00639535 	-3.16501e-06 	-0.000113356 	0.184607
-0.00639535 	-3.16501e-06 	-0.000113356 	0.184607
-0.00633176 	-2.99675e-06 	-0.000127142 	0.188213
-0.00633176 	-2.99675e-06 	-0.000127142 	0.188213
-0.00626703 	-2.81071e-06 	-0.000141655 	0.19162
-0.00626703 	-2.81071e-06 	-0.000141655 	0.19162
-0.00620114 	-2.60856e-06 	-0.000156838 	0.194851
-0.00620114 	-2.60856e-06 	-0.000156838 	0.194851
-0.00613406 	-2.39177e-06 	-0.000172633 	0.197926
-0.00613406 	-2.39177e-06 	-0.000172633 	0.197926
-0.00606579 	-2.16147e-06 	-0.00018898 	0.200863
-0.00606579 	-2.16147e-06 	-0.00018898 	0.200863
-0.00599629 	-1.91843e-06 	-0.000205813 	0.203678
-0.00599629 	-1.91843e-06 	-0.000205813 	0.203678
-0.00592554 	-1.66328e-06 	-0.000223063 	0.206388
-0.00592554 	-1.66328e-06 	-0.000223063 	0.206388
-0.00585352 	-1.39685e-06 	-0.000240658 	0.209006
-0.00585352 	-1.39685e-06 	-0.000240658 	0.209006
-0.00578022 	-1.12012e-06 	-0.000258506 	0.211546
-0.00578022 	-1.12012e-06 	-0.000258506 	0.211546
-0.00570559 	-8.34013e-07 	-0.000276512 	0.214017
-0.00570559 	-8.34013e-07 	-0.000276512 	0.214017
-0.00562963 	-5.39186e-07 	-0.000294576 	0.216426
-0.00562963 	-5.39186e-07 	-0.000294576 	0.216426
-0.00555231 	-2.3611e-07 	-0.000312598 	0.218782
-0.00555231 	-2.3611e-07 	-0.000312598 	0.218782
-0.0054736 	7.48607e-08 	-0.000330475 	0.221089
-0.0054736 	7.48607e-08 	-0.000330475 	0.221089
-0.00539348 	3.93454e-07 	-0.000348105 	0.223352
-0.00539348 	3.93454e-07 	-0.000348105 	0.223352
-0.00531193 	7.1947e-07 	-0.000365385 	0.225575
-0.00531193 	7.1947e-07 	-0.000365385 	0.225575
-0.00522891 	1.05277e-06 	-0.000382211 	0.227761
-0.00522891 	1.05277e-06 	-0.000382211 	0.227761
-0.0051444 	1.39328e-06 	-0.000398484 	0.229911
-0.0051444 	1.39328e-06 	-0.000398484 	0.229911
-0.00505838 	1.74098e-06 	-0.000414108 	0.232028
-0.00505838 	1.74098e-06 	-0.000414108 	0.232028
-0.00497081 	2.09589e-06 	-0.000428992 	0.234112
-0.00497081 	2.09589e-06 	-0.000428992 	0.234112
-0.00488168 	2.45813e-06 	-0.000443051 	0.236162
-0.00488168 	2.45813e-06 	-0.000443051 	0.236162
-0.00479094 	2.8279e-06 	-0.000456202 	0.238178
-0.00479094 	2.8279e-06 	-0.000456202 	0.238178
-0.00469858 	3.20555e-06 	-0.000468368 	0.240159
-0.00469858 	3.20555e-06 	-0.000468368 	0.240159
-0.00460456 	3.59165e-06 	-0.00047948 	0.242103
-0.00460456 	3.59165e-06 	-0.00047948 	0.242103
-0.00450886 	3.9869e-06 	-0.000489488 	0.244009
-0.00450886 	3.9869e-06 	-0.000489488 	0.244009
-0.00441144 	4.39204e-06 	-0.000498375 	0.245875
-0.00441144 	4.39204e-06 	-0.000498375 	0.245875
-0.00431227 	4.80768e-06 	-0.000506156 	0.247698
-0.00431227 	4.80768e-06 	-0.000506156 	0.247698
-0.00421133 	5.23433e-06 	-0.000512875 	0.249478
-0.00421133 	5.23433e-06 	-0.000512875 	0.249478
-0.00410857 	5.67275e-06 	-0.000518599 	0.251211
-0.00410857 	5.67275e-06 	-0.000518599 	0.251211
-0.00400397 	6.12461e-06 	-0.000523409 	0.252896
-0.00400397 	6.12461e-06 	-0.000523409 	0.252896
-0.0038975 	6.59217e-06 	-0.0005274 	0.254533
-0.0038975 	6.59217e-06 	-0.0005274 	0.254533
-0.00378912 	7.07688e-06 	-0.000530659 	0.256123
-0.00378912 	7.07688e-06 	-0.000530659 	0.256123
-0.00367879 	7.5785e-06 	-0.000533257 	0.257669
-0.00367879 	7.5785e-06 	-0.000533257 	0.257669
-0.00356649 	8.09578e-06 	-0.000535254 	0.25917
-0.00356649 	8.09578e-06 	-0.000535254 	0.25917
-0.00345217 	8.6275e-06 	-0.000536709 	0.260626
-0.00345217 	8.6275e-06 	-0.000536709 	0.260626
-0.0033358 	9.17276e-06 	-0.000537681 	0.262033
-0.0033358 	9.17276e-06 	-0.000537681 	0.262033
-0.00321735 	9.73057e-06 	-0.000538238 	0.263389
-0.00321735 	9.73057e-06 	-0.000538238 	0.263389
-0.00309677 	1.02996e-05 	-0.00053845 	0.264692
-0.00309677 	1.02996e-05 	-0.00053845 	0.264692
-0.00297403 	1.08782e-05 	-0.000538392 	0.265939
-0.00297403 	1.08782e-05 	-0.000538392 	0.265939
-0.00284909 	1.14641e-05 	-0.000538141 	0.267128
-0.00284909 	1.14641e-05 	-0.000538141 	0.267128
-0.0027219 	1.20551e-05 	-0.000537778 	0.268256
-0.0027219 	1.20551e-05 	-0.000537778 	0.268256
-0.00259244 	1.26481e-05 	-0.000537379 	0.26932
-0.00259244 	1.26481e-05 	-0.000537379 	0.26932
-0.00246065 	1.32402e-05 	-0.000537015 	0.270318
-0.00246065 	1.32402e-05 	-0.000537015 	0.270318
-0.00232651 	1.38279e-05 	-0.000536749 	0.271248
-0.00232651 	1.38279e-05 	-0.000536749 	0.271248
-0.00218995 	1.44074e-05 	-0.000536634 	0.272108
-0.00218995 	1.44074e-05 	-0.000536634 	0.272108
-0.00205095 	1.49744e-05 	-0.000536711 	0.272895
-0.00205095 	1.49744e-05 	-0.000536711 	0.272895
-0.00190946 	1.55245e-05 	-0.000537006 	0.273609
-0.00190946 	1.55245e-05 	-0.000537006 	0.273609
-0.00176543 	1.6053e-05 	-0.000537528 	0.274248
-0.00176543 	1.6053e-05 	-0.000537528 	0.274248
-0.00161881 	1.65542e-05 	-0.000538271 	0.274812
-0.00161881 	1.65542e-05 	-0.000538271 	0.274812
-0.00146957 	1.70215e-05 	-0.000539205 	0.2753
-0.00146957 	1.70215e-05 	-0.000539205 	0.2753
-0.00131765 	1.74475e-05 	-0.000540287 	0.275713
-0.00131765 	1.74475e-05 	-0.000540287 	0.275713
-0.001163 	1.78245e-05 	-0.000541462 	0.276051
-0.001163 	1.78245e-05 	-0.000541462 	0.276051
-0.00100559 	1.81439e-05 	-0.000542674 	0.276313
-0.00100559 	1.81439e-05 	-0.000542674 	0.276313
-0.000845345 	1.83961e-05 	-0.000543821 	0.2765
-0.000845345 	1.83961e-05 	-0.000543821 	0.2765
-0.000682232 	1.85707e-05 	-0.000544874 	0.276609
-0.000682232 	1.85707e-05 	-0.000544874 	0.276609
-0.000516194 	1.86559e-05 	-0.000545826 	0.276639
-0.000516194 	1.86559e-05 	-0.000545826 	0.276639
-0.000347178 	1.86397e-05 	-0.000546556 	0.276589
-0.000347178 	1.86397e-05 	-0.000546556 	0.276589
-0.000175132 	1.85066e-05 	-0.000547132 	0.276455
-0.000175132 	1.85066e-05 	-0.000547132 	0.276455
0 	1.82423e-05 	-0.00054743 	0.276236
0 	1.82423e-05 	-0.00054743 	0.276236
0 	1.82423e-05 	-0.00054743 	0.276236
0 	1.82423e-05 	-0.00054743 	0.276236
0.000175132 	1.78475e-05 	-0.000547274 	0.275933
0.000175132 	2.05077e-05 	-0.000454307 	0.272576
0.000347178 	1.73351e-05 	-0.000546772 	0.275553
0.000347178 	2.14622e-05 	-0.000455914 	0.272265
0.000516194 	1.6724e-05 	-0.000545815 	0.275102
0.000516194 	2.22238e-05 	-0.000457119 	0.271875
0.000682232 	1.60331e-05 	-0.000544435 	0.274582
0.000682232 	2.28108e-05 	-0.000457951 	0.271411
0.000845345 	1.52758e-05 	-0.000542751 	0.273999
0.000845345 	2.32392e-05 	-0.000458442 	0.270878
0.00100559 	1.44648e-05 	-0.000540726 	0.273353
0.00100559 	2.35262e-05 	-0.000458569 	0.270279
0.001163 	1.3612e-05 	-0.000538376 	0.272649
0.001163 	2.36879e-05 	-0.000458335 	0.269616
0.00131765 	1.27278e-05 	-0.000535718 	0.271888
0.00131765 	2.37391e-05 	-0.000457746 	0.268895
0.00146957 	1.18217e-05 	-0.000532766 	0.271072
0.00146957 	2.36931e-05 	-0.000456812 	0.268115
0.00161881 	1.09017e-05 	-0.000529532 	0.270204
0.00161881 	2.35618e-05 	-0.000455539 	0.267281
0.00176543 	9.97488e-06 	-0.000526029 	0.269284
0.00176543 	2.33557e-05 	-0.000453937 	0.266394
0.00190946 	9.04718e-06 	-0.000522267 	0.268315
0.00190946 	2.30841e-05 	-0.000452013 	0.265455
0.00205095 	8.12362e-06 	-0.000518254 	0.267298
0.00205095 	2.27551e-05 	-0.000449772 	0.264466
0.00218995 	7.2084e-06 	-0.000513995 	0.266234
0.00218995 	2.23762e-05 	-0.000447217 	0.263429
0.00232651 	6.30498e-06 	-0.000509494 	0.265123
0.00232651 	2.19536e-05 	-0.00044435 	0.262343
0.00246065 	5.41622e-06 	-0.000504752 	0.263967
0.00246065 	2.1493e-05 	-0.000441172 	0.261212
0.00259244 	4.54447e-06 	-0.000499768 	0.262766
0.00259244 	2.09992e-05 	-0.00043768 	0.260034
0.0027219 	3.69164e-06 	-0.00049454 	0.261521
0.0027219 	2.04765e-05 	-0.000433871 	0.258811
0.00284909 	2.85929e-06 	-0.000489064 	0.260231
0.00284909 	1.99284e-05 	-0.000429738 	0.257543
0.00297403 	2.04873e-06 	-0.000483335 	0.258898
0.00297403 	1.9358e-05 	-0.000425271 	0.256231
0.00309677 	1.26098e-06 	-0.000477345 	0.25752
0.00309677 	1.8768e-05 	-0.000420459 	0.254874
0.00321735 	4.96823e-07 	-0.000471087 	0.256098
0.00321735 	1.81607e-05 	-0.000415289 	0.253472
0.0033358 	-2.43179e-07 	-0.000464552 	0.254631
0.0033358 	1.7538e-05 	-0.000409748 	0.252025
0.00345217 	1.69018e-05 	-0.000403828 	0.250532
0.00345217 	-9.58635e-07 	-0.000457734 	0.253118
0.00356649 	-1.64926e-06 	-0.000450627 	0.25156
0.00356649 	1.62542e-05 	-0.00039753 	0.248992
0.00367879 	-2.31482e-06 	-0.000443216 	0.249954
0.00367879 	1.55986e-05 	-0.000390848 	0.247404
0.00378912 	-2.95503e-06 	-0.000435484 	0.248299
0.00378912 	1.49386e-05 	-0.000383768 	0.24577
0.0038975 	-3.5697e-06 	-0.000427405 	0.246595
0.0038975 	1.42766e-05 	-0.000376264 	0.244089
0.00400397 	-4.15899e-06 	-0.000418935 	0.244837
0.00400397 	1.36123e-05 	-0.000368273 	0.242353
0.00410857 	1.29446e-05 	-0.000359689 	0.240551
0.00410857 	-4.72313e-06 	-0.000410007 	0.24302
0.00421133 	-5.26211e-06 	-0.000400545 	0.241137
0.00421133 	1.22733e-05 	-0.000350413 	0.23867
0.00431227 	-5.77653e-06 	-0.000390467 	0.239183
0.00431227 	1.15974e-05 	-0.000340372 	0.236706
0.00441144 	-6.26775e-06 	-0.000379708 	0.23715
0.00441144 	1.09157e-05 	-0.000329525 	0.234654
0.00450886 	-6.73716e-06 	-0.000368238 	0.235031
0.00450886 	1.02265e-05 	-0.000317878 	0.23251
0.00460456 	-7.18565e-06 	-0.000356056 	0.232822
0.00460456 	9.52869e-06 	-0.000305472 	0.230271
0.00469858 	-7.61357e-06 	-0.000343182 	0.230518
0.00469858 	8.82086e-06 	-0.00029236 	0.227931
0.00479094 	-8.02095e-06 	-0.00032964 	0.228113
0.00479094 	8.10185e-06 	-0.000278598 	0.225488
0.00488168 	-8.40774e-06 	-0.000315459 	0.225604
0.00488168 	7.37043e-06 	-0.000264246 	0.222937
0.00497081 	-8.77383e-06 	-0.000300679 	0.222986
0.00497081 	6.62539e-06 	-0.000249369 	0.220273
0.00505838 	-9.1191e-06 	-0.000285351 	0.220254
0.00505838 	5.86552e-06 	-0.000234043 	0.217494
0.0051444 	-9.44331e-06 	-0.000269539 	0.217405
0.0051444 	5.08982e-06 	-0.000218355 	0.214595
0.00522891 	-9.74616e-06 	-0.000253327 	0.214436
0.00522891 	4.29753e-06 	-0.00020241 	0.211573
0.00531193 	-1.00272e-05 	-0.000236811 	0.211343
0.00531193 	3.48825e-06 	-0.000186328 	0.208426
0.00539348 	-1.0286e-05 	-0.000220105 	0.208122
0.00539348 	2.66198e-06 	-0.000170242 	0.205153
0.0054736 	-1.0522e-05 	-0.000203333 	0.204772
0.0054736 	1.81908e-06 	-0.000154296 	0.201751
0.00555231 	-1.07343e-05 	-0.000186628 	0.201287
0.00555231 	9.6029e-07 	-0.000138636 	0.198219
0.00562963 	-1.09222e-05 	-0.000170124 	0.197665
0.00562963 	8.66281e-08 	-0.000123405 	0.194554
0.00570559 	-1.10849e-05 	-0.000153954 	0.193902
0.00570559 	-8.00547e-07 	-0.000108738 	0.190753
0.00578022 	-1.12213e-05 	-0.000138243 	0.189991
0.00578022 	-1.69955e-06 	-9.47558e-05 	0.186812
0.00585352 	-1.13303e-05 	-0.000123108 	0.185928
0.00585352 	-2.60831e-06 	-8.15629e-05 	0.182728
0.00592554 	-1.14108e-05 	-0.000108652 	0.181706
0.00592554 	-3.52436e-06 	-6.92445e-05 	0.178493
0.00599629 	-1.14615e-05 	-9.49642e-05 	0.177318
0.00599629 	-4.4447e-06 	-5.78648e-05 	0.174102
0.00606579 	-1.14808e-05 	-8.2119e-05 	0.172754
0.00606579 	-5.36577e-06 	-4.74681e-05 	0.169546
0.00613406 	-1.1467e-05 	-7.01787e-05 	0.168002
0.00613406 	-6.28345e-06 	-3.80797e-05 	0.164813
0.00620114 	-7.19315e-06 	-2.9708e-05 	0.159887
0.00620114 	-1.14185e-05 	-5.91919e-05 	0.163049
0.00626703 	-1.13334e-05 	-4.91953e-05 	0.157874
0.00626703 	-8.08936e-06 	-2.23504e-05 	0.15475
0.00633176 	-8.96505e-06 	-1.59948e-05 	0.149387
0.00633176 	-1.12103e-05 	-4.0218e-05 	0.152462
0.00639535 	-9.8115e-06 	-1.06125e-05 	0.143783
0.00639535 	-1.10474e-05 	-3.22718e-05 	0.146799
0.00645783 	-1.0843e-05 	-2.53476e-05 	0.140867
0.00645783 	-1.06183e-05 	-6.15805e-06 	0.137922
0.0065192 	-1.05951e-05 	-1.94204e-05 	0.134649
0.0065192 	-1.13734e-05 	-2.57304e-06 	0.131785
0.00657949 	-1.0302e-05 	-1.4452e-05 	0.12813
0.00657949 	-1.20624e-05 	2.10186e-07 	0.125356
0.00663871 	-9.96179e-06 	-1.03909e-05 	0.121291
0.00663871 	-1.26687e-05 	2.26597e-06 	0.118617
0.0066969 	-9.57225e-06 	-7.15869e-06 	0.114116
0.0066969 	-1.31736e-05 	3.67967e-06 	0.111548
0.00675406 	-1.3557e-05 	4.5413e-06 	0.104112
0.00675406 	-9.13073e-06 	-4.66233e-06 	0.106571
0.00681021 	-1.37969e-05 	4.94055e-06 	0.0962851
0.00681021 	-8.63581e-06 	-2.80189e-06 	0.0986234
0.00686537 	-1.38691e-05 	4.96676e-06 	0.0880817
0.00686537 	-8.08996e-06 	-1.48171e-06 	0.0902827
0.00691956 	-1.37499e-05 	4.70764e-06 	0.079569
0.00691956 	-7.49959e-06 	-6.17141e-07 	0.0816129
0.0069728 	-1.34213e-05 	4.25102e-06 	0.0708645
0.0069728 	-6.87398e-06 	-1.13932e-07 	0.0727313
0.0070251 	-6.22507e-06 	1.25485e-07 	0.063806
0.0070251 	-1.28751e-05 	3.67948e-06 	0.0621328
0.00707647 	-5.56617e-06 	1.93953e-07 	0.0550366
0.00707647 	-1.21176e-05 	3.06469e-06 	0.0535667
0.00712695 	-4.90943e-06 	1.71074e-07 	0.0466196
0.00712695 	-1.11684e-05 	2.46306e-06 	0.0453537
0.00717653 	-4.26332e-06 	1.15351e-07 	0.0387105
0.00717653 	-1.00562e-05 	1.9124e-06 	0.0376412
0.00722524 	-3.63107e-06 	6.24804e-08 	0.0314014
0.00722524 	-8.81096e-06 	1.43336e-06 	0.0305163
0.00727309 	-7.45845e-06 	1.03259e-06 	0.0240096
0.00727309 	-3.00982e-06 	2.84555e-08 	0.0247242
0.0073201 	-6.01589e-06 	7.06861e-07 	0.0181134
0.0073201 	-2.38821e-06 	1.44593e-08 	0.0186707
0.00736628 	-4.48804e-06 	4.52613e-07 	0.0128005
0.00736628 	-1.73859e-06 	1.80729e-08 	0.013212
0.00741165 	-1.05926e-06 	1.76442e-08 	0.00831107
0.00741165 	-2.91297e-06 	2.46411e-07 	0.00803519
0.00745622 	-4.42593e-07 	1.40262e-08 	0.0039268
0.00745622 	-1.39492e-06 	1.00392e-07 	0.00377707
0.0075 	0 	0 	0
0.0075 	0 	0 	0
