-0.0075 	0 	0 	0
-0.00745622 	-0.000314508 	-8.13759e-06 	0.0143243
-0.00741165 	-0.000153628 	-1.57385e-05 	0.0292323
-0.00736628 	0.000139277 	-2.3843e-05 	0.0434691
-0.0073201 	0.000351549 	-3.00071e-05 	0.0566102
-0.00727309 	0.000489785 	-3.63462e-05 	0.0687891
-0.00722524 	0.000603822 	-4.27333e-05 	0.0801938
-0.00717653 	0.000715367 	-4.93654e-05 	0.0909361
-0.00712695 	0.000835093 	-5.62966e-05 	0.101078
-0.00707647 	0.000968426 	-6.34351e-05 	0.110649
-0.0070251 	0.00111716 	-7.06595e-05 	0.11966
-0.0069728 	0.00128023 	-7.78229e-05 	0.128119
-0.00691956 	0.00145481 	-8.47843e-05 	0.136036
-0.00686537 	0.00163751 	-9.13735e-05 	0.143437
-0.00681021 	0.00182492 	-9.75664e-05 	0.150353
-0.00675406 	0.00201348 	-0.000103546 	0.156816
-0.0066969 	0.0021997 	-0.000109314 	0.162856
-0.00663871 	0.00238068 	-0.000114666 	0.168504
-0.00657949 	0.0025546 	-0.000119507 	0.17379
-0.0065192 	0.0027206 	-0.000123947 	0.17874
-0.00645783 	0.00287817 	-0.000128167 	0.183382
-0.00639535 	0.00302664 	-0.000132147 	0.187739
-0.00633176 	0.00316523 	-0.000135776 	0.191837
-0.00626703 	0.00329331 	-0.000139053 	0.195699
-0.00620114 	0.00341035 	-0.000142014 	0.199349
-0.00613406 	0.00351582 	-0.000144696 	0.202806
-0.00606579 	0.00360908 	-0.000147026 	0.20609
-0.00599629 	0.00368947 	-0.000148742 	0.209216
-0.00592554 	0.00375679 	-0.000149693 	0.212201
-0.00585352 	0.00381162 	-0.00014986 	0.215058
-0.00578022 	0.00385551 	-0.00014926 	0.217802
-0.00570559 	0.00389063 	-0.000147975 	0.220445
-0.00562963 	0.00391858 	-0.000146776 	0.222996
-0.00555231 	0.00393839 	-0.000146446 	0.225457
-0.0054736 	0.00394596 	-0.000146269 	0.227827
-0.00539348 	0.00393699 	-0.000145483 	0.230109
-0.00531193 	0.0039105 	-0.000143775 	0.232313
-0.00522891 	0.00386874 	-0.000141183 	0.23445
-0.0051444 	0.00381439 	-0.00013886 	0.236529
-0.00505838 	0.00374895 	-0.000137742 	0.238555
-0.00497081 	0.00367311 	-0.000137933 	0.24053
-0.00488168 	0.00358715 	-0.00013851 	0.242456
-0.00479094 	0.00349122 	-0.000137477 	0.244331
-0.00469858 	0.00338617 	-0.00013097 	0.246158
-0.00460456 	0.00327357 	-0.000128694 	0.247937
-0.00450886 	0.00313886 	-0.000144304 	0.249657
-0.00441144 	0.00293334 	-0.000160755 	0.251258
-0.00431227 	0.00261386 	-0.000145535 	0.252701
-0.00421133 	0.00224512 	-8.62855e-05 	0.25413
-0.00410857 	0.00206189 	-4.23971e-05 	0.255941
-0.00400397 	0.00219036 	-7.65294e-05 	0.258228
-0.0038975 	0.00240074 	-0.000131669 	0.260434
-0.00378912 	0.00245267 	-0.000138413 	0.262166
-0.00367879 	0.00233083 	-0.000106604 	0.263536
-0.00356649 	0.00212279 	-7.81524e-05 	0.264737
-0.00345217 	0.00190673 	-7.08472e-05 	0.265871
-0.0033358 	0.00169878 	-6.68413e-05 	0.266954
-0.00321735 	0.00149318 	-6.05752e-05 	0.267978
-0.00309677 	0.00128687 	-5.71978e-05 	0.268941
-0.00297403 	0.00107849 	-5.57778e-05 	0.269848
-0.00284909 	0.00086805 	-5.49722e-05 	0.270695
-0.0027219 	0.000655806 	-5.45708e-05 	0.271478
-0.00259244 	0.000441863 	-5.51485e-05 	0.272194
-0.00246065 	0.000226364 	-5.70719e-05 	0.272838
-0.00232651 	9.55011e-06 	-6.04343e-05 	0.273407
-0.00218995 	-0.000208242 	-6.52508e-05 	0.273894
-0.00205095 	-0.000426661 	-7.16064e-05 	0.274296
-0.00190946 	-0.00064547 	-7.9789e-05 	0.274606
-0.00176543 	-0.000864256 	-9.02665e-05 	0.274819
-0.00161881 	-0.0010818 	-0.000103215 	0.274929
-0.00146957 	-0.00129593 	-0.000118091 	0.274933
-0.00131765 	-0.00150422 	-0.000134514 	0.274829
-0.001163 	-0.00170485 	-0.000155155 	0.27462
-0.00100559 	-0.00189685 	-0.000179704 	0.274319
-0.000845345 	-0.00207924 	-0.000191907 	0.273887
-0.000682232 	-0.00224947 	-0.000191712 	0.27312
-0.000516194 	-0.00240451 	-0.000235803 	0.271702
-0.000347178 	-0.00254354 	-0.000355388 	0.269518
-0.000175132 	-0.00266231 	-0.000420491 	0.267651
0 	-0.00274184 	-0.000395476 	0.266921
0.000175132 	-0.0027658 	-0.000408276 	0.266612
0.000347178 	-0.00274468 	-0.000468873 	0.266094
0.000516194 	-0.00269991 	-0.000522127 	0.265296
0.000682232 	-0.00263959 	-0.000557191 	0.26434
0.000845345 	-0.00256206 	-0.000587518 	0.2633
0.00100559 	-0.00246713 	-0.000617113 	0.262207
0.001163 	-0.00235686 	-0.000644993 	0.26108
0.00131765 	-0.00223431 	-0.000671061 	0.259931
0.00146957 	-0.00210243 	-0.000695132 	0.258767
0.00161881 	-0.00196369 	-0.000717367 	0.257594
0.00176543 	-0.00181988 	-0.000738655 	0.256415
0.00190946 	-0.00167247 	-0.000759441 	0.255233
0.00205095 	-0.00152367 	-0.00077945 	0.254053
0.00218995 	-0.00137562 	-0.000797348 	0.252866
0.00232651 	-0.00122906 	-0.000810454 	0.251641
0.00246065 	-0.00108507 	-0.000818743 	0.250353
0.00259244 	-0.000944575 	-0.000824629 	0.249009
0.0027219 	-0.000806745 	-0.000829361 	0.24762
0.00284909 	-0.000670391 	-0.000833151 	0.246193
0.00297403 	-0.000534862 	-0.000835608 	0.244732
0.00309677 	-0.000399821 	-0.000836408 	0.243239
0.00321735 	-0.000265126 	-0.000835679 	0.241715
0.0033358 	-0.000130923 	-0.000833563 	0.240162
0.00345217 	2.67452e-06 	-0.000830108 	0.238583
0.00356649 	0.000135824 	-0.000825377 	0.236973
0.00367879 	0.000268813 	-0.00081939 	0.235327
0.00378912 	0.000401796 	-0.000812007 	0.233641
0.0038975 	0.000534643 	-0.000803068 	0.231913
0.00400397 	0.000666998 	-0.00079246 	0.230142
0.00410857 	0.000798473 	-0.000780144 	0.228324
0.00421133 	0.000928859 	-0.000766607 	0.226459
0.00431227 	0.00105822 	-0.000752731 	0.22454
0.00441144 	0.00118688 	-0.000738702 	0.222564
0.00450886 	0.00131619 	-0.000723203 	0.220531
0.00460456 	0.00145048 	-0.00070097 	0.218442
0.00469858 	0.00159715 	-0.000679115 	0.216297
0.00479094 	0.00173281 	-0.000669112 	0.214013
0.00488168 	0.00176693 	-0.000651738 	0.21132
0.00497081 	0.0016217 	-0.000610305 	0.207907
0.00505838 	0.00136607 	-0.000554469 	0.203842
0.0051444 	0.00128067 	-0.000525536 	0.200082
0.00522891 	0.00148804 	-0.000534274 	0.197259
0.00531193 	0.00177665 	-0.000533342 	0.194801
0.00539348 	0.00197885 	-0.000506253 	0.192108
0.0054736 	0.00208884 	-0.000470314 	0.189068
0.00555231 	0.00215667 	-0.000440774 	0.18579
0.00562963 	0.00221399 	-0.000417948 	0.182358
0.00570559 	0.00226684 	-0.000394893 	0.178784
0.00578022 	0.0023151 	-0.000370353 	0.17506
0.00585352 	0.00235893 	-0.00034539 	0.171177
0.00592554 	0.00239833 	-0.000320469 	0.167126
0.00599629 	0.0024331 	-0.000295862 	0.162897
0.00606579 	0.00246196 	-0.000272032 	0.158475
0.00613406 	0.00247969 	-0.000249199 	0.153834
0.00620114 	0.00247647 	-0.0002268 	0.148931
0.00626703 	0.00244615 	-0.00020469 	0.143731
0.00633176 	0.00239496 	-0.000183619 	0.13824
0.00639535 	0.00233686 	-0.000164645 	0.132505
0.00645783 	0.00227909 	-0.000147805 	0.126562
0.0065192 	0.00221817 	-0.000132113 	0.120404
0.00657949 	0.00214865 	-0.000117441 	0.114003
0.00663871 	0.00206822 	-0.000104127 	0.107336
0.0066969 	0.0019768 	-9.20612e-05 	0.100403
0.00675406 	0.00187602 	-8.1124e-05 	0.093217
0.00681021 	0.00176979 	-7.13118e-05 	0.0858114
0.00686537 	0.00166357 	-6.26474e-05 	0.0782526
0.00691956 	0.00156262 	-5.50203e-05 	0.0706355
0.0069728 	0.00147109 	-4.81374e-05 	0.0630747
0.0070251 	0.00139157 	-4.17795e-05 	0.0556944
0.00707647 	0.00132408 	-3.57338e-05 	0.0486105
0.00712695 	0.00126538 	-2.97544e-05 	0.0419089
0.00717653 	0.00120901 	-2.37039e-05 	0.0356304
0.00722524 	0.00114529 	-1.75528e-05 	0.0297648
0.00727309 	0.00106004 	-1.14528e-05 	0.0242509
0.0073201 	0.000931192 	-5.8599e-06 	0.0189708
0.00736628 	0.000722572 	-1.086e-06 	0.0137505
0.00741165 	0.000426435 	1.21428e-06 	0.00854913
0.00745622 	0.000138596 	1.29902e-06 	0.00376026
0.0075 	0 	0 	0
