/*--------------------------------*- C++ -*----------------------------------*\
| =========                 |                                                 |
| \\      /  F ield         | OpenFOAM: The Open Source CFD Toolbox           |
|  \\    /   O peration     | Version:  v1912                                 |
|   \\  /    A nd           | Website:  www.openfoam.com                      |
|    \\/     M anipulation  |                                                 |
\*---------------------------------------------------------------------------*/
FoamFile
{
    version     2.0;
    format      ascii;
    class       volVectorField;
    location    "8.8";
    object      UMean;
}
// * * * * * * * * * * * * * * * * * * * * * * * * * * * * * * * * * * * * * //

dimensions      [0 1 -1 0 0 0 0];


internalField   nonuniform List<vector> 
34128
(
(7.23556e-07 1.68746e-07 -0.00338278)
(2.69066e-07 1.71247e-07 -0.00336169)
(-1.90248e-07 1.71431e-07 -0.00335074)
(-7.15732e-07 1.71099e-07 -0.00335207)
(-9.03062e-07 1.68987e-07 -0.00336835)
(-6.3904e-07 1.66859e-07 -0.00338423)
(-2.02865e-07 1.66767e-07 -0.00339263)
(1.5331e-07 1.68673e-07 -0.00337925)
(-1.64104e-07 1.69774e-07 -0.00335961)
(-6.14475e-07 1.68362e-07 -0.00336777)
(-4.41823e-07 1.66232e-07 -0.00338923)
(2.09044e-07 1.65965e-07 -0.00339139)
(2.07234e-06 1.4686e-06 -0.010258)
(7.73367e-07 1.50119e-06 -0.0101959)
(-5.55428e-07 1.50743e-06 -0.0101638)
(-2.09454e-06 1.50117e-06 -0.0101677)
(-2.63856e-06 1.47454e-06 -0.0102155)
(-1.88382e-06 1.44802e-06 -0.0102621)
(-6.38663e-07 1.4462e-06 -0.0102868)
(4.10864e-07 1.46721e-06 -0.0102477)
(-4.69199e-07 1.47959e-06 -0.0101902)
(-1.74197e-06 1.46379e-06 -0.0102139)
(-1.24044e-06 1.44016e-06 -0.0102767)
(6.29399e-07 1.43775e-06 -0.010283)
(3.33595e-06 3.84653e-06 -0.0173447)
(1.24829e-06 3.93898e-06 -0.0172428)
(-9.10893e-07 3.95854e-06 -0.0171902)
(-3.43819e-06 3.94016e-06 -0.0171966)
(-4.32282e-06 3.86476e-06 -0.0172749)
(-3.10745e-06 3.79014e-06 -0.0173513)
(-1.10908e-06 3.7841e-06 -0.0173916)
(6.20921e-07 3.84114e-06 -0.0173279)
(-7.55805e-07 3.87526e-06 -0.017234)
(-2.78153e-06 3.83201e-06 -0.0172725)
(-1.96383e-06 3.76749e-06 -0.0173749)
(1.05707e-06 3.76142e-06 -0.0173853)
(4.52196e-06 7.47254e-06 -0.0246265)
(1.69904e-06 7.65575e-06 -0.0244863)
(-1.25477e-06 7.69721e-06 -0.0244141)
(-4.74866e-06 7.66026e-06 -0.0244231)
(-5.9576e-06 7.51082e-06 -0.0245306)
(-4.31002e-06 7.36371e-06 -0.0246355)
(-1.61478e-06 7.35012e-06 -0.0246907)
(7.82104e-07 7.4596e-06 -0.0246038)
(-1.02585e-06 7.52607e-06 -0.0244752)
(-3.73547e-06 7.44249e-06 -0.0245275)
(-2.6133e-06 7.31804e-06 -0.0246676)
(1.49252e-06 7.30735e-06 -0.0246818)
(5.63656e-06 1.22036e-05 -0.0320788)
(2.12981e-06 1.25074e-05 -0.031902)
(-1.58615e-06 1.25798e-05 -0.0318112)
(-6.02882e-06 1.2518e-05 -0.0318226)
(-7.54537e-06 1.227e-05 -0.0319582)
(-5.49217e-06 1.20272e-05 -0.03209)
(-2.15677e-06 1.2002e-05 -0.0321592)
(8.92634e-07 1.21783e-05 -0.0320505)
(-1.28175e-06 1.22872e-05 -0.0318894)
(-4.60638e-06 1.21517e-05 -0.0319544)
(-3.19011e-06 1.19501e-05 -0.0321299)
(1.93662e-06 1.19345e-05 -0.0321478)
(6.68454e-06 1.80744e-05 -0.039672)
(2.54386e-06 1.8528e-05 -0.0394605)
(-1.90504e-06 1.86411e-05 -0.0393522)
(-7.2824e-06 1.85484e-05 -0.0393662)
(-9.08922e-06 1.81775e-05 -0.0395282)
(-6.6549e-06 1.78168e-05 -0.0396851)
(-2.73627e-06 1.7775e-05 -0.0397671)
(9.5034e-07 1.80309e-05 -0.0396386)
(-1.52651e-06 1.8192e-05 -0.0394474)
(-5.39719e-06 1.79939e-05 -0.0395238)
(-3.69553e-06 1.76993e-05 -0.0397321)
(2.39063e-06 1.76792e-05 -0.0397535)
(7.66979e-06 2.50618e-05 -0.0473729)
(2.94377e-06 2.56942e-05 -0.0471289)
(-2.21213e-06 2.58583e-05 -0.0470043)
(-8.51371e-06 2.57288e-05 -0.0470209)
(-1.05927e-05 2.52106e-05 -0.0472077)
(-7.79949e-06 2.47102e-05 -0.0473878)
(-3.35463e-06 2.46461e-05 -0.0474812)
(9.52682e-07 2.49928e-05 -0.0473348)
(-1.76369e-06 2.52161e-05 -0.0471164)
(-6.11117e-06 2.49456e-05 -0.0472029)
(-4.13077e-06 2.45432e-05 -0.047441)
(2.85604e-06 2.45197e-05 -0.0474657)
(8.59538e-06 3.31539e-05 -0.0551465)
(3.3314e-06 3.39942e-05 -0.0548725)
(-2.50882e-06 3.42206e-05 -0.0547328)
(-9.7275e-06 3.4048e-05 -0.0547521)
(-1.20596e-05 3.3358e-05 -0.054962)
(-8.92758e-06 3.26967e-05 -0.055163)
(-4.01336e-06 3.2604e-05 -0.0552663)
(8.96848e-07 3.30513e-05 -0.0551041)
(-1.99744e-06 3.33467e-05 -0.0548615)
(-6.75199e-06 3.29947e-05 -0.0549567)
(-4.49707e-06 3.24707e-05 -0.0552216)
(3.33451e-06 3.24453e-05 -0.0552494)
(9.46374e-06 4.2337e-05 -0.0629575)
(3.70799e-06 4.34143e-05 -0.0626561)
(-2.79707e-06 4.37148e-05 -0.0625023)
(-1.09288e-05 4.34931e-05 -0.0625244)
(-1.34941e-05 4.26064e-05 -0.0627558)
(-1.00411e-05 4.17639e-05 -0.0629755)
(-4.71402e-06 4.16353e-05 -0.0630872)
(7.79918e-07 4.21918e-05 -0.0629113)
(-2.23232e-06 4.25694e-05 -0.0626475)
(-7.3236e-06 4.21274e-05 -0.0627501)
(-4.79561e-06 4.14686e-05 -0.0630388)
(3.82789e-06 4.14438e-05 -0.0630696)
(1.0277e-05 5.25989e-05 -0.0707731)
(4.07427e-06 5.39422e-05 -0.0704468)
(-3.07927e-06 5.43298e-05 -0.07028)
(-1.21225e-05 5.40528e-05 -0.0703051)
(-1.49005e-05 5.2944e-05 -0.0705563)
(-1.11423e-05 5.19004e-05 -0.0707923)
(-5.45821e-06 5.17282e-05 -0.0709111)
(5.99028e-07 5.2401e-05 -0.0707235)
(-2.47311e-06 5.2871e-05 -0.0704416)
(-7.8301e-06 5.23315e-05 -0.0705502)
(-5.02743e-06 5.15255e-05 -0.0708597)
(4.3382e-06 5.15039e-05 -0.0708933)
(1.10373e-05 6.39266e-05 -0.0785645)
(4.4306e-06 6.55654e-05 -0.0782157)
(-3.35797e-06 6.60538e-05 -0.0780369)
(-1.33133e-05 6.57152e-05 -0.0780652)
(-1.62828e-05 6.43586e-05 -0.0783347)
(-1.22337e-05 6.30946e-05 -0.0785849)
(-6.24754e-06 6.28704e-05 -0.0787091)
(3.515e-07 6.36656e-05 -0.0785118)
(-2.72449e-06 6.42382e-05 -0.0782147)
(-8.27533e-06 6.35941e-05 -0.0783283)
(-5.19316e-06 6.26289e-05 -0.0786558)
(4.86773e-06 6.26141e-05 -0.0786921)
(1.17468e-05 7.63034e-05 -0.0863083)
(4.77717e-06 7.82672e-05 -0.0859391)
(-3.63566e-06 7.88716e-05 -0.0857493)
(-1.4505e-05 7.84647e-05 -0.0857808)
(-1.76451e-05 7.68337e-05 -0.0860673)
(-1.33179e-05 7.53307e-05 -0.0863297)
(-7.08357e-06 7.50458e-05 -0.0864581)
(3.48969e-08 7.5968e-05 -0.0862528)
(-2.9908e-06 7.66533e-05 -0.0859431)
(-8.66256e-06 7.58982e-05 -0.0860607)
(-5.29284e-06 7.47626e-05 -0.0864037)
(5.41903e-06 7.47585e-05 -0.0864425)
(1.24081e-05 8.97256e-05 -0.0939879)
(5.11407e-06 9.20437e-05 -0.0936004)
(-3.91474e-06 9.27802e-05 -0.0934004)
(-1.57008e-05 9.22985e-05 -0.0934354)
(-1.89905e-05 9.03659e-05 -0.0937376)
(-1.43975e-05 8.86059e-05 -0.0940103)
(-7.96777e-06 8.82513e-05 -0.0941418)
(-3.52866e-07 8.9304e-05 -0.0939301)
(-3.27586e-06 9.01119e-05 -0.0936102)
(-8.99419e-06 8.92397e-05 -0.093731)
(-5.32552e-06 8.79231e-05 -0.0940871)
(5.99513e-06 8.79344e-05 -0.0941283)
(1.30238e-05 0.000104186 -0.101594)
(5.44165e-06 0.000106889 -0.10119)
(-4.19708e-06 0.000107775 -0.100981)
(-1.69033e-05 0.000107211 -0.101019)
(-2.03224e-05 0.000104949 -0.101336)
(-1.54753e-05 0.000102914 -0.101617)
(-8.90172e-06 0.00010248 -0.101751)
(-8.13663e-07 0.000103665 -0.101534)
(-3.58269e-06 0.000104605 -0.101206)
(-9.27136e-06 0.000103611 -0.101329)
(-5.28921e-06 0.000102103 -0.101697)
(6.59975e-06 0.000102136 -0.10174)
(1.35958e-05 0.000119634 -0.109118)
(5.76006e-06 0.000122752 -0.108699)
(-4.48398e-06 0.000123806 -0.108481)
(-1.8114e-05 0.000123152 -0.108523)
(-2.16432e-05 0.000120531 -0.108854)
(-1.65537e-05 0.000118206 -0.109142)
(-9.88657e-06 0.000117683 -0.109277)
(-1.34923e-06 0.000119001 -0.109057)
(-3.91364e-06 0.00012008 -0.108722)
(-9.49417e-06 0.000118959 -0.108847)
(-5.1811e-06 0.000117253 -0.109224)
(7.2368e-06 0.000117313 -0.109269)
(1.4125e-05 0.000136029 -0.116549)
(6.06889e-06 0.000139592 -0.116117)
(-4.77651e-06 0.000140834 -0.11589)
(-1.93331e-05 0.000140083 -0.115936)
(-2.2954e-05 0.000137073 -0.11628)
(-1.76339e-05 0.000134442 -0.116574)
(-1.09227e-05 0.000133821 -0.116709)
(-1.96097e-06 0.00013527 -0.116486)
(-4.2704e-06 0.000136495 -0.116147)
(-9.66148e-06 0.000135243 -0.116273)
(-4.99739e-06 0.000133332 -0.116658)
(7.9102e-06 0.000133426 -0.116705)
(1.46119e-05 0.000153334 -0.123878)
(6.36758e-06 0.000157371 -0.123434)
(-5.07535e-06 0.000158823 -0.1232)
(-2.05595e-05 0.000157965 -0.12325)
(-2.42549e-05 0.000154536 -0.123605)
(-1.87168e-05 0.000151584 -0.123904)
(-1.20101e-05 0.000150857 -0.124039)
(-2.64988e-06 0.000152431 -0.123815)
(-4.6537e-06 0.000153807 -0.123472)
(-9.77064e-06 0.000152421 -0.123599)
(-4.73307e-06 0.000150301 -0.12399)
(8.62429e-06 0.00015044 -0.124038)
(1.50566e-05 0.000171506 -0.131098)
(6.65548e-06 0.000176047 -0.130643)
(-5.38091e-06 0.000177731 -0.130402)
(-2.17913e-05 0.000176757 -0.130456)
(-2.55451e-05 0.000172878 -0.130822)
(-1.98029e-05 0.000169592 -0.131124)
(-1.31481e-05 0.000168749 -0.13126)
(-3.41657e-06 0.000170444 -0.131034)
(-5.06333e-06 0.000171972 -0.130689)
(-9.81761e-06 0.00017045 -0.130817)
(-4.38201e-06 0.000168119 -0.131212)
(9.38383e-06 0.000168312 -0.131262)
(1.54587e-05 0.000190504 -0.138202)
(6.93179e-06 0.000195576 -0.137738)
(-5.69342e-06 0.000197517 -0.13749)
(-2.30257e-05 0.000196416 -0.137548)
(-2.68236e-05 0.000192054 -0.137924)
(-2.08924e-05 0.000188424 -0.138229)
(-1.43357e-05 0.000187457 -0.138364)
(-4.26125e-06 0.000189262 -0.138138)
(-5.49816e-06 0.000190941 -0.137791)
(-9.79693e-06 0.000189283 -0.137919)
(-3.93699e-06 0.000186743 -0.138319)
(1.01941e-05 0.000187001 -0.13837)
(1.58173e-05 0.000210283 -0.145184)
(7.19563e-06 0.000215916 -0.144712)
(-6.01294e-06 0.000218137 -0.144458)
(-2.42594e-05 0.000216898 -0.14452)
(-2.80888e-05 0.000212022 -0.144905)
(-2.19852e-05 0.000208037 -0.145212)
(-1.55713e-05 0.000206938 -0.145346)
(-5.18361e-06 0.000208841 -0.145121)
(-5.95602e-06 0.000210667 -0.144773)
(-9.70179e-06 0.000208872 -0.144901)
(-3.38976e-06 0.000206128 -0.145304)
(1.10607e-05 0.000206466 -0.145355)
(1.61313e-05 0.0002308 -0.152039)
(7.446e-06 0.00023702 -0.151559)
(-6.33951e-06 0.00023955 -0.1513)
(-2.54883e-05 0.00023816 -0.151365)
(-2.93388e-05 0.000232736 -0.15176)
(-2.30812e-05 0.000228387 -0.152067)
(-1.68527e-05 0.000227148 -0.152201)
(-6.18271e-06 0.000229135 -0.151977)
(-6.43367e-06 0.000231101 -0.151628)
(-9.52408e-06 0.000229171 -0.151756)
(-2.73117e-06 0.000226231 -0.152161)
(1.19899e-05 0.000226664 -0.152213)
(1.63989e-05 0.000252008 -0.158761)
(7.68181e-06 0.000258844 -0.158275)
(-6.67321e-06 0.000261709 -0.15801)
(-2.67082e-05 0.000260157 -0.158079)
(-3.05715e-05 0.000254151 -0.158481)
(-2.41802e-05 0.000249429 -0.158789)
(-1.8177e-05 0.000248042 -0.158922)
(-7.25679e-06 0.000250096 -0.1587)
(-6.92673e-06 0.000252191 -0.158351)
(-9.25457e-06 0.000250127 -0.158479)
(-1.95136e-06 0.000247005 -0.158885)
(1.29881e-05 0.000247549 -0.158937)
(1.66181e-05 0.000273858 -0.165344)
(7.90182e-06 0.000281338 -0.164851)
(-7.01415e-06 0.000284567 -0.164583)
(-2.79142e-05 0.000282838 -0.164654)
(-3.17849e-05 0.000276216 -0.165064)
(-2.52818e-05 0.000271115 -0.165371)
(-1.95407e-05 0.000269573 -0.165503)
(-8.40306e-06 0.000271672 -0.165283)
(-7.42954e-06 0.000273882 -0.164935)
(-8.88304e-06 0.000271689 -0.165062)
(-1.04004e-06 0.0002684 -0.16547)
(1.40618e-05 0.000269075 -0.165521)
(1.6787e-05 0.000296298 -0.171779)
(8.10468e-06 0.000304449 -0.171282)
(-7.36262e-06 0.000308073 -0.17101)
(-2.91009e-05 0.000306152 -0.171084)
(-3.29767e-05 0.000298879 -0.171499)
(-2.63857e-05 0.000293392 -0.171806)
(-2.0939e-05 0.000291686 -0.171937)
(-9.61737e-06 0.000293807 -0.17172)
(-7.93506e-06 0.000296117 -0.171373)
(-8.39851e-06 0.000293799 -0.171499)
(1.31596e-08 0.000290363 -0.171906)
(1.52177e-05 0.000291189 -0.171958)
(1.69032e-05 0.000319269 -0.178059)
(8.28889e-06 0.00032812 -0.177559)
(-7.71899e-06 0.00033217 -0.177283)
(-3.02629e-05 0.000330042 -0.177359)
(-3.41448e-05 0.000322082 -0.17778)
(-2.74914e-05 0.000316202 -0.178084)
(-2.23661e-05 0.000314323 -0.178214)
(-1.0894e-05 0.000316442 -0.178001)
(-8.43475e-06 0.000318832 -0.177657)
(-7.78956e-06 0.000316393 -0.177781)
(1.21838e-06 0.000312834 -0.178187)
(1.64622e-05 0.000313836 -0.178238)
(1.69649e-05 0.000342706 -0.184174)
(8.45285e-06 0.000352285 -0.183672)
(-8.08382e-06 0.000356795 -0.183393)
(-3.1394e-05 0.000354443 -0.183471)
(-3.52871e-05 0.00034576 -0.183896)
(-2.85983e-05 0.000339481 -0.184198)
(-2.38151e-05 0.000337421 -0.184326)
(-1.22252e-05 0.000339509 -0.184118)
(-8.91842e-06 0.000341956 -0.183776)
(-7.04453e-06 0.000339402 -0.183899)
(2.58509e-06 0.000335749 -0.184303)
(1.78013e-05 0.000336951 -0.184353)
(1.69703e-05 0.000366537 -0.190113)
(8.59492e-06 0.000376875 -0.189611)
(-8.45781e-06 0.000381879 -0.189329)
(-3.24883e-05 0.000379286 -0.18941)
(-3.64016e-05 0.000369843 -0.189837)
(-2.97058e-05 0.000363157 -0.190135)
(-2.52776e-05 0.000360905 -0.190262)
(-1.3601e-05 0.000362932 -0.190059)
(-9.37411e-06 0.000365412 -0.189721)
(-6.15183e-06 0.000362751 -0.189842)
(4.12181e-06 0.000359034 -0.190242)
(1.92406e-05 0.000360465 -0.190291)
(1.69187e-05 0.000390681 -0.195867)
(8.71357e-06 0.000401809 -0.195366)
(-8.84172e-06 0.000407342 -0.195083)
(-3.35393e-05 0.00040449 -0.195164)
(-3.74865e-05 0.000394249 -0.195594)
(-3.08129e-05 0.000387149 -0.195887)
(-2.67437e-05 0.000384693 -0.196012)
(-1.50092e-05 0.000386627 -0.195815)
(-9.78801e-06 0.000389114 -0.195482)
(-5.1001e-06 0.000386354 -0.1956)
(5.83589e-06 0.000382607 -0.195996)
(2.07852e-05 0.000384297 -0.196044)
(1.68105e-05 0.000415045 -0.201426)
(8.80759e-06 0.000426995 -0.200928)
(-9.2364e-06 0.000433095 -0.200644)
(-3.45408e-05 0.000429966 -0.200725)
(-3.85398e-05 0.000418889 -0.201155)
(-3.1918e-05 0.000411364 -0.201443)
(-2.82021e-05 0.000408692 -0.201566)
(-1.64347e-05 0.000410499 -0.201376)
(-1.01444e-05 0.000412965 -0.201048)
(-3.87839e-06 0.000410113 -0.201164)
(7.73336e-06 0.000406375 -0.201554)
(2.24396e-05 0.000408356 -0.2016)
(1.66475e-05 0.000439525 -0.206781)
(8.87641e-06 0.000452332 -0.206287)
(-9.64264e-06 0.000459036 -0.206003)
(-3.54868e-05 0.00045561 -0.206085)
(-3.95602e-05 0.000443658 -0.206514)
(-3.30192e-05 0.000435698 -0.206794)
(-2.96401e-05 0.000432796 -0.206915)
(-1.78598e-05 0.00043444 -0.206733)
(-1.04254e-05 0.000436853 -0.206412)
(-2.47606e-06 0.000433921 -0.206524)
(9.81915e-06 0.000430232 -0.206907)
(2.42083e-05 0.000432541 -0.206951)
(1.64332e-05 0.000464005 -0.211924)
(8.92015e-06 0.000477702 -0.211437)
(-1.00612e-05 0.000485048 -0.211154)
(-3.63719e-05 0.000481306 -0.211235)
(-4.05461e-05 0.000468441 -0.211661)
(-3.41139e-05 0.000460031 -0.211935)
(-3.10432e-05 0.000456882 -0.212052)
(-1.92641e-05 0.000458328 -0.211879)
(-1.06117e-05 0.000460656 -0.211567)
(-8.83069e-07 0.000457654 -0.211674)
(1.20969e-05 0.000454062 -0.212048)
(2.60957e-05 0.000456734 -0.212091)
(1.61725e-05 0.000488332 -0.21685)
(8.93913e-06 0.000502957 -0.216371)
(-1.04921e-05 0.000510984 -0.21609)
(-3.71902e-05 0.000506906 -0.21617)
(-4.14957e-05 0.000493088 -0.216592)
(-3.51978e-05 0.00048421 -0.216856)
(-3.23948e-05 0.000480798 -0.216971)
(-2.0624e-05 0.000482006 -0.216807)
(-1.06821e-05 0.000484217 -0.216504)
(9.09171e-07 0.000481159 -0.216607)
(1.45681e-05 0.00047771 -0.21697)
(2.81051e-05 0.000480786 -0.217011)
(1.58712e-05 0.00051233 -0.221551)
(8.93368e-06 0.000527919 -0.221082)
(-1.09343e-05 0.000536668 -0.220804)
(-3.79347e-05 0.000532233 -0.220883)
(-4.24061e-05 0.000517421 -0.221299)
(-3.6265e-05 0.000508055 -0.221553)
(-3.36758e-05 0.000504362 -0.221663)
(-2.19122e-05 0.000505293 -0.22151)
(-1.06134e-05 0.000507351 -0.221219)
(2.90704e-06 0.000504252 -0.221316)
(1.72308e-05 0.000500998 -0.221666)
(3.02387e-05 0.000504519 -0.221706)
(1.55361e-05 0.000535813 -0.226019)
(8.90424e-06 0.000552405 -0.225563)
(-1.13861e-05 0.000561916 -0.225289)
(-3.85977e-05 0.000557104 -0.225366)
(-4.32725e-05 0.000541257 -0.225774)
(-3.73064e-05 0.000531381 -0.226016)
(-3.48642e-05 0.000527387 -0.226122)
(-2.30984e-05 0.000527998 -0.22598)
(-1.03813e-05 0.000529867 -0.225702)
(5.11478e-06 0.000526745 -0.225793)
(2.00808e-05 0.000523743 -0.226129)
(3.24972e-05 0.000527752 -0.226167)
(1.51743e-05 0.00055859 -0.230248)
(8.85148e-06 0.00057622 -0.229807)
(-1.1845e-05 0.00058653 -0.229539)
(-3.91711e-05 0.000581323 -0.229613)
(-4.40878e-05 0.000564401 -0.23001)
(-3.83097e-05 0.000553989 -0.23024)
(-3.59353e-05 0.000549674 -0.230341)
(-2.41487e-05 0.000549922 -0.230211)
(-9.96049e-06 0.000551563 -0.229947)
(7.53412e-06 0.000548439 -0.230031)
(2.31107e-05 0.000545749 -0.230352)
(3.48798e-05 0.000550291 -0.230387)
(1.4794e-05 0.000580454 -0.23423)
(8.77631e-06 0.000599159 -0.233807)
(-1.23069e-05 0.000610305 -0.233546)
(-3.96457e-05 0.000604681 -0.233616)
(-4.48419e-05 0.000586646 -0.234002)
(-3.92581e-05 0.000575669 -0.234218)
(-3.6861e-05 0.000571012 -0.234313)
(-2.50257e-05 0.000570854 -0.234196)
(-9.32522e-06 0.000572228 -0.233946)
(1.01636e-05 0.000569126 -0.234024)
(2.63099e-05 0.00056681 -0.234327)
(3.73839e-05 0.000571932 -0.234361)
(1.44042e-05 0.000601196 -0.237961)
(8.67997e-06 0.000621009 -0.237557)
(-1.27662e-05 0.000633027 -0.237304)
(-4.00107e-05 0.000626968 -0.237372)
(-4.55212e-05 0.000607782 -0.237742)
(-4.01304e-05 0.000596209 -0.237943)
(-3.76098e-05 0.000591186 -0.238032)
(-2.56888e-05 0.000590578 -0.237928)
(-8.45013e-06 0.000591645 -0.237695)
(1.29981e-05 0.000588593 -0.237765)
(2.9664e-05 0.000586717 -0.23805)
(4.00045e-05 0.000592466 -0.238082)
(1.40142e-05 0.00062061 -0.241434)
(8.564e-06 0.000641562 -0.241053)
(-1.32149e-05 0.000654483 -0.24081)
(-4.02531e-05 0.000647972 -0.240873)
(-4.61078e-05 0.000627598 -0.241226)
(-4.09002e-05 0.000615395 -0.241412)
(-3.81469e-05 0.000609985 -0.241495)
(-2.60944e-05 0.000608881 -0.241403)
(-7.31093e-06 0.000609602 -0.241188)
(1.60277e-05 0.00060663 -0.241249)
(3.31542e-05 0.000605264 -0.241515)
(4.2734e-05 0.000611685 -0.241545)
(1.36339e-05 0.000638499 -0.244647)
(8.43024e-06 0.000660617 -0.244289)
(-1.3643e-05 0.000674468 -0.244058)
(-4.03579e-05 0.000667487 -0.244116)
(-4.65789e-05 0.000645893 -0.244451)
(-4.15355e-05 0.000633024 -0.24462)
(-3.8434e-05 0.000627204 -0.244696)
(-2.61971e-05 0.000625561 -0.244618)
(-5.88546e-06 0.000625898 -0.24442)
(1.92377e-05 0.000623039 -0.244473)
(3.67573e-05 0.00062225 -0.244718)
(4.5561e-05 0.000629393 -0.244747)
(1.32732e-05 0.000654675 -0.247598)
(8.28085e-06 0.00067798 -0.247265)
(-1.40382e-05 0.000692783 -0.247047)
(-4.03078e-05 0.00068532 -0.2471)
(-4.69068e-05 0.000662478 -0.247414)
(-4.19991e-05 0.000648902 -0.247566)
(-3.84303e-05 0.000642647 -0.247634)
(-2.59503e-05 0.000640428 -0.24757)
(-4.15488e-06 0.000640345 -0.24739)
(2.2608e-05 0.000637632 -0.247435)
(4.04451e-05 0.000637494 -0.247658)
(4.84703e-05 0.000645406 -0.247687)
(1.29419e-05 0.000668966 -0.250285)
(8.1183e-06 0.000693476 -0.249979)
(-1.43853e-05 0.000709241 -0.249776)
(-4.00833e-05 0.000701282 -0.249824)
(-4.7059e-05 0.000677172 -0.250114)
(-4.22493e-05 0.000662841 -0.250249)
(-3.80934e-05 0.00065613 -0.25031)
(-2.53082e-05 0.000653296 -0.250258)
(-2.10492e-06 0.000652757 -0.250096)
(2.61125e-05 0.000650228 -0.250133)
(4.41848e-05 0.000650814 -0.250335)
(5.14425e-05 0.00065954 -0.250363)
(1.26501e-05 0.000681214 -0.252712)
(7.94584e-06 0.00070694 -0.252434)
(-1.46679e-05 0.000723687 -0.252246)
(-3.96625e-05 0.00071522 -0.252288)
(-4.69991e-05 0.000689808 -0.252554)
(-4.22405e-05 0.000674688 -0.252671)
(-3.73798e-05 0.000667507 -0.252725)
(-2.42279e-05 0.000664016 -0.252685)
(2.73011e-07 0.000662989 -0.252541)
(2.97196e-05 0.000660692 -0.25257)
(4.79382e-05 0.000662065 -0.252751)
(5.44531e-05 0.000671642 -0.252779)
(1.24077e-05 0.000691338 -0.254883)
(7.76816e-06 0.000718272 -0.254632)
(-1.48666e-05 0.000735995 -0.254461)
(-3.90231e-05 0.000727017 -0.254498)
(-4.66877e-05 0.000700294 -0.254738)
(-4.19256e-05 0.000684343 -0.254838)
(-3.6248e-05 0.000676669 -0.254885)
(-2.26705e-05 0.000672496 -0.254856)
(2.97987e-06 0.000670958 -0.254729)
(3.33919e-05 0.000668927 -0.25475)
(5.16622e-05 0.000671156 -0.254911)
(5.74724e-05 0.000681626 -0.254938)
(1.22248e-05 0.000699257 -0.256804)
(7.59115e-06 0.000727393 -0.256582)
(-1.49608e-05 0.000746077 -0.256428)
(-3.81425e-05 0.00073658 -0.256459)
(-4.60836e-05 0.000708545 -0.256673)
(-4.12572e-05 0.000691717 -0.256756)
(-3.46599e-05 0.000683533 -0.256795)
(-2.06049e-05 0.000678661 -0.256776)
(6.00759e-06 0.000676594 -0.256666)
(3.70864e-05 0.000674868 -0.256681)
(5.53087e-05 0.000678011 -0.256821)
(6.04641e-05 0.000689409 -0.256849)
(1.21104e-05 0.000704918 -0.258485)
(7.42183e-06 0.000734239 -0.258291)
(-1.49283e-05 0.000753864 -0.258155)
(-3.69981e-05 0.000743844 -0.258181)
(-4.51461e-05 0.000714496 -0.258368)
(-4.01899e-05 0.000696748 -0.258434)
(-3.25836e-05 0.00068804 -0.258467)
(-1.80108e-05 0.000682457 -0.258457)
(9.33833e-06 0.000679855 -0.258362)
(4.07548e-05 0.000678471 -0.25837)
(5.88248e-05 0.000682578 -0.258492)
(6.33856e-05 0.000694932 -0.258521)
(1.20713e-05 0.000708303 -0.259938)
(7.26758e-06 0.00073878 -0.259772)
(-1.47472e-05 0.000759313 -0.259654)
(-3.55696e-05 0.00074877 -0.259674)
(-4.38369e-05 0.000718118 -0.259835)
(-3.86834e-05 0.000699407 -0.259885)
(-2.99962e-05 0.000690164 -0.259911)
(-1.48818e-05 0.000683871 -0.259909)
(1.29433e-05 0.000680736 -0.259828)
(4.43446e-05 0.000679729 -0.25983)
(6.21529e-05 0.000684838 -0.259935)
(6.61874e-05 0.000698171 -0.259964)
(1.21115e-05 0.000709422 -0.261177)
(7.13539e-06 0.000741017 -0.261037)
(-1.43968e-05 0.000762413 -0.260937)
(-3.38406e-05 0.000751351 -0.260952)
(-4.2123e-05 0.00071941 -0.261086)
(-3.67056e-05 0.000699695 -0.261121)
(-2.68878e-05 0.000689907 -0.261142)
(-1.12295e-05 0.000682919 -0.261146)
(1.67816e-05 0.000679267 -0.261078)
(4.77996e-05 0.000678665 -0.261075)
(6.52321e-05 0.000684803 -0.261164)
(6.88135e-05 0.000699133 -0.261194)
(1.22311e-05 0.000708309 -0.262215)
(7.03123e-06 0.000740974 -0.262101)
(-1.38608e-05 0.000763178 -0.262018)
(-3.18037e-05 0.000751605 -0.262028)
(-3.99808e-05 0.000718397 -0.262137)
(-3.42373e-05 0.000697639 -0.262159)
(-2.3266e-05 0.000687303 -0.262174)
(-7.08614e-06 0.000679647 -0.262183)
(2.07998e-05 0.000675506 -0.262127)
(5.10639e-05 0.000675332 -0.26212)
(6.80009e-05 0.000682511 -0.262193)
(7.12044e-05 0.000697847 -0.262225)
(1.24281e-05 0.000705055 -0.263071)
(6.96116e-06 0.000738728 -0.26298)
(-1.31325e-05 0.000761672 -0.262914)
(-2.94653e-05 0.000749595 -0.26292)
(-3.73994e-05 0.000715152 -0.263005)
(-3.12756e-05 0.000693324 -0.263014)
(-1.91609e-05 0.000682442 -0.263024)
(-2.50877e-06 0.000674155 -0.263037)
(2.49339e-05 0.000669561 -0.262991)
(5.40865e-05 0.000669834 -0.262981)
(7.04053e-05 0.000678056 -0.263042)
(7.33035e-05 0.000694394 -0.263074)
(1.27051e-05 0.000699809 -0.263763)
(6.94414e-06 0.000734413 -0.263693)
(-1.22088e-05 0.000758012 -0.263643)
(-2.68444e-05 0.000745445 -0.263645)
(-3.43875e-05 0.000709818 -0.263707)
(-2.78382e-05 0.000686895 -0.263706)
(-1.46242e-05 0.000675473 -0.263712)
(2.42133e-06 0.000666614 -0.263728)
(2.91116e-05 0.000661615 -0.263691)
(5.68212e-05 0.000662344 -0.263677)
(7.24012e-05 0.000671592 -0.263727)
(7.50593e-05 0.000688921 -0.26376)
(1.30653e-05 0.000692732 -0.264314)
(6.99995e-06 0.000728187 -0.264263)
(-1.10863e-05 0.000752347 -0.264226)
(-2.39654e-05 0.000739303 -0.264225)
(-3.09699e-05 0.000702547 -0.264267)
(-2.3958e-05 0.000678517 -0.264257)
(-9.70943e-06 0.000666567 -0.26426)
(7.63168e-06 0.000657203 -0.264277)
(3.32751e-05 0.00065186 -0.264247)
(5.92383e-05 0.000653047 -0.264232)
(7.39602e-05 0.000663286 -0.264273)
(7.64346e-05 0.000681585 -0.264306)
(1.35038e-05 0.000684 -0.264744)
(7.13877e-06 0.000720215 -0.264709)
(-9.7712e-06 0.000744835 -0.264685)
(-2.08606e-05 0.000731324 -0.264681)
(-2.71815e-05 0.000693501 -0.264706)
(-1.96738e-05 0.000668357 -0.264687)
(-4.47802e-06 0.000655896 -0.264688)
(1.30488e-05 0.000646109 -0.264706)
(3.73748e-05 0.000640491 -0.264682)
(6.13263e-05 0.000642131 -0.264666)
(7.50733e-05 0.000653316 -0.264699)
(7.74062e-05 0.000672555 -0.264732)
(1.40084e-05 0.000673778 -0.265073)
(7.36892e-06 0.00071066 -0.265052)
(-8.27775e-06 0.000735634 -0.265038)
(-1.75727e-05 0.000721668 -0.265032)
(-2.30672e-05 0.000682843 -0.265042)
(-1.50378e-05 0.000656582 -0.265017)
(9.89673e-07 0.000643634 -0.265016)
(1.858e-05 0.000633519 -0.265035)
(4.13539e-05 0.000627709 -0.265015)
(6.30763e-05 0.00062979 -0.264998)
(7.57407e-05 0.000641855 -0.265025)
(7.79586e-05 0.000661996 -0.265058)
(1.45679e-05 0.000662221 -0.265319)
(7.69396e-06 0.000699675 -0.265308)
(-6.62386e-06 0.000724895 -0.265303)
(-1.41438e-05 0.000710484 -0.265295)
(-1.86814e-05 0.00067072 -0.265293)
(-1.01174e-05 0.000643353 -0.265264)
(6.60953e-06 0.000629948 -0.265261)
(2.41357e-05 0.000619607 -0.26528)
(4.51613e-05 0.000613694 -0.265264)
(6.4484e-05 0.000616198 -0.265246)
(7.59695e-05 0.000629066 -0.265268)
(7.80859e-05 0.00065006 -0.265301)
(1.51702e-05 0.000649471 -0.265496)
(8.11426e-06 0.000687402 -0.265494)
(-4.83099e-06 0.000712763 -0.265496)
(-1.06142e-05 0.000697912 -0.265486)
(-1.40836e-05 0.000657274 -0.265474)
(-4.98444e-06 0.000628819 -0.265441)
(1.22989e-05 0.000614991 -0.265438)
(2.96329e-05 0.000604535 -0.265457)
(4.87551e-05 0.000598614 -0.265444)
(6.55538e-05 0.000601518 -0.265426)
(7.57765e-05 0.0006151 -0.265444)
(7.77936e-05 0.000636891 -0.265476)
(1.58031e-05 0.000635658 -0.265618)
(8.62684e-06 0.000673972 -0.265624)
(-2.92226e-06 0.00069937 -0.265631)
(-7.02142e-06 0.000684082 -0.26562)
(-9.33387e-06 0.000642633 -0.2656)
(2.88057e-07 0.000613118 -0.265565)
(1.79796e-05 0.000598906 -0.265561)
(3.49983e-05 0.000588449 -0.26558)
(5.21021e-05 0.000582619 -0.265569)
(6.62971e-05 0.000585898 -0.265552)
(7.51874e-05 0.000600097 -0.265565)
(7.70977e-05 0.000622621 -0.265597)
(1.64553e-05 0.000620894 -0.265697)
(9.22598e-06 0.0006595 -0.265708)
(-9.20909e-07 0.000684834 -0.26572)
(-3.39781e-06 0.000669111 -0.265707)
(-4.49022e-06 0.000626911 -0.265681)
(5.62928e-06 0.000596373 -0.265645)
(2.35814e-05 0.000581823 -0.265641)
(4.01704e-05 0.00057148 -0.265659)
(5.51788e-05 0.000565843 -0.265651)
(6.67303e-05 0.000569468 -0.265634)
(7.42336e-05 0.000584178 -0.265645)
(7.60225e-05 0.000607365 -0.265676)
(1.71171e-05 0.000605275 -0.265742)
(9.90424e-06 0.000644083 -0.265758)
(1.15143e-06 0.00066926 -0.265772)
(2.29949e-07 0.000653101 -0.265759)
(3.93748e-07 0.000610207 -0.265728)
(1.09733e-05 0.000578692 -0.265691)
(2.90437e-05 0.000563852 -0.265688)
(4.51005e-05 0.000553739 -0.265706)
(5.79694e-05 0.000548397 -0.2657)
(6.6873e-05 0.000552337 -0.265683)
(7.29498e-05 0.000567451 -0.265691)
(7.4598e-05 0.000591225 -0.265721)
(1.77813e-05 0.000588878 -0.265762)
(1.06536e-05 0.000627802 -0.26578)
(3.27579e-06 0.000652734 -0.265796)
(3.84057e-06 0.000636135 -0.265782)
(5.26965e-06 0.000592604 -0.265749)
(1.62605e-05 0.000560164 -0.265711)
(3.43157e-05 0.000545087 -0.265709)
(4.97511e-05 0.000535318 -0.265727)
(6.04654e-05 0.000530372 -0.265722)
(6.67457e-05 0.000534597 -0.265706)
(7.13711e-05 0.000550001 -0.265712)
(7.28568e-05 0.000574282 -0.265741)
(1.84429e-05 0.000571764 -0.265762)
(1.14664e-05 0.000610723 -0.265782)
(5.43616e-06 0.000635326 -0.265799)
(7.41679e-06 0.000618283 -0.265785)
(1.0094e-05 0.000574169 -0.265749)
(2.14376e-05 0.000540866 -0.265712)
(3.93551e-05 0.000525605 -0.26571)
(5.40936e-05 0.00051629 -0.265729)
(6.26628e-05 0.000511843 -0.265725)
(6.63687e-05 0.000516322 -0.265709)
(6.95307e-05 0.000531901 -0.265714)
(7.08318e-05 0.000556604 -0.265742)
(1.90993e-05 0.000553979 -0.265748)
(1.23356e-05 0.000592895 -0.265769)
(7.61912e-06 0.000617094 -0.265786)
(1.09436e-05 0.000599602 -0.265771)
(1.48273e-05 0.000554958 -0.265734)
(2.64568e-05 0.000520856 -0.265698)
(4.41253e-05 0.000505467 -0.265697)
(5.81052e-05 0.000496715 -0.265716)
(6.45603e-05 0.000492864 -0.265714)
(6.57609e-05 0.000497566 -0.265698)
(6.74591e-05 0.000513207 -0.265702)
(6.85548e-05 0.000538243 -0.265728)
(1.97491e-05 0.000535556 -0.265723)
(1.32547e-05 0.000574356 -0.265744)
(9.81302e-06 0.00059808 -0.265761)
(1.44063e-05 0.000580136 -0.265746)
(1.94322e-05 0.000535015 -0.265708)
(3.1274e-05 0.000500184 -0.265673)
(4.85931e-05 0.000484722 -0.265674)
(6.17661e-05 0.000476637 -0.265693)
(6.6158e-05 0.000473479 -0.265692)
(6.49393e-05 0.000478375 -0.265677)
(6.51838e-05 0.000493961 -0.265679)
(6.60553e-05 0.000519241 -0.265704)
(2.03915e-05 0.00051652 -0.26569)
(1.42179e-05 0.000555133 -0.265711)
(1.20069e-05 0.000578318 -0.265727)
(1.77891e-05 0.00055992 -0.265712)
(2.38721e-05 0.000514376 -0.265674)
(3.58469e-05 0.000478889 -0.26564)
(5.27263e-05 0.00046341 -0.265642)
(6.50569e-05 0.00045609 -0.265661)
(6.74555e-05 0.000453718 -0.265662)
(6.39193e-05 0.000458779 -0.265647)
(6.273e-05 0.000474198 -0.265649)
(6.33616e-05 0.000499626 -0.265673)
(2.10258e-05 0.000496886 -0.265652)
(1.52189e-05 0.000535247 -0.265672)
(1.41896e-05 0.000557833 -0.265688)
(2.10741e-05 0.000538983 -0.265672)
(2.81098e-05 0.000493069 -0.265634)
(4.01337e-05 0.000457 -0.265602)
(5.64915e-05 0.000441559 -0.265605)
(6.79568e-05 0.000435096 -0.265625)
(6.84515e-05 0.000433599 -0.265626)
(6.27148e-05 0.0004388 -0.265613)
(6.01217e-05 0.00045394 -0.265613)
(6.05003e-05 0.000479422 -0.265636)
(2.16508e-05 0.000476664 -0.265611)
(1.62514e-05 0.000514712 -0.26563)
(1.63488e-05 0.000536646 -0.265644)
(2.42401e-05 0.000517349 -0.265628)
(3.21062e-05 0.000471121 -0.265591)
(4.40916e-05 0.000434545 -0.265561)
(5.98528e-05 0.000419193 -0.265565)
(7.04427e-05 0.000413673 -0.265585)
(6.91435e-05 0.000413137 -0.265588)
(6.13392e-05 0.000418454 -0.265575)
(5.73825e-05 0.000433208 -0.265574)
(5.74982e-05 0.000458645 -0.265596)
(2.22646e-05 0.000455861 -0.265567)
(1.73085e-05 0.00049354 -0.265585)
(1.84705e-05 0.000514774 -0.265598)
(2.72629e-05 0.000495039 -0.265582)
(3.58204e-05 0.000448553 -0.265546)
(4.76758e-05 0.000411546 -0.265518)
(6.27712e-05 0.000396331 -0.265523)
(7.24888e-05 0.000391832 -0.265543)
(6.95275e-05 0.000392337 -0.265547)
(5.98058e-05 0.000397752 -0.265535)
(5.45367e-05 0.000412015 -0.265534)
(5.43823e-05 0.00043731 -0.265554)
(2.28642e-05 0.000434482 -0.265524)
(1.83825e-05 0.000471739 -0.26554)
(2.05393e-05 0.000492234 -0.265551)
(3.01149e-05 0.000472074 -0.265535)
(3.92099e-05 0.000425387 -0.2655)
(5.08399e-05 0.000388023 -0.265474)
(6.52047e-05 0.000372991 -0.26548)
(7.40668e-05 0.00036958 -0.265501)