0 	0 	0 	0
0 	0 	0 	0
0.00752508 	0.00020463 	-0.000877443 	-0.270468
0.00752508 	0.00020463 	-0.000877443 	-0.270468
0.00757525 	0.000163608 	-0.000887207 	-0.270412
0.00762542 	0.000122585 	-0.000896971 	-0.270357
0.00762542 	0.000122585 	-0.000896971 	-0.270357
0.00767559 	8.15482e-05 	-0.000906722 	-0.270301
0.00772575 	3.88966e-05 	-0.00091496 	-0.270224
0.00777592 	-3.75499e-06 	-0.000923199 	-0.270147
0.00782609 	-4.64066e-05 	-0.000931437 	-0.270071
0.00782609 	-4.64066e-05 	-0.000931437 	-0.270071
0.00787625 	-8.95443e-05 	-0.000939448 	-0.269981
0.00792642 	-0.000133035 	-0.000947293 	-0.269881
0.00797659 	-0.000176525 	-0.000955139 	-0.269781
0.00802676 	-0.000220037 	-0.000962927 	-0.269676
0.00802676 	-0.000220037 	-0.000962927 	-0.269676
0.00807692 	-0.000263632 	-0.000970498 	-0.269548
0.00812709 	-0.000307227 	-0.000978069 	-0.26942
0.00812709 	-0.000307227 	-0.000978069 	-0.26942
0.00817726 	-0.000350822 	-0.00098564 	-0.269292
0.00822742 	-0.00039412 	-0.000992124 	-0.269137
0.00822742 	-0.00039412 	-0.000992124 	-0.269137
0.00827759 	-0.000437385 	-0.000998487 	-0.268978
0.00832776 	-0.000480651 	-0.00100485 	-0.268819
0.00832776 	-0.000480651 	-0.00100485 	-0.268819
0.00837793 	-0.000523669 	-0.00101101 	-0.268641
0.00842809 	-0.000566554 	-0.00101707 	-0.268452
0.00842809 	-0.000566554 	-0.00101707 	-0.268452
0.00847826 	-0.000609439 	-0.00102312 	-0.268263
0.00847826 	-0.000609439 	-0.00102312 	-0.268263
0.00852843 	-0.000652178 	-0.00102903 	-0.268061
0.00852843 	-0.000652178 	-0.00102903 	-0.268061
0.0085786 	-0.000694741 	-0.00103477 	-0.267842
0.0085786 	-0.000694741 	-0.00103477 	-0.267842
0.00862876 	-0.000737304 	-0.00104051 	-0.267624
0.00867893 	-0.000779787 	-0.00104611 	-0.267396
0.00867893 	-0.000779787 	-0.00104611 	-0.267396
0.0087291 	-0.000822098 	-0.0010514 	-0.267149
0.00877926 	-0.000864409 	-0.00105669 	-0.266902
0.00877926 	-0.000864409 	-0.00105669 	-0.266902
0.00882943 	-0.000906674 	-0.00106186 	-0.266649
0.0088796 	-0.000948788 	-0.00106662 	-0.266374
0.0088796 	-0.000948788 	-0.00106662 	-0.266374
0.00897993 	-0.00103298 	-0.00107602 	-0.265819
0.00897993 	-0.00103298 	-0.00107602 	-0.265819
0.0090301 	-0.00107492 	-0.00108018 	-0.265516
0.00908027 	-0.00111685 	-0.00108434 	-0.265214
0.00908027 	-0.00111685 	-0.00108434 	-0.265214
0.00913043 	-0.00115874 	-0.00108835 	-0.264906
0.0091806 	-0.00120047 	-0.00109184 	-0.264576
0.0091806 	-0.00120047 	-0.00109184 	-0.264576
0.00923077 	-0.0012422 	-0.00109533 	-0.264247
0.00928094 	-0.00128386 	-0.00109862 	-0.263909
0.00928094 	-0.00128386 	-0.00109862 	-0.263909
0.0093311 	-0.00132537 	-0.00110145 	-0.263553
0.00938127 	-0.00136687 	-0.00110428 	-0.263197
0.00938127 	-0.00136687 	-0.00110428 	-0.263197
0.00943144 	-0.00140826 	-0.00110685 	-0.262829
0.00943144 	-0.00140826 	-0.00110685 	-0.262829
0.00948161 	-0.00144951 	-0.00110906 	-0.262447
0.00948161 	-0.00144951 	-0.00110906 	-0.262447
0.00953177 	-0.00149077 	-0.00111127 	-0.262065
0.00953177 	-0.00149077 	-0.00111127 	-0.262065
0.00958194 	-0.00153185 	-0.00111309 	-0.261668
0.00958194 	-0.00153185 	-0.00111309 	-0.261668
0.00963211 	-0.00157282 	-0.00111467 	-0.261262
0.00963211 	-0.00157282 	-0.00111467 	-0.261262
0.00968227 	-0.0016138 	-0.00111626 	-0.260855
0.00968227 	-0.0016138 	-0.00111626 	-0.260855
0.00973244 	-0.00165448 	-0.00111727 	-0.260427
0.00978261 	-0.0016951 	-0.00111819 	-0.259996
0.00983278 	-0.00173568 	-0.00111902 	-0.259561
0.00988294 	-0.00177588 	-0.00111926 	-0.259104
0.00988294 	-0.00177588 	-0.00111926 	-0.259104
0.00993311 	-0.00181609 	-0.00111949 	-0.258647
0.00998328 	-0.00185608 	-0.00111944 	-0.258178
0.00998328 	-0.00185608 	-0.00111944 	-0.258178
0.0100334 	-0.00189582 	-0.00111902 	-0.257695
0.0100334 	-0.00189582 	-0.00111902 	-0.257695
0.0100836 	-0.00193556 	-0.00111861 	-0.257212
0.0101338 	-0.00197488 	-0.00111766 	-0.256706
0.0101338 	-0.00197488 	-0.00111766 	-0.256706
0.0102341 	-0.00205321 	-0.00111538 	-0.25568
0.0102341 	-0.00205321 	-0.00111538 	-0.25568
0.0102843 	-0.00209191 	-0.00111367 	-0.255142
0.0103344 	-0.00213061 	-0.00111195 	-0.254605
0.0103344 	-0.00213061 	-0.00111195 	-0.254605
0.0103846 	-0.00216902 	-0.00110977 	-0.254048
0.0103846 	-0.00216902 	-0.00110977 	-0.254048
0.0104348 	-0.00220731 	-0.00110741 	-0.253482
0.0104849 	-0.00224562 	-0.00110491 	-0.252911
0.0104849 	-0.00224562 	-0.00110491 	-0.252911
0.0105351 	-0.00228399 	-0.00110195 	-0.252317
0.0105853 	-0.00232237 	-0.001099 	-0.251722
0.0105853 	-0.00232237 	-0.001099 	-0.251722
0.0106355 	-0.00236125 	-0.00109569 	-0.251106
0.0106856 	-0.00240029 	-0.00109227 	-0.250482
0.0106856 	-0.00240029 	-0.00109227 	-0.250482
0.0107358 	-0.00243958 	-0.0010887 	-0.249847
0.0107358 	-0.00243958 	-0.0010887 	-0.249847
0.010786 	-0.0024793 	-0.00108487 	-0.249193
0.010786 	-0.0024793 	-0.00108487 	-0.249193
0.0108361 	-0.00251902 	-0.00108104 	-0.248538
0.0108361 	-0.00251902 	-0.00108104 	-0.248538
0.0108863 	-0.00255869 	-0.00107657 	-0.247853
0.0109365 	-0.00259835 	-0.00107211 	-0.247167
0.0109365 	-0.00259835 	-0.00107211 	-0.247167
0.0109866 	-0.0026374 	-0.00106697 	-0.246459
0.0109866 	-0.0026374 	-0.00106697 	-0.246459
0.0110368 	-0.00267616 	-0.00106152 	-0.24574
0.011087 	-0.00271455 	-0.00105565 	-0.245008
0.011087 	-0.00271455 	-0.00105565 	-0.245008
0.0111371 	-0.00275239 	-0.00104914 	-0.244255
0.0111873 	-0.00279022 	-0.00104251 	-0.243496
0.0111873 	-0.00279022 	-0.00104251 	-0.243496
0.0112375 	-0.00282795 	-0.00103521 	-0.242708
0.0112876 	-0.00286568 	-0.00102792 	-0.24192
0.0112876 	-0.00286568 	-0.00102792 	-0.24192
0.0113378 	-0.00290421 	-0.00102013 	-0.241097
0.011388 	-0.00294276 	-0.00101232 	-0.240273
0.011388 	-0.00294276 	-0.00101232 	-0.240273
0.0114883 	-0.00302203 	-0.000995915 	-0.238557
0.0114883 	-0.00302203 	-0.000995915 	-0.238557
0.0115385 	-0.0030624 	-0.000987379 	-0.237669
0.0115886 	-0.00310305 	-0.00097871 	-0.236769
0.0115886 	-0.00310305 	-0.00097871 	-0.236769
0.0116388 	-0.00314398 	-0.000969789 	-0.235845
0.011689 	-0.00318509 	-0.000960703 	-0.234906
0.011689 	-0.00318509 	-0.000960703 	-0.234906
0.0117391 	-0.00322633 	-0.0009514 	-0.233943
0.0117893 	-0.00326768 	-0.000941921 	-0.232962
0.0117893 	-0.00326768 	-0.000941921 	-0.232962
0.0118395 	-0.00330925 	-0.000932252 	-0.231958
0.0118896 	-0.00335102 	-0.000922422 	-0.230934
0.0118896 	-0.00335102 	-0.000922422 	-0.230934
0.0119398 	-0.0033934 	-0.000912425 	-0.229885
0.0119398 	-0.0033934 	-0.000912425 	-0.229885
0.01199 	-0.00343625 	-0.0009023 	-0.228817
0.01199 	-0.00343625 	-0.0009023 	-0.228817
0.0120401 	-0.00348006 	-0.000892028 	-0.227719
0.0120401 	-0.00348006 	-0.000892028 	-0.227719
0.0120903 	-0.00352446 	-0.000881666 	-0.226604
0.0120903 	-0.00352446 	-0.000881666 	-0.226604
0.0121405 	-0.00356965 	-0.000871122 	-0.225454
0.0121405 	-0.00356965 	-0.000871122 	-0.225454
0.0121906 	-0.00361515 	-0.000860504 	-0.224289
0.0121906 	-0.00361515 	-0.000860504 	-0.224289
0.0122408 	-0.00366046 	-0.000849561 	-0.223081
0.0122408 	-0.00366046 	-0.000849561 	-0.223081
0.012291 	-0.00370573 	-0.000838556 	-0.221865
0.012291 	-0.00370573 	-0.000838556 	-0.221865
0.0123411 	-0.00374955 	-0.000827008 	-0.220594
0.0123411 	-0.00374955 	-0.000827008 	-0.220594
0.0123913 	-0.00379305 	-0.00081535 	-0.219312
0.0123913 	-0.00379305 	-0.00081535 	-0.219312
0.0124415 	-0.00383526 	-0.000803233 	-0.217983
0.0124916 	-0.00387716 	-0.000790936 	-0.216629
0.0124916 	-0.00387716 	-0.000790936 	-0.216629
0.012592 	-0.00396038 	-0.000765637 	-0.213804
0.012592 	-0.00396038 	-0.000765637 	-0.213804
0.0126421 	-0.00400224 	-0.000752788 	-0.212348
0.0126923 	-0.00404498 	-0.000739669 	-0.210825
0.0126923 	-0.00404498 	-0.000739669 	-0.210825
0.0127425 	-0.00408797 	-0.00072645 	-0.209278
0.0127425 	-0.00408797 	-0.00072645 	-0.209278
0.0127926 	-0.00413151 	-0.000712999 	-0.207677
0.0128428 	-0.0041754 	-0.000699332 	-0.206025
0.0128428 	-0.0041754 	-0.000699332 	-0.206025
0.012893 	-0.00421949 	-0.000685529 	-0.204343
0.0129431 	-0.00426403 	-0.000671343 	-0.202573
0.0129431 	-0.00426403 	-0.000671343 	-0.202573
0.0129933 	-0.00430871 	-0.000656994 	-0.200764
0.0130435 	-0.00435361 	-0.000642395 	-0.198896
0.0130435 	-0.00435361 	-0.000642395 	-0.198896
0.0130936 	-0.00439873 	-0.000627471 	-0.196941
0.0131438 	-0.00444393 	-0.000612345 	-0.194936
0.0131438 	-0.00444393 	-0.000612345 	-0.194936
0.013194 	-0.00448923 	-0.000596884 	-0.192848
0.0132441 	-0.0045344 	-0.000580975 	-0.190666
0.0132441 	-0.0045344 	-0.000580975 	-0.190666
0.0132943 	-0.00457935 	-0.000564792 	-0.188416
0.0133445 	-0.00462384 	-0.000548257 	-0.18607
0.0133445 	-0.00462384 	-0.000548257 	-0.18607
0.0133946 	-0.00466731 	-0.000531358 	-0.183603
0.0134448 	-0.00470984 	-0.000514176 	-0.181046
0.0134448 	-0.00470984 	-0.000514176 	-0.181046
0.013495 	-0.00475122 	-0.000496669 	-0.178389
0.0135452 	-0.00479013 	-0.000478628 	-0.175555
0.0135452 	-0.00479013 	-0.000478628 	-0.175555
0.0136455 	-0.00486198 	-0.000441535 	-0.169507
0.0136455 	-0.00486198 	-0.000441535 	-0.169507
0.0136957 	-0.00489397 	-0.000422403 	-0.166243
0.0137458 	-0.00492197 	-0.000402704 	-0.162759
0.0137458 	-0.00492197 	-0.000402704 	-0.162759
0.013796 	-0.0049463 	-0.00038251 	-0.159094
0.0138462 	-0.00496631 	-0.000361805 	-0.155232
0.0138462 	-0.00496631 	-0.000361805 	-0.155232
0.0138963 	-0.0049812 	-0.00034059 	-0.151158
0.0138963 	-0.0049812 	-0.00034059 	-0.151158
0.0139465 	-0.00498736 	-0.000318681 	-0.146779
0.0139967 	-0.00498459 	-0.000296213 	-0.14214
0.0139967 	-0.00498459 	-0.000296213 	-0.14214
0.0140468 	-0.00497096 	-0.000273278 	-0.137227
0.0140468 	-0.00497096 	-0.000273278 	-0.137227
0.014097 	-0.00494373 	-0.000249967 	-0.132018
0.0141472 	-0.0048994 	-0.000226394 	-0.12649
0.0141973 	-0.0048335 	-0.000202708 	-0.120619
0.0141973 	-0.0048335 	-0.000202708 	-0.120619
0.0142475 	-0.00473564 	-0.000179289 	-0.114317
0.0142977 	-0.00460407 	-0.000156492 	-0.10762
0.0143478 	-0.00443421 	-0.000134491 	-0.100527
0.0143478 	-0.00443421 	-0.000134491 	-0.100527
0.014398 	-0.0042225 	-0.00011337 	-0.0930541
0.014398 	-0.0042225 	-0.00011337 	-0.0930541
0.0144482 	-0.00396744 	-9.33447e-05 	-0.0852449
0.0144983 	-0.00367013 	-7.4759e-05 	-0.07717
0.0144983 	-0.00367013 	-7.4759e-05 	-0.07717
0.0145485 	-0.00333479 	-5.79071e-05 	-0.0689247
0.0145987 	-0.00296861 	-4.29745e-05 	-0.0606187
0.0145987 	-0.00296861 	-4.29745e-05 	-0.0606187
0.0146488 	-0.00258035 	-3.0121e-05 	-0.0523585
0.014699 	-0.00217795 	-1.95229e-05 	-0.0442311
0.014699 	-0.00217795 	-1.95229e-05 	-0.0442311
0.0147492 	-0.00176597 	-1.12665e-05 	-0.036297
0.0147993 	-0.00134329 	-5.14636e-06 	-0.0285957
0.0147993 	-0.00134329 	-5.14636e-06 	-0.0285957
0.0148495 	-0.000899739 	-1.77224e-06 	-0.0211628
0.0148495 	-0.000899739 	-1.77224e-06 	-0.0211628
0.0148997 	-0.000456522 	-9.07087e-08 	-0.0140057
0.0148997 	-0.000456522 	-9.07087e-08 	-0.0140057
0.0149498 	-0.00012769 	7.59933e-07 	-0.00701678
0.0149498 	-0.00012769 	7.59933e-07 	-0.00701678
0.015 	0 	0 	0
