/*--------------------------------*- C++ -*----------------------------------*\
| =========                 |                                                 |
| \\      /  F ield         | OpenFOAM: The Open Source CFD Toolbox           |
|  \\    /   O peration     | Version:  v1912                                 |
|   \\  /    A nd           | Website:  www.openfoam.com                      |
|    \\/     M anipulation  |                                                 |
\*---------------------------------------------------------------------------*/
FoamFile
{
    version     2.0;
    format      ascii;
    class       volScalarField;
    location    "99.6";
    object      k;
}
// * * * * * * * * * * * * * * * * * * * * * * * * * * * * * * * * * * * * * //

dimensions      [0 2 -2 0 0 0 0];


internalField   nonuniform List<scalar> 
2000
(
8.04302e-06
6.02312e-05
0.000131461
0.000168997
0.000174907
0.000176935
0.000174902
0.000169
0.000131482
6.02702e-05
1.41042e-05
0.00029414
0.000481461
0.000559544
0.000579817
0.00058526
0.000579805
0.000559543
0.000481496
0.000294228
3.95663e-05
0.000805404
0.000849431
0.000876237
0.000895523
0.000900904
0.00089551
0.000876219
0.000849433
0.000805429
0.000258399
0.00094683
0.00088075
0.000889209
0.000902701
0.000907566
0.00090269
0.000889185
0.000880739
0.000946783
0.000816964
0.000903335
0.000789159
0.000798655
0.000808457
0.000813375
0.000808447
0.000798632
0.000789145
0.000903261
0.00135821
0.000845918
0.000679875
0.000685254
0.00069325
0.000698121
0.00069324
0.000685232
0.000679854
0.000845834
0.00152788
0.000787704
0.000576312
0.000569053
0.000574354
0.000578643
0.000574344
0.000569029
0.000576279
0.000787613
0.00137191
0.000716184
0.000485573
0.000462183
0.000464062
0.000467218
0.000464053
0.00046216
0.000485531
0.00071609
0.0011005
0.000628591
0.000419833
0.000392446
0.000393251
0.000395158
0.000393247
0.000392434
0.000419798
0.000628509
0.000835878
0.000535719
0.000405478
0.000395993
0.000399889
0.000401016
0.000399897
0.000396001
0.000405471
0.000535667
3.70548e-05
0.000177665
0.000255059
0.000287666
0.000305611
0.000311191
0.000305615
0.000287678
0.000255099
0.000177711
3.67526e-05
0.000517402
0.000654108
0.000723926
0.000764428
0.000775923
0.00076443
0.000723942
0.000654173
0.000517498
0.000196391
0.000982069
0.00102731
0.00107262
0.00111102
0.00112212
0.00111102
0.00107263
0.00102734
0.000982125
0.000563465
0.00112853
0.00109851
0.00112178
0.00115374
0.00116352
0.00115374
0.00112179
0.00109852
0.00112853
0.000967117
0.00111272
0.00105756
0.00106861
0.0010935
0.00110165
0.00109351
0.00106863
0.00105755
0.0011127
0.00122306
0.00101736
0.000967534
0.00097243
0.000990697
0.000997295
0.000990715
0.000972458
0.000967528
0.00101733
0.00121226
0.000885958
0.000854135
0.000855543
0.000868432
0.000873561
0.000868456
0.000855579
0.000854134
0.000885935
0.000987156
0.000742745
0.00072963
0.00072843
0.00073679
0.000740352
0.000736817
0.00072847
0.000729632
0.000742726
0.000725245
0.000598175
0.000597935
0.000596918
0.000602142
0.000604261
0.000602168
0.000596954
0.000597939
0.000598159
0.00050576
0.000464196
0.000472223
0.000473508
0.000476994
0.000478072
0.000477014
0.000473535
0.000472228
0.000464187
3.02687e-05
0.000193336
0.000244725
0.000259658
0.000268939
0.000270527
0.00026894
0.000259666
0.00024475
0.000193397
0.000145465
0.000494389
0.000569971
0.000590977
0.000602451
0.00060433
0.000602443
0.000590974
0.000570004
0.000494487
0.000590123
0.000848074
0.000862377
0.000885685
0.000897916
0.000901723
0.000897904
0.00088567
0.000862392
0.000848104
0.00101281
0.000956999
0.000881434
0.000899328
0.000913074
0.000917868
0.000913062
0.000899309
0.000881429
0.000956957
0.00136721
0.000961364
0.000802476
0.000812302
0.000825789
0.000830807
0.000825779
0.000812282
0.000802454
0.000961271
0.00159466
0.000902326
0.000688895
0.000688799
0.000700107
0.000704939
0.000700098
0.000688778
0.000688862
0.00090221
0.00160935
0.00081218
0.000573552
0.000560704
0.000568508
0.000572795
0.000568499
0.000560682
0.000573509
0.000812065
0.00141869
0.000714914
0.000475361
0.00044836
0.000452623
0.000456049
0.000452616
0.000448339
0.000475313
0.000714809
0.00112588
0.000612635
0.000409854
0.000380478
0.000382938
0.000385317
0.000382936
0.000380466
0.000409817
0.000612552
0.000840812
0.000520307
0.000399336
0.000388369
0.000392736
0.000394307
0.000392744
0.000388376
0.000399328
0.000520259
0.000150292
0.00023808
0.000272242
0.000297836
0.000316675
0.000322336
0.000316676
0.000297845
0.000272269
0.000238129
0.000429829
0.000607345
0.000678168
0.000731132
0.000767702
0.000779183
0.000767698
0.00073114
0.000678211
0.00060743
0.000865599
0.000986013
0.00102515
0.00106774
0.00110034
0.00111119
0.00110034
0.00106775
0.00102517
0.000986052
0.00110097
0.001106
0.00109999
0.00112961
0.00115744
0.00116685
0.00115744
0.00112962
0.0011
0.00110599
0.00125266
0.00111936
0.00107013
0.00108772
0.00111112
0.00111893
0.00111114
0.00108774
0.00107013
0.00111932
0.00129944
0.00104588
0.000982182
0.000990829
0.00100964
0.00101586
0.00100966
0.000990859
0.000982174
0.00104583
0.00120061
0.000909167
0.000859092
0.000863434
0.000877675
0.000882465
0.0008777
0.000863472
0.00085909
0.000909127
0.000962424
0.000745968
0.000725845
0.000728249
0.000737881
0.000741185
0.000737909
0.000728289
0.000725848
0.000745942
0.000682621
0.000587299
0.000593131
0.000595287
0.000601032
0.000602954
0.000601058
0.000595324
0.000593138
0.000587286
0.000462541
0.000452061
0.00046964
0.000472526
0.0004754
0.000476239
0.000475419
0.000472553
0.000469647
0.000452058
8.32324e-05
0.000217818
0.000255526
0.000262407
0.000267698
0.000267597
0.000267693
0.000262408
0.000255539
0.000217872
0.000250518
0.000492814
0.00057821
0.000592542
0.000602088
0.000603024
0.000602071
0.000592531
0.00057823
0.000492906
0.000702323
0.00077868
0.000843331
0.000867529
0.000878429
0.000882168
0.000878413
0.000867514
0.000843348
0.000778722
0.00101072
0.000859302
0.00085391
0.000877669
0.000888574
0.000893265
0.000888559
0.00087765
0.000853914
0.000859283
0.00125459
0.000892198
0.000788288
0.000802233
0.000812507
0.000817101
0.000812495
0.000802212
0.000788274
0.000892126
0.00142736
0.000888632
0.00069178
0.000692175
0.000700975
0.000705183
0.000700965
0.000692152
0.000691749
0.000888524
0.00148462
0.000835919
0.000582658
0.000566415
0.00057276
0.000576328
0.000572753
0.000566391
0.000582613
0.0008358
0.0013794
0.000739869
0.000478487
0.000448456
0.000451928
0.00045467
0.000451921
0.000448434
0.000478439
0.000739758
0.00113098
0.000622267
0.00040616
0.000375263
0.000377431
0.000379301
0.000377429
0.00037525
0.000406125
0.000622182
0.00084109
0.000517642
0.000394368
0.000382957
0.000387402
0.000388734
0.000387408
0.000382963
0.000394361
0.000517596
0.00026669
0.0002512
0.000274201
0.000295279
0.000311492
0.000316739
0.00031149
0.00029528
0.000274218
0.000251234
0.000679297
0.000625027
0.000678356
0.000726005
0.000762569
0.000774545
0.000762563
0.000726004
0.000678384
0.000625083
0.00105973
0.000990546
0.00102924
0.0010713
0.00110531
0.00111713
0.0011053
0.0010713
0.00102926
0.000990565
0.00118686
0.00108608
0.00109839
0.00113301
0.0011617
0.00117209
0.0011617
0.00113302
0.00109839
0.00108607
0.00120958
0.00107508
0.00106191
0.00108817
0.00111141
0.0011199
0.00111142
0.00108819
0.0010619
0.00107505
0.00115484
0.00100007
0.000971607
0.000989911
0.00100833
0.00101492
0.00100835
0.000989942
0.000971604
0.00100003
0.00102127
0.000880524
0.00085253
0.000864275
0.000878452
0.000883344
0.000878476
0.000864313
0.000852531
0.000880485
0.000819167
0.000734712
0.000722634
0.000729726
0.000739676
0.000743013
0.000739704
0.000729767
0.000722639
0.000734685
0.000599317
0.000583659
0.000591532
0.000596403
0.000602308
0.000604248
0.000602335
0.00059644
0.00059154
0.000583645
0.000420211
0.000449931
0.000469362
0.000473452
0.000475885
0.000476726
0.000475904
0.000473479
0.00046937
0.000449928
8.89048e-05
0.000236125
0.00027441
0.000278488
0.00028179
0.000281367
0.000281784
0.000278483
0.000274413
0.00023616
0.000132788
0.000499377
0.00059449
0.000603179
0.000608717
0.00060828
0.000608699
0.000603161
0.0005945
0.000499447
0.000425896
0.000736809
0.000833934
0.000859246
0.00086889
0.000871604
0.000868874
0.000859232
0.000833956
0.00073686
0.000687684
0.000798151
0.000841002
0.000867963
0.000879286
0.000883681
0.000879273
0.000867947
0.000841016
0.000798156
0.000957619
0.000840393
0.000781629
0.000799397
0.000810098
0.000814954
0.000810088
0.000799377
0.000781622
0.000840341
0.00118965
0.000859787
0.000694326
0.000695684
0.000703931
0.000708339
0.000703922
0.000695661
0.000694297
0.000859693
0.00132738
0.00082896
0.000586683
0.000570142
0.000575295
0.000578909
0.000575287
0.000570119
0.000586638
0.000828845
0.00130704
0.000742293
0.000477907
0.000447654
0.000450064
0.000452757
0.000450058
0.000447632
0.000477858
0.000742183
0.00110928
0.000621558
0.000400068
0.000370001
0.000371825
0.000373654
0.000371823
0.000369988
0.000400032
0.000621473
0.00083097
0.000511552
0.000387274
0.000377363
0.000382106
0.000383445
0.000382113
0.000377369
0.000387268
0.000511507
0.00031948
0.000234552
0.000256799
0.0002761
0.000291404
0.000296661
0.000291401
0.000276098
0.000256815
0.000234583
0.000897194
0.000621308
0.000663284
0.000704863
0.00074007
0.000752003
0.000740064
0.000704859
0.000663314
0.000621366
0.00131262
0.000988132
0.00101481
0.00105473
0.00108881
0.00110089
0.00108881
0.00105473
0.00101483
0.000988158
0.00135991
0.0010402
0.00106766
0.00110767
0.00113701
0.00114788
0.00113702
0.00110769
0.00106768
0.0010402
0.00123707
0.000989226
0.00101965
0.00105703
0.00108153
0.00109069
0.00108154
0.00105705
0.00101966
0.000989216
0.0010421
0.00090615
0.000936436
0.000966549
0.000986425
0.000993676
0.000986442
0.000966582
0.000936446
0.000906135
0.000829204
0.00081
0.000834523
0.000855091
0.000870376
0.000875762
0.000870399
0.00085513
0.00083453
0.000809982
0.000642511
0.000700193
0.000717369
0.000729704
0.000740324
0.000743953
0.000740351
0.000729745
0.000717376
0.000700174
0.000499652
0.000576063
0.000592169
0.000599492
0.000605659
0.000607715
0.000605686
0.00059953
0.000592177
0.000576049
0.000381483
0.000451619
0.000472235
0.000477204
0.000479484
0.00048029
0.000479504
0.000477232
0.000472244
0.000451615
0.000106633
0.000247118
0.000292083
0.000299953
0.000305696
0.000306678
0.000305689
0.00029995
0.000292087
0.000247152
0.00010673
0.000509383
0.000620726
0.000632038
0.000636329
0.00063605
0.000636311
0.000632022
0.000620733
0.000509454
0.000190054
0.000739681
0.000863574
0.000888499
0.000899252
0.000901376
0.000899238
0.000888487
0.000863592
0.000739745
0.000353751
0.000813839
0.000871545
0.000897202
0.0009103
0.000914306
0.00091029
0.000897189
0.000871558
0.000813849
0.000689379
0.000852018
0.000805795
0.000822842
0.000834425
0.000839336
0.000834417
0.000822826
0.000805791
0.000851966
0.00103137
0.000852273
0.000700846
0.000704625
0.000712846
0.000717636
0.000712839
0.000704605
0.000700822
0.000852176
0.00125283
0.000805077
0.000580344
0.000568173
0.000572886
0.00057696
0.000572878
0.00056815
0.000580306
0.000804965
0.0012618
0.000714778
0.000468552
0.00044282
0.000444908
0.000448003
0.0004449
0.000442797
0.000468508
0.000714672
0.00107244
0.000601825
0.000392782
0.000366218
0.000368082
0.000370188
0.000368078
0.000366204
0.000392749
0.000601744
0.000813105
0.00050264
0.000382351
0.000374532
0.0003796
0.000381088
0.000379606
0.000374537
0.000382345
0.000502597
0.000156909
0.000118757
0.00015708
0.000186108
0.000202216
0.000207177
0.000202213
0.000186107
0.0001571
0.000118801
0.00087932
0.000468253
0.000500112
0.0005431
0.000581256
0.000593692
0.00058125
0.000543093
0.000500139
0.000468324
0.00136816
0.000861873
0.000892633
0.000935536
0.000968211
0.000979518
0.00096821
0.00093554
0.00089266
0.000861936
0.0015217
0.000923284
0.000977972
0.00102436
0.00105352
0.00106344
0.00105352
0.00102438
0.000978
0.000923343
0.00133308
0.000903279
0.000969314
0.00101112
0.00103708
0.0010457
0.00103709
0.00101115
0.000969336
0.00090332
0.00102004
0.000852862
0.000918067
0.000950758
0.000972363
0.000979534
0.00097238
0.000950792
0.000918083
0.000852884
0.000732717
0.00078558
0.000833642
0.000855115
0.000871101
0.000876559
0.000871125
0.000855154
0.00083365
0.000785579
0.000552098
0.000695763
0.000721503
0.000733898
0.000744434
0.000748098
0.000744461
0.000733939
0.00072151
0.000695746
0.000453334
0.000579619
0.000596209
0.000603569
0.000609566
0.000611581
0.000609593
0.000603608
0.000596218
0.000579602
0.000366208
0.000455334
0.000476054
0.000481024
0.000483348
0.000484065
0.000483369
0.000481052
0.000476064
0.000455328
0.000625336
0.000480587
0.000460869
0.000478557
0.000487651
0.000488835
0.000487668
0.000478582
0.000460894
0.000480576
0.000517275
0.000504896
0.00056669
0.00060271
0.000616046
0.000617828
0.000616063
0.000602739
0.000566733
0.000504917
0.000525898
0.000596529
0.000695634
0.000741531
0.000757839
0.00076044
0.00075785
0.000741554
0.000695684
0.000596566
0.00062361
0.00072674
0.000829277
0.000877579
0.000894694
0.000897958
0.000894697
0.000877592
0.000829328
0.000726779
0.000753109
0.00084452
0.000928481
0.000971756
0.000986674
0.000990002
0.000986669
0.000971758
0.000928521
0.000844551
0.000841321
0.000894487
0.000949065
0.000983056
0.000993995
0.000996961
0.000993985
0.000983047
0.000949087
0.000894504
0.000836228
0.000843506
0.000867317
0.000890103
0.000896062
0.000898301
0.000896048
0.000890085
0.000867315
0.000843511
0.000692763
0.000659545
0.000651442
0.000662345
0.000662914
0.000663701
0.000662899
0.000662322
0.00065142
0.00065954
0.000129253
0.000115196
0.000109186
0.000112218
0.000112425
0.000112502
0.000112422
0.000112214
0.000109182
0.000115196
6.21458e-05
5.9569e-05
5.84618e-05
6.01063e-05
6.06914e-05
6.08326e-05
6.06908e-05
6.01061e-05
5.84621e-05
5.95697e-05
0.000384785
0.000382226
0.000394207
0.000399009
0.000402139
0.000403122
0.000402144
0.000399018
0.00039421
0.000382231
0.000391261
0.000401025
0.000413528
0.000423698
0.000428579
0.000430803
0.000428568
0.00042369
0.000413529
0.000401048
0.000489822
0.000501462
0.000516418
0.000533597
0.000541554
0.000545635
0.000541537
0.000533583
0.000516419
0.000501496
0.000630492
0.000639301
0.000655778
0.000677764
0.000688192
0.000694077
0.000688179
0.000677753
0.000655778
0.000639338
0.000767077
0.000766251
0.000783476
0.000808038
0.000820396
0.000827817
0.00082039
0.000808033
0.000783473
0.000766284
0.000860197
0.000852763
0.000872562
0.000899565
0.000914878
0.000923743
0.00091488
0.00089957
0.00087256
0.000852791
0.000884243
0.000874898
0.000900809
0.000931606
0.000950429
0.000960062
0.000950439
0.000931621
0.000900812
0.000874921
0.00076636
0.000762289
0.000797142
0.000829938
0.000851244
0.000860255
0.000851261
0.000829965
0.000797156
0.000762308
0.000120212
0.000113793
0.000131834
0.00014361
0.000151086
0.000154876
0.000151099
0.000143627
0.000131837
0.000113797
3.3537e-05
3.21756e-05
3.54928e-05
3.81932e-05
3.98445e-05
4.05873e-05
3.98473e-05
3.81968e-05
3.54943e-05
3.21765e-05
0.000625872
0.000478327
0.000460963
0.000477717
0.000486301
0.000487651
0.000486317
0.00047774
0.000460986
0.00047832
0.000527111
0.000517228
0.000572836
0.000608332
0.000620429
0.000622052
0.000620447
0.00060836
0.000572878
0.000517251
0.000543594
0.00061209
0.000699834
0.000744006
0.000758405
0.00076061
0.000758419
0.00074403
0.000699882
0.000612126
0.00062762
0.000722773
0.000813693
0.00085878
0.000874218
0.000876956
0.000874226
0.000858794
0.00081374
0.000722808
0.000724165
0.000810372
0.000887296
0.000927707
0.000942665
0.000945516
0.000942663
0.000927708
0.000887337
0.000810399
0.000803036
0.000861559
0.000917265
0.00094966
0.000962138
0.000963795
0.00096212
0.000949644
0.000917295
0.000861575
0.000832821
0.000857444
0.00088989
0.000912923
0.000923017
0.00092389
0.000922989
0.000912897
0.000889902
0.000857451
0.000747677
0.00072899
0.000736722
0.0007454
0.000750476
0.000750918
0.000750443
0.000745365
0.000736707
0.000728984
0.000105055
9.7988e-05
0.000105855
0.000107651
0.000110156
0.000111018
0.000110152
0.000107649
0.000105849
9.79856e-05
2.13897e-05
1.97505e-05
2.22151e-05
2.33294e-05
2.42214e-05
2.4633e-05
2.42218e-05
2.33302e-05
2.22143e-05
1.97502e-05
0.000360507
0.000376141
0.000393124
0.00039786
0.000399591
0.000400289
0.000399595
0.000397868
0.000393128
0.000376151
0.000385166
0.00039635
0.000408896
0.000418245
0.000421761
0.000423723
0.00042175
0.000418236
0.000408897
0.000396375
0.000480862
0.000485373
0.000495794
0.000510792
0.000517683
0.000521379
0.000517665
0.000510777
0.000495795
0.000485407
0.000600624
0.000599881
0.000608902
0.000627397
0.000637171
0.000642173
0.000637154
0.000627383
0.000608902
0.000599919
0.000724799
0.00072097
0.00072958
0.000750166
0.000762068
0.000767702
0.000762052
0.000750154
0.00072958
0.000721006
0.000848578
0.000846153
0.000854473
0.000877234
0.000891435
0.000897394
0.00089142
0.000877223
0.000854478
0.000846186
0.000948402
0.0009536
0.000965482
0.000992475
0.00100996
0.00101634
0.00100995
0.000992468
0.000965496
0.000953627
0.00088345
0.000892331
0.000921466
0.000953365
0.000975564
0.00098213
0.000975565
0.000953375
0.00092149
0.00089235
0.000135233
0.000138631
0.000153237
0.000162582
0.00017207
0.000174376
0.000172075
0.000162594
0.000153247
0.000138637
2.25605e-05
2.28396e-05
2.61392e-05
2.80325e-05
2.98945e-05
3.04386e-05
2.9896e-05
2.80354e-05
2.61412e-05
2.28404e-05
0.000622912
0.000475192
0.000458938
0.00047526
0.000483889
0.000485241
0.000483904
0.000475282
0.000458962
0.000475187
0.000529
0.000515978
0.000570617
0.000605102
0.000616807
0.000618475
0.000616825
0.000605129
0.000570658
0.000516002
0.000545175
0.000609041
0.00069408
0.000736418
0.000749775
0.000751888
0.00074979
0.000736441
0.000694127
0.000609076
0.000634858
0.000727424
0.000814949
0.000858077
0.000871981
0.000874529
0.000871988
0.00085809
0.000814995
0.000727457
0.000761448
0.000851055
0.000925444
0.000966188
0.000980012
0.000982712
0.000980008
0.000966185
0.000925484
0.00085108
0.000884068
0.000959889
0.0010104
0.00104685
0.00105979
0.00106242
0.00105977
0.00104683
0.00101043
0.000959904
0.000950024
0.000995439
0.00102266
0.00105342
0.00106457
0.00106683
0.00106454
0.00105338
0.00102268
0.000995444
0.000823031
0.000829025
0.000843456
0.000862514
0.000871167
0.000873025
0.00087114
0.00086248
0.000843455
0.00082902
0.000125036
0.00012465
0.000128126
0.000130962
0.000133518
0.000133838
0.000133512
0.000130956
0.000128125
0.000124648
1.92509e-05
1.86123e-05
1.98452e-05
2.03323e-05
2.09707e-05
2.11315e-05
2.09703e-05
2.03322e-05
1.9845e-05
1.86121e-05
0.000340937
0.000373778
0.00039288
0.000397419
0.000398188
0.000398858
0.000398193
0.000397428
0.000392884
0.000373788
0.000376616
0.000392368
0.000406741
0.000415145
0.000417783
0.000419731
0.000417773
0.000415137
0.000406742
0.000392393
0.00047955
0.000484523
0.000496347
0.000510363
0.000516784
0.000520441
0.000516766
0.000510349
0.000496348
0.000484558
0.000611748
0.000614062
0.000622072
0.000640133
0.000649802
0.000654657
0.000649782
0.000640117
0.000622074
0.000614102
0.00075372
0.000755373
0.000759336
0.000781672
0.000794033
0.000799559
0.000794015
0.000781656
0.000759338
0.000755412
0.000889398
0.00089338
0.000896582
0.000924409
0.000939522
0.000945763
0.000939508
0.000924395
0.000896588
0.000893416
0.000976229
0.000984821
0.00099839
0.00103285
0.00105229
0.0010598
0.00105228
0.00103285
0.000998402
0.000984851
0.000874456
0.000889839
0.000922884
0.000961744
0.000986628
0.000994661
0.000986636
0.000961758
0.000922908
0.000889858
0.000138494
0.00014604
0.000157427
0.000170913
0.000180543
0.000182801
0.000180547
0.00017092
0.000157439
0.000146045
2.31957e-05
2.43914e-05
2.66945e-05
2.88251e-05
3.05642e-05
3.09481e-05
3.05652e-05
2.88269e-05
2.66967e-05
2.43922e-05
0.000618838
0.000471307
0.000455641
0.000472661
0.000481835
0.000483232
0.000481849
0.000472683
0.000455665
0.000471304
0.000533889
0.000517865
0.000571191
0.000604728
0.000616826
0.00061848
0.000616843
0.000604755
0.000571232
0.000517889
0.000557296
0.00061786
0.000698677
0.000738428
0.000751593
0.000753537
0.000751606
0.00073845
0.000698721
0.000617895
0.000658802
0.000748093
0.000831172
0.000872828
0.000886118
0.000888504
0.000886125
0.000872839
0.000831215
0.000748126
0.000804266
0.000897184
0.000971077
0.00101182
0.00102479
0.00102799
0.00102479
0.00101181
0.000971115
0.000897208
0.000954193
0.00103138
0.00108934
0.00112769
0.00114035
0.00114463
0.00114034
0.00112767
0.00108937
0.0010314
0.00101824
0.00106595
0.00110825
0.00114146
0.00115355
0.00115831
0.00115353
0.00114143
0.00110826
0.00106595
0.000851751
0.000864608
0.000887751
0.000909352
0.000918544
0.000921965
0.000918521
0.000909322
0.000887747
0.000864598
0.000130329
0.000131357
0.000134731
0.000138868
0.000140862
0.000141355
0.000140856
0.000138859
0.000134728
0.000131354
1.87457e-05
1.83998e-05
1.90264e-05
1.96892e-05
2.01652e-05
2.02557e-05
2.01645e-05
1.96883e-05
1.90258e-05
1.83995e-05
0.000323217
0.000375548
0.000396236
0.000399857
0.000399894
0.000400365
0.0003999
0.000399867
0.000396241
0.000375558
0.000369357
0.000395695
0.000410813
0.000416528
0.000418035
0.000419749
0.000418024
0.00041652
0.000410812
0.00039572
0.000488974
0.000499712
0.000513298
0.000525447
0.000531111
0.000534738
0.000531092
0.000525432
0.000513297
0.000499748
0.000649199
0.000657869
0.000670748
0.000690112
0.000699968
0.000705081
0.000699949
0.000690096
0.000670752
0.000657909
0.000815661
0.000824639
0.000834621
0.000859756
0.000873239
0.000879495
0.000873223
0.000859742
0.000834629
0.00082468
0.000943402
0.00095135
0.000959502
0.00099004
0.00100711
0.00101448
0.0010071
0.000990033
0.000959512
0.000951387
0.000981437
0.000990567
0.00100561
0.00104153
0.00106298
0.00107135
0.00106298
0.00104153
0.00100563
0.000990598
0.000841358
0.000857523
0.000885426
0.000923923
0.000948884
0.000957152
0.000948894
0.00092394
0.00088545
0.000857544
0.00014031
0.000149514
0.000159316
0.000173553
0.000183216
0.000185729
0.00018322
0.00017356
0.000159327
0.000149519
2.51152e-05
2.69165e-05
2.9064e-05
3.16052e-05
3.34635e-05
3.39283e-05
3.34644e-05
3.16067e-05
2.90662e-05
2.69172e-05
0.000617256
0.000469221
0.000453522
0.000471604
0.000481317
0.000482815
0.000481331
0.000471625
0.000453546
0.000469218
0.000544111
0.000523149
0.000576738
0.000611022
0.000623985
0.000625772
0.000624
0.000611047
0.000576779
0.000523174
0.000578959
0.000635821
0.000716845
0.000757381
0.000771461
0.000773499
0.000771472
0.0007574
0.000716891
0.000635858
0.00068431
0.000770985
0.000852568
0.000894849
0.000908615
0.000911055
0.000908621
0.000894859
0.000852612
0.000771018
0.000812754
0.000896912
0.0009702
0.00101103
0.00102382
0.00102722
0.00102382
0.00101103
0.000970237
0.000896936
0.000933549
0.000999901
0.00106359
0.00110128
0.00111298
0.00111769
0.00111297
0.00110127
0.00106362
0.000999913
0.00100014
0.00104194
0.00109437
0.0011249
0.00113453
0.00113964
0.00113451
0.00112488
0.00109438
0.00104194
0.000865127
0.000878885
0.000906486
0.000922707
0.000927367
0.00093031
0.000927344
0.000922678
0.000906475
0.000878874
0.000123562
0.000122924
0.000126505
0.0001295
0.000129956
0.000130416
0.00012995
0.000129492
0.000126498
0.000122923
1.6379e-05
1.59555e-05
1.64197e-05
1.73123e-05
1.77281e-05
1.78492e-05
1.77272e-05
1.73113e-05
1.64188e-05
1.59556e-05
0.000312005
0.000377624
0.000400293
0.00040345
0.000403573
0.000403902
0.000403579
0.000403459
0.000400297
0.000377634
0.000359989
0.000399977
0.000416052
0.000420184
0.000421293
0.000422774
0.000421283
0.000420175
0.000416049
0.000400003
0.000483263
0.00050509
0.000519742
0.000530631
0.000535788
0.00053934
0.000535772
0.000530615
0.000519738
0.000505126
0.000652511
0.000668907
0.000688875
0.000709084
0.000719495
0.000725349
0.000719481
0.000709072
0.000688876
0.000668948
0.000846652
0.000868877
0.000894653
0.000921892
0.000937017
0.000944802
0.000937007
0.000921885
0.000894662
0.000868917
0.00102933
0.00105804
0.0010831
0.00111253
0.0011308
0.00113929
0.0011308
0.00111252
0.00108312
0.00105807
0.00112373
0.00115188
0.00116991
0.00119875
0.00121892
0.00122677
0.00121892
0.00119875
0.00116994
0.0011519
0.00101837
0.00103508
0.00104527
0.00107563
0.00109786
0.00110513
0.00109787
0.00107564
0.0010453
0.0010351
0.000296964
0.000309883
0.000312527
0.000323928
0.000334326
0.000337652
0.000334331
0.000323934
0.000312547
0.000309884
8.73249e-05
9.37294e-05
9.90069e-05
0.000102512
0.00010555
0.000106588
0.000105552
0.000102515
9.90116e-05
9.37303e-05
)
;

boundaryField
{
    leftWall
    {
        type            kqRWallFunction;
        value           nonuniform List<scalar> 
100
(
8.04302e-06
3.70548e-05
3.02687e-05
0.000150292
8.32324e-05
0.00026669
8.89048e-05
0.00031948
0.000106633
0.000156909
6.02312e-05
0.000177665
0.000193336
0.00023808
0.000217818
0.0002512
0.000236125
0.000234552
0.000247118
0.000118757
0.000131461
0.000255059
0.000244725
0.000272242
0.000255526
0.000274201
0.00027441
0.000256799
0.000292083
0.00015708
0.000168997
0.000287666
0.000259658
0.000297836
0.000262407
0.000295279
0.000278488
0.0002761
0.000299953
0.000186108
0.000174907
0.000305611
0.000268939
0.000316675
0.000267698
0.000311492
0.00028179
0.000291404
0.000305696
0.000202216
0.000176935
0.000311191
0.000270527
0.000322336
0.000267597
0.000316739
0.000281367
0.000296661
0.000306678
0.000207177
0.000174902
0.000305615
0.00026894
0.000316676
0.000267693
0.00031149
0.000281784
0.000291401
0.000305689
0.000202213
0.000169
0.000287678
0.000259666
0.000297845
0.000262408
0.00029528
0.000278483
0.000276098
0.00029995
0.000186107
0.000131482
0.000255099
0.00024475
0.000272269
0.000255539
0.000274218
0.000274413
0.000256815
0.000292087
0.0001571
6.02702e-05
0.000177711
0.000193397
0.000238129
0.000217872
0.000251234
0.00023616
0.000234583
0.000247152
0.000118801
)
;
    }
    rightWall
    {
        type            kqRWallFunction;
        value           nonuniform List<scalar> 
100
(
6.21458e-05
3.3537e-05
2.13897e-05
2.25605e-05
1.92509e-05
2.31957e-05
1.87457e-05
2.51152e-05
1.6379e-05
8.73249e-05
5.9569e-05
3.21756e-05
1.97505e-05
2.28396e-05
1.86123e-05
2.43914e-05
1.83998e-05
2.69165e-05
1.59555e-05
9.37294e-05
5.84618e-05
3.54928e-05
2.22151e-05
2.61392e-05
1.98452e-05
2.66945e-05
1.90264e-05
2.9064e-05
1.64197e-05
9.90069e-05
6.01063e-05
3.81932e-05
2.33294e-05
2.80325e-05
2.03323e-05
2.88251e-05
1.96892e-05
3.16052e-05
1.73123e-05
0.000102512
6.06914e-05
3.98445e-05
2.42214e-05
2.98945e-05
2.09707e-05
3.05642e-05
2.01652e-05
3.34635e-05
1.77281e-05
0.00010555
6.08326e-05
4.05873e-05
2.4633e-05
3.04386e-05
2.11315e-05
3.09481e-05
2.02557e-05
3.39283e-05
1.78492e-05
0.000106588
6.06908e-05
3.98473e-05
2.42218e-05
2.9896e-05
2.09703e-05
3.05652e-05
2.01645e-05
3.34644e-05
1.77272e-05
0.000105552
6.01061e-05
3.81968e-05
2.33302e-05
2.80354e-05
2.03322e-05
2.88269e-05
1.96883e-05
3.16067e-05
1.73113e-05
0.000102515
5.84621e-05
3.54943e-05
2.22143e-05
2.61412e-05
1.9845e-05
2.66967e-05
1.90258e-05
2.90662e-05
1.64188e-05
9.90116e-05
5.95697e-05
3.21765e-05
1.97502e-05
2.28404e-05
1.86121e-05
2.43922e-05
1.83995e-05
2.69172e-05
1.59556e-05
9.37303e-05
)
;
    }
    leftSides_periodic0
    {
        type            cyclic;
    }
    leftSides_periodic1
    {
        type            cyclic;
    }
    rightSides_periodic0
    {
        type            cyclic;
    }
    rightSides_periodic1
    {
        type            cyclic;
    }
    leftInOut_periodic0
    {
        type            cyclic;
    }
    leftInOut_periodic1
    {
        type            cyclic;
    }
    rightInOut_periodic0
    {
        type            cyclic;
    }
    rightInOut_periodic1
    {
        type            cyclic;
    }
}


// ************************************************************************* //
