/*--------------------------------*- C++ -*----------------------------------*\
| =========                 |                                                 |
| \\      /  F ield         | OpenFOAM: The Open Source CFD Toolbox           |
|  \\    /   O peration     | Version:  v1912                                 |
|   \\  /    A nd           | Website:  www.openfoam.com                      |
|    \\/     M anipulation  |                                                 |
\*---------------------------------------------------------------------------*/
FoamFile
{
    version     2.0;
    format      ascii;
    class       surfaceScalarField;
    location    "99.6";
    object      phi;
}
// * * * * * * * * * * * * * * * * * * * * * * * * * * * * * * * * * * * * * //

dimensions      [1 0 -1 0 0 0 0];
oriented        oriented;


internalField   nonuniform List<scalar> 
5500
(
3.32033e-05
0.000957405
3.37806e-05
1.33436e-05
-4.43068e-06
8.30001e-05
2.01451e-06
-2.06067e-05
0.000110421
1.83018e-06
-3.20953e-05
0.000120547
4.65367e-07
-3.04472e-05
0.000123165
-4.70837e-07
-3.0785e-05
0.000124048
-1.83435e-06
-3.04496e-05
0.000123164
-2.01376e-06
-3.21022e-05
0.000120549
-1.3338e-05
-2.06132e-05
0.000110429
-4.441e-06
8.30175e-05
7.15677e-05
0.000872843
7.83062e-05
5.16373e-05
1.31022e-05
0.000234959
2.63433e-05
-1.70263e-05
0.000294925
1.36608e-05
-4.45197e-05
0.000314594
4.40821e-06
-4.53864e-05
0.00031969
-4.40614e-06
-4.59638e-05
0.000321246
-1.36601e-05
-4.53885e-05
0.000319689
-2.63416e-05
-4.45302e-05
0.000314597
-5.163e-05
-1.70422e-05
0.000294941
1.30794e-05
0.000234999
7.06633e-05
0.000833952
0.000143892
6.1809e-05
4.50749e-05
0.000396626
3.67226e-05
2.72267e-06
0.000472036
1.92203e-05
-3.87394e-05
0.000495004
6.29474e-06
-4.37584e-05
0.000502248
-6.28687e-06
-4.46238e-05
0.000504282
-1.92155e-05
-4.3758e-05
0.000502246
-3.67202e-05
-3.87498e-05
0.000495007
-6.18035e-05
2.69784e-06
0.000472056
4.50337e-05
0.000396678
5.15905e-05
0.000879592
0.000253447
5.88397e-05
7.01129e-05
0.000574857
3.93534e-05
2.33265e-05
0.000653817
2.06506e-05
-2.60105e-05
0.000677666
6.79951e-06
-3.59409e-05
0.000686777
-6.78885e-06
-3.71117e-05
0.000689249
-2.06436e-05
-3.59371e-05
0.000686775
-3.93505e-05
-2.60187e-05
0.000677668
-5.88352e-05
2.32939e-05
0.000653838
7.0053e-05
0.000574913
6.94664e-05
0.000896845
0.000436979
5.96807e-05
0.000108843
0.000769882
3.9754e-05
4.36245e-05
0.000850823
2.0852e-05
-1.28894e-05
0.000876069
6.88997e-06
-2.80507e-05
0.000886983
-6.87874e-06
-2.94739e-05
0.000889932
-2.08443e-05
-2.80434e-05
0.000886981
-3.97505e-05
-1.2895e-05
0.000876072
-5.96771e-05
4.35871e-05
0.000850844
0.000108768
0.000769938
6.82185e-05
0.000900548
0.000690445
5.86118e-05
0.000137041
0.000988186
4.0316e-05
5.88782e-05
0.00106911
2.12726e-05
-1.77499e-06
0.00109785
7.04042e-06
-2.20666e-05
0.00111081
-7.03042e-06
-2.36822e-05
0.00111436
-2.1265e-05
-2.20571e-05
0.00111081
-4.03115e-05
-1.77865e-06
0.00109785
-5.86079e-05
5.88386e-05
0.00106913
0.00013696
0.000988239
6.48612e-05
0.000873053
0.000999084
5.74629e-05
0.000152019
0.0012332
4.19322e-05
6.72828e-05
0.00131586
2.243e-05
6.58899e-06
0.00134974
7.40546e-06
-1.83906e-05
0.00136507
-7.39867e-06
-2.0213e-05
0.00136936
-2.24233e-05
-1.83814e-05
0.00136507
-4.19263e-05
6.58499e-06
0.00134975
-5.74578e-05
6.72425e-05
0.00131589
0.00015194
0.00123325
6.36928e-05
0.000801053
0.00134152
5.71939e-05
0.000156898
0.00151119
4.45936e-05
6.79458e-05
0.00159736
2.43864e-05
1.113e-05
0.00163707
8.0013e-06
-1.76926e-05
0.00165505
-7.99943e-06
-1.98402e-05
0.00166024
-2.43811e-05
-1.76876e-05
0.00165505
-4.45856e-05
1.1122e-05
0.00163708
-5.71861e-05
6.79054e-05
0.00159738
0.000156824
0.00151124
6.39638e-05
0.000688409
0.00170786
5.78138e-05
0.000152465
0.00183007
4.78998e-05
5.87891e-05
0.00191726
2.71214e-05
9.01268e-06
0.00196208
8.81973e-06
-2.20523e-05
0.00198284
-8.82286e-06
-2.47377e-05
0.00198909
-2.71175e-05
-2.20555e-05
0.00198284
-4.78891e-05
8.99633e-06
0.00196208
-5.7802e-05
5.87487e-05
0.00191729
0.000152403
0.00183011
6.34347e-05
0.00210346
0.000547376
5.92122e-05
0.0021936
0.00013469
5.14047e-05
0.00227563
3.64121e-05
3.05239e-05
0.00232354
-4.16248e-06
9.86094e-06
0.00234713
-3.48577e-05
-9.8663e-06
0.00235453
-3.82398e-05
-3.05194e-05
0.00234713
-3.48726e-05
-5.13911e-05
0.00232355
-4.18973e-06
-5.91972e-05
0.00227565
3.63733e-05
0.00219364
0.000134642
-2.90365e-05
5.22633e-05
3.96064e-05
-2.79552e-05
-2.02037e-05
0.000102123
-1.69829e-05
-2.33028e-05
0.000122751
-9.9826e-06
-1.62979e-05
0.000129845
-3.16333e-06
-1.73566e-05
0.000133702
3.15439e-06
-1.70057e-05
0.000134736
9.97585e-06
-1.73604e-05
0.000133703
1.69817e-05
-1.63051e-05
0.000129848
2.79638e-05
-2.33139e-05
0.000122761
-2.02103e-05
0.000102139
-2.22958e-05
5.33276e-05
0.000121857
-2.00315e-05
-6.07609e-05
0.000273252
-1.46305e-05
-4.94018e-05
0.000315623
-7.36954e-06
-3.85474e-05
0.000329583
-2.33378e-06
-3.8325e-05
0.000335623
2.33183e-06
-3.77332e-05
0.000337308
7.36722e-06
-3.83306e-05
0.000335624
1.4629e-05
-3.85569e-05
0.000329588
2.00373e-05
-4.94201e-05
0.000315639
-6.07804e-05
0.000273287
-1.31525e-05
6.20397e-06
0.000217346
-7.74703e-06
-9.7306e-05
0.000427766
-6.03851e-06
-6.70571e-05
0.000487983
-1.76408e-06
-5.51396e-05
0.000507322
-5.81202e-07
-5.22277e-05
0.000514968
5.86555e-07
-5.17987e-05
0.00051718
1.76797e-06
-5.22337e-05
0.000514968
6.03736e-06
-5.51456e-05
0.000507326
7.74987e-06
-6.70799e-05
0.000488003
-9.73435e-05
0.000427814
-6.62956e-06
-6.37757e-05
0.000336705
-3.93525e-07
-0.000117909
0.000589225
-9.70174e-07
-7.5082e-05
0.000662419
1.50755e-06
-6.569e-05
0.000685739
5.58931e-07
-5.97071e-05
0.000695206
-5.44632e-07
-5.94049e-05
0.000697959
-1.50208e-06
-5.97057e-05
0.000695205
9.58929e-07
-6.56806e-05
0.000685743
3.94674e-07
-7.51194e-05
0.000662442
-0.000117964
0.00058928
-4.05944e-06
-0.000116917
0.000498257
5.18023e-06
-0.00013146
0.000774194
1.82263e-06
-7.58149e-05
0.000854913
2.84775e-06
-7.23033e-05
0.000881658
1.15587e-06
-6.41966e-05
0.000893165
-1.13935e-06
-6.36777e-05
0.000896501
-2.83952e-06
-6.41882e-05
0.000893164
-1.82152e-06
-7.22882e-05
0.000881662
-5.17743e-06
-7.5858e-05
0.000854939
-0.000131532
0.000774252
-4.74713e-06
-0.000135572
0.000718613
5.67387e-06
-0.000141748
0.000988052
2.6966e-06
-7.56501e-05
0.00107192
3.26848e-06
-7.78109e-05
0.00110278
1.39937e-06
-6.81685e-05
0.00111665
-1.38173e-06
-6.72075e-05
0.00112067
-3.25944e-06
-6.81527e-05
0.00111665
-2.69528e-06
-7.77898e-05
0.00110279
-5.66894e-06
-7.57017e-05
0.00107195
-0.000141837
0.000988109
-6.01201e-06
-0.000122399
0.000997959
3.91676e-06
-0.000150498
0.00123202
2.81271e-06
-7.70264e-05
0.00131834
3.39375e-06
-8.29822e-05
0.00135433
1.53498e-06
-7.21947e-05
0.00137095
-1.51841e-06
-7.06025e-05
0.00137581
-3.3853e-06
-7.21723e-05
0.00137095
-2.81065e-06
-8.29571e-05
0.00135434
-3.90823e-06
-7.70905e-05
0.00131838
-0.000150606
0.00123208
-5.24569e-06
-9.52322e-05
0.00132488
2.32258e-06
-0.000155792
0.00150892
3.20775e-06
-7.93943e-05
0.00159884
3.5854e-06
-8.70094e-05
0.00164072
1.68496e-06
-7.56608e-05
0.00166041
-1.67238e-06
-7.33048e-05
0.0016663
-3.57899e-06
-7.56343e-05
0.00166042
-3.20547e-06
-8.69833e-05
0.00164073
-2.31186e-06
-7.94743e-05
0.00159888
-0.000155929
0.00150897
-2.46412e-06
-6.75366e-05
0.00168515
2.79763e-06
-0.000155873
0.00182489
4.37924e-06
-8.04277e-05
0.00191671
4.00083e-06
-8.8503e-05
0.00196395
1.86758e-06
-7.76135e-05
0.00198693
-1.86334e-06
-7.45403e-05
0.00199405
-3.99825e-06
-7.75881e-05
0.00198693
-4.37913e-06
-8.84787e-05
0.00196396
-2.79409e-06
-8.05212e-05
0.00191675
-0.000156068
0.00182494
1.69441e-06
0.00207755
-4.49237e-05
4.38835e-06
0.0021832
-0.000148167
6.56587e-06
0.00227174
-7.87143e-05
4.78593e-06
0.00232246
-8.56419e-05
2.0066e-06
0.0023488
-7.65063e-05
-2.01318e-06
0.00235734
-7.33294e-05
-4.78868e-06
0.00234881
-7.64887e-05
-6.57219e-06
0.00232248
-8.56196e-05
-4.45275e-06
0.00227178
-7.8764e-05
0.00218325
-0.000148532
-1.55954e-05
3.63359e-06
6.71762e-05
-1.42199e-05
-1.25409e-05
0.000113288
-9.59905e-06
-6.52126e-06
0.000124652
-6.25417e-06
-3.03148e-06
0.000129531
-1.98649e-06
-3.41927e-06
0.000132854
1.98076e-06
-2.90603e-06
0.000133675
6.25e-06
-3.41999e-06
0.000132854
9.59908e-06
-3.03445e-06
0.000129534
1.42251e-05
-6.52363e-06
0.000124659
-1.25471e-05
0.000113304
-2.65609e-05
-9.61783e-06
0.00018825
-2.84779e-05
-3.49767e-05
0.000297605
-1.83363e-05
-2.40507e-05
0.000323011
-1.06519e-05
-1.3828e-05
0.000332695
-3.57014e-06
-1.30887e-05
0.000338211
3.56565e-06
-1.24194e-05
0.000339686
1.06489e-05
-1.30903e-05
0.000338211
1.83366e-05
-1.38331e-05
0.000332699
2.84833e-05
-2.40538e-05
0.000323023
-3.49932e-05
0.000297637
-2.58141e-05
-4.04752e-05
0.00029985
-2.88543e-05
-5.77764e-05
0.000453606
-1.87165e-05
-4.29409e-05
0.000496736
-1.03265e-05
-2.63877e-05
0.000511492
-3.54422e-06
-2.34853e-05
0.000518582
3.54373e-06
-2.29918e-05
0.000520665
1.03265e-05
-2.3487e-05
0.000518582
1.87173e-05
-2.63925e-05
0.000511495
2.88587e-05
-4.29431e-05
0.000496752
-5.78021e-05
0.000453649
-2.3196e-05
-7.95114e-05
0.000422149
-2.57322e-05
-7.56059e-05
0.00060959
-1.74382e-05
-5.77671e-05
0.000668952
-9.35869e-06
-3.73115e-05
0.000688583
-3.22951e-06
-3.17972e-05
0.000697389
3.2323e-06
-3.15623e-05
0.000700068
9.36117e-06
-3.17983e-05
0.000697388
1.74394e-05
-3.73138e-05
0.000688586
2.57363e-05
-5.77682e-05
0.000668971
-7.56395e-05
0.000609641
-2.14079e-05
-0.000115549
0.000577125
-2.28383e-05
-8.7336e-05
0.000787355
-1.6784e-05
-6.7482e-05
0.000858574
-8.93825e-06
-4.62531e-05
0.000882754
-3.05272e-06
-3.80057e-05
0.000893488
3.05716e-06
-3.79437e-05
0.000896772
8.94215e-06
-3.80056e-05
0.000893486
1.67859e-05
-4.62518e-05
0.000882756
2.28432e-05
-6.74828e-05
0.000858597
-8.73764e-05
0.00078741
-2.08348e-05
-0.00013607
0.000780817
-2.15438e-05
-9.46504e-05
0.000996076
-1.71803e-05
-7.38862e-05
0.00107396
-9.22329e-06
-5.43066e-05
0.00110288
-3.08353e-06
-4.33323e-05
0.00111584
3.08765e-06
-4.32327e-05
0.00111979
9.22741e-06
-4.33313e-05
0.00111584
1.71832e-05
-5.43019e-05
0.00110288
2.15504e-05
-7.38875e-05
0.00107398
-9.46957e-05
0.000996131
-2.09432e-05
-0.000136753
0.00104054
-2.14517e-05
-0.000100416
0.00123829
-1.81219e-05
-7.8549e-05
0.00131968
-9.92674e-06
-6.18993e-05
0.00135373
-3.22996e-06
-4.83508e-05
0.00136928
3.23176e-06
-4.78863e-05
0.001374
9.92991e-06
-4.835e-05
0.00136927
1.81261e-05
-6.1893e-05
0.00135374
2.14605e-05
-7.85514e-05
0.00131971
-0.000100463
0.00123835
-2.04742e-05
-0.000122898
0.00135199
-2.11431e-05
-0.000105671
0.00151484
-1.86993e-05
-8.1354e-05
0.0015992
-1.05912e-05
-6.80972e-05
0.00163881
-3.35275e-06
-5.24736e-05
0.0016573
3.35049e-06
-5.12517e-05
0.00166296
1.05925e-05
-5.24747e-05
0.0016573
1.87055e-05
-6.8093e-05
0.00163882
2.11549e-05
-8.13577e-05
0.00159923
-0.000105716
0.0015149
-1.86616e-05
-0.000104584
0.00170417
-1.96397e-05
-0.000109683
0.00182988
-1.80464e-05
-8.14449e-05
0.00191521
-1.08046e-05
-7.13021e-05
0.00195991
-3.34896e-06
-5.46015e-05
0.0019816
3.34204e-06
-5.22739e-05
0.00198838
1.08036e-05
-5.46066e-05
0.0019816
1.80556e-05
-7.13048e-05
0.00195992
1.96551e-05
-8.14495e-05
0.00191524
-0.000109724
0.00182993
-1.50542e-05
0.00209123
-8.81333e-05
-1.66469e-05
0.00218608
-0.000110972
-1.56778e-05
0.00226777
-7.84427e-05
-1.03471e-05
0.00231582
-6.99892e-05
-3.18432e-06
0.00234084
-5.38014e-05
3.17466e-06
0.00234891
-5.01963e-05
1.03449e-05
0.00234084
-5.38115e-05
1.56894e-05
0.00231583
-7.00025e-05
1.66663e-05
0.0022678
-7.84482e-05
0.00218613
-0.000111009
-5.26946e-06
-4.64041e-06
8.23641e-05
-3.62958e-06
-6.29477e-06
0.000117943
-3.04241e-06
-3.02134e-06
0.000127086
-2.30433e-06
-2.20584e-06
0.000130999
-7.0922e-07
-2.60178e-06
0.000133861
7.07845e-07
-2.22578e-06
0.000134484
2.30268e-06
-2.6007e-06
0.00013386
3.04194e-06
-2.20603e-06
0.000131001
3.63206e-06
-3.02295e-06
0.000127092
-6.29946e-06
0.000117957
-1.14552e-05
-2.07078e-05
0.000227239
-1.16006e-05
-1.73847e-05
0.000308841
-8.11532e-06
-1.23048e-05
0.000328809
-5.17285e-06
-8.83554e-06
0.000336383
-1.81101e-06
-9.12677e-06
0.000341374
1.81247e-06
-8.74408e-06
0.000342581
5.17332e-06
-9.12371e-06
0.000341373
8.11607e-06
-8.83481e-06
0.000336385
1.16037e-05
-1.23064e-05
0.000328819
-1.73934e-05
0.000308868
-1.21383e-05
-4.8424e-05
0.000351852
-1.33246e-05
-3.18116e-05
0.000469219
-8.97069e-06
-2.45689e-05
0.000504646
-5.28559e-06
-1.77038e-05
0.000516676
-1.94487e-06
-1.72067e-05
0.000523322
1.95109e-06
-1.71566e-05
0.000525181
5.28972e-06
-1.72009e-05
0.000523321
8.97277e-06
-1.77002e-05
0.000516678
1.33268e-05
-2.4568e-05
0.000504659
-3.18216e-05
0.000469257
-1.12215e-05
-8.24488e-05
0.000478624
-1.2068e-05
-4.64253e-05
0.000625051
-7.9962e-06
-3.62039e-05
0.000676515
-4.37997e-06
-2.63456e-05
0.000693609
-1.66011e-06
-2.45578e-05
0.00070202
1.67094e-06
-2.49765e-05
0.000704557
4.3877e-06
-2.45485e-05
0.000702018
7.9996e-06
-2.63372e-05
0.000693611
1.20694e-05
-3.61985e-05
0.000676532
-4.64348e-05
0.000625096
-1.02053e-05
-0.00011479
0.000629882
-1.01235e-05
-5.80396e-05
0.000798888
-6.7963e-06
-4.49964e-05
0.00086404
-3.44133e-06
-3.33255e-05
0.000886379
-1.32248e-06
-2.99348e-05
0.000896746
1.33699e-06
-3.08259e-05
0.000899962
3.45214e-06
-2.99214e-05
0.000896744
6.80112e-06
-3.33108e-05
0.000886381
1.0125e-05
-4.49856e-05
0.00086406
-5.8048e-05
0.000798938
-9.57963e-06
-0.000136466
0.000821656
-8.6587e-06
-6.55205e-05
0.00100264
-6.12615e-06
-5.12283e-05
0.00107766
-2.90819e-06
-3.88829e-05
0.00110522
-1.10269e-06
-3.37191e-05
0.00111782
1.11938e-06
-3.49974e-05
0.00112174
2.92128e-06
-3.37019e-05
0.00111782
6.13269e-06
-3.88611e-05
0.00110522
8.6614e-06
-5.12123e-05
0.00107768
-6.55278e-05
0.00100269
-9.52218e-06
-0.000142836
0.00106596
-8.12949e-06
-7.05739e-05
0.00124196
-6.20143e-06
-5.63379e-05
0.00132286
-2.89231e-06
-4.41866e-05
0.00135573
-1.04504e-06
-3.71896e-05
0.0013709
1.06217e-06
-3.87098e-05
0.0013756
2.90672e-06
-3.71692e-05
0.0013709
6.21013e-06
-4.41585e-05
0.00135573
8.1348e-06
-5.63172e-05
0.00132289
-7.05803e-05
0.00124201
-9.71589e-06
-0.000136564
0.00136516
-8.18533e-06
-7.56273e-05
0.00151837
-6.7621e-06
-6.10066e-05
0.00160245
-3.24418e-06
-4.9783e-05
0.00164089
-1.09603e-06
-4.10854e-05
0.00165905
1.11174e-06
-4.26637e-05
0.0016647
3.25881e-06
-4.10636e-05
0.00165905
6.77349e-06
-4.9751e-05
0.0016409
8.19473e-06
-6.09826e-05
0.00160248
-7.56328e-05
0.00151842
-9.57911e-06
-0.000125288
0.00171207
-8.11582e-06
-8.12596e-05
0.00183405
-7.36267e-06
-6.50383e-05
0.00191849
-3.73499e-06
-5.55685e-05
0.00196207
-1.17636e-06
-4.55431e-05
0.0019835
1.18866e-06
-4.69496e-05
0.00199031
3.74869e-06
-4.55224e-05
0.0019835
7.37734e-06
-5.55366e-05
0.00196208
8.13097e-06
-6.50136e-05
0.00191852
-8.12655e-05
0.00183409
-8.63419e-06
0.00209849
-0.000115255
-7.49981e-06
0.00219035
-8.66596e-05
-7.59901e-06
0.00227088
-6.80478e-05
-4.17479e-06
0.00231798
-6.11518e-05
-1.23931e-06
0.00234276
-5.04015e-05
1.2465e-06
0.00235088
-5.14059e-05
4.18649e-06
0.00234276
-5.0385e-05
7.61736e-06
0.00231799
-6.11256e-05
7.52185e-06
0.00227091
-6.8026e-05
0.00219039
-8.6669e-05
-4.50972e-06
-7.08598e-06
9.8476e-05
-3.33715e-06
-3.24604e-06
0.000120016
-1.91019e-06
-1.82996e-06
0.000127489
-1.26239e-06
-3.27328e-07
0.000130679
-3.03237e-07
-1.5583e-07
0.000133057
3.02396e-07
3.22758e-07
0.000133556
1.26163e-06
-1.55445e-07
0.000133056
1.91014e-06
-3.26908e-07
0.000130679
3.33833e-06
-1.82948e-06
0.000127493
-3.24932e-06
0.000120028
-1.20138e-05
-1.53098e-05
0.000259503
-1.2548e-05
-7.77482e-06
0.000313903
-7.00694e-06
-8.28826e-06
0.000329727
-4.56637e-06
-2.02395e-06
0.000335639
-1.47252e-06
-1.77768e-06
0.000339902
1.47154e-06
-8.92102e-07
0.000340852
4.5656e-06
-1.7768e-06
0.000339901
7.00762e-06
-2.02343e-06
0.000335639
1.25511e-05
-8.28756e-06
0.000329733
-7.78477e-06
0.000313927
-1.56738e-05
-2.51119e-05
0.000393016
-1.8654e-05
-1.42013e-05
0.000478626
-1.09507e-05
-1.8455e-05
0.000507109
-6.93496e-06
-5.93125e-06
0.000516567
-2.38689e-06
-5.47209e-06
0.000522468
2.38687e-06
-4.47121e-06
0.000523987
6.93513e-06
-5.47073e-06
0.000522466
1.09521e-05
-5.93069e-06
0.000516568
1.86584e-05
-1.84542e-05
0.000507119
-1.4218e-05
0.000478659
-1.67776e-05
-3.8115e-05
0.000525197
-2.11725e-05
-2.17616e-05
0.000637006
-1.32058e-05
-3.00768e-05
0.00068017
-8.14688e-06
-1.16356e-05
0.000694254
-2.87514e-06
-1.06414e-05
0.000701917
2.87638e-06
-9.75948e-06
0.000704093
8.14824e-06
-1.06397e-05
0.000701915
1.32081e-05
-1.16349e-05
0.000694255
2.11778e-05
-3.00761e-05
0.000680184
-2.17841e-05
0.000637047
-1.66031e-05
-5.29747e-05
0.000677962
-2.13976e-05
-2.87481e-05
0.000810668
-1.43468e-05
-4.07951e-05
0.000867707
-8.64675e-06
-1.8103e-05
0.000887146
-3.0861e-06
-1.61953e-05
0.000896739
3.08825e-06
-1.55834e-05
0.000899612
8.64917e-06
-1.61934e-05
0.000896737
1.43501e-05
-1.81022e-05
0.000887147
2.14039e-05
-4.07946e-05
0.000867724
-2.87755e-05
0.000810715
-1.58075e-05
-6.55154e-05
0.000865826
-2.0346e-05
-3.34909e-05
0.00101192
-1.49076e-05
-4.90743e-05
0.0010805
-8.81415e-06
-2.44345e-05
0.00110546
-3.15898e-06
-2.12513e-05
0.00111722
3.16117e-06
-2.09695e-05
0.0011208
8.81721e-06
-2.12499e-05
0.00111722
1.4912e-05
-2.44341e-05
0.00110546
2.03536e-05
-4.90745e-05
0.00108052
-3.35221e-05
0.00101197
-1.48246e-05
-7.04112e-05
0.00110052
-1.88253e-05
-3.54926e-05
0.00124796
-1.52732e-05
-5.45294e-05
0.00132476
-8.91027e-06
-3.0332e-05
0.00135526
-3.18969e-06
-2.55742e-05
0.0013695
3.19061e-06
-2.55945e-05
0.00137385
8.91332e-06
-2.55744e-05
0.0013695
1.52791e-05
-3.03334e-05
0.00135527
1.88347e-05
-5.45304e-05
0.00132479
-3.55263e-05
0.00124801
-1.37702e-05
-6.55875e-05
0.00138789
-1.72148e-05
-3.60175e-05
0.00152234
-1.55156e-05
-5.73494e-05
0.00160357
-9.0128e-06
-3.57268e-05
0.00163978
-3.20953e-06
-2.92132e-05
0.00165688
3.20796e-06
-2.94299e-05
0.00166212
9.01517e-06
-2.92167e-05
0.00165688
1.55233e-05
-3.57322e-05
0.00163979
1.72265e-05
-5.73517e-05
0.00160359
-3.60519e-05
0.00152238
-1.2372e-05
-5.38443e-05
0.00172509
-1.53017e-05
-3.61512e-05
0.00183711
-1.53493e-05
-5.7551e-05
0.00191874
-9.03711e-06
-4.00069e-05
0.00196004
-3.19317e-06
-3.18349e-05
0.00198028
3.189e-06
-3.20693e-05
0.00198656
9.03866e-06
-3.18432e-05
0.00198028
1.53588e-05
-4.00183e-05
0.00196004
1.5316e-05
-5.75546e-05
0.00191876
-3.61843e-05
0.00183715
-1.0187e-05
0.00210493
-3.98939e-05
-1.27041e-05
0.00219221
-3.55022e-05
-1.43964e-05
0.00226967
-5.46539e-05
-8.92896e-06
0.00231426
-4.17577e-05
-3.11197e-06
0.00233772
-3.26105e-05
3.10744e-06
0.00234517
-3.25781e-05
8.93063e-06
0.00233772
-3.26237e-05
1.44074e-05
0.00231427
-4.1776e-05
1.27205e-05
0.0022697
-5.46584e-05
0.00219225
-3.55329e-05
-4.88929e-07
-1.75817e-06
0.000101215
-1.07868e-06
-1.28148e-06
0.000121888
-1.37233e-06
-1.8966e-06
0.000129679
-9.0047e-07
-2.63367e-06
0.00013284
-2.96738e-07
-2.78361e-06
0.000135237
2.97719e-07
-2.87641e-06
0.000135837
9.01066e-07
-2.7832e-06
0.000135236
1.3722e-06
-2.63241e-06
0.00013284
1.07931e-06
-1.89652e-06
0.000129682
-1.28099e-06
0.000121897
-2.05334e-06
-1.03981e-05
0.000272256
-3.03144e-06
-5.77796e-06
0.000319378
-2.21508e-06
-7.28807e-06
0.000334302
-1.63161e-06
-7.32019e-06
0.000339742
-5.2788e-07
-7.79295e-06
0.000343808
5.31446e-07
-7.89084e-06
0.000344807
1.63398e-06
-7.79124e-06
0.000343806
2.21564e-06
-7.31626e-06
0.000339741
3.03279e-06
-7.28727e-06
0.000334307
-5.77708e-06
0.000319396
-3.2126e-06
-2.64318e-05
0.000415481
-4.19351e-06
-1.2849e-05
0.000486678
-2.3279e-06
-1.44149e-05
0.00051237
-1.7293e-06
-1.22518e-05
0.0005209
-5.72858e-07
-1.29564e-05
0.000526475
5.79699e-07
-1.2999e-05
0.000527942
1.73418e-06
-1.29526e-05
0.000526473
2.32972e-06
-1.2244e-05
0.0005209
4.19492e-06
-1.44122e-05
0.000512379
-1.28478e-05
0.000486706
-3.95038e-06
-4.49457e-05
0.000551618
-4.86299e-06
-2.0803e-05
0.000645872
-2.30695e-06
-2.17005e-05
0.000684899
-1.59762e-06
-1.64938e-05
0.000697787
-5.42016e-07
-1.7211e-05
0.000705116
5.52256e-07
-1.71907e-05
0.000707191
1.60517e-06
-1.72044e-05
0.000705114
2.31017e-06
-1.64812e-05
0.000697787
4.86442e-06
-2.16948e-05
0.000684912
-2.08017e-05
0.000645909
-4.41363e-06
-6.26441e-05
0.000704494
-5.21955e-06
-2.80432e-05
0.000818714
-2.25876e-06
-2.84893e-05
0.000871535
-1.37983e-06
-1.98388e-05
0.000889612
-4.72456e-07
-2.02975e-05
0.000898918
4.85987e-07
-2.02208e-05
0.000901683
1.38995e-06
-2.02876e-05
0.000898916
2.26354e-06
-1.98207e-05
0.000889613
5.22135e-06
-2.84796e-05
0.000871551
-2.8042e-05
0.000818757
-4.60835e-06
-7.65842e-05
0.000888989
-5.24067e-06
-3.3427e-05
0.00101793
-2.20781e-06
-3.43944e-05
0.00108337
-1.15467e-06
-2.25045e-05
0.00110707
-3.88911e-07
-2.24543e-05
0.00111861
4.05284e-07
-2.23349e-05
0.00112212
1.167e-06
-2.24405e-05
0.00111861
2.21442e-06
-2.24805e-05
0.00110707
5.24362e-06
-3.43804e-05
0.00108339
-3.34263e-05
0.00101798
-4.59423e-06
-8.4393e-05
0.00111752
-4.98049e-06
-3.67143e-05
0.00125163
-2.20934e-06
-3.91798e-05
0.00132678
-9.93973e-07
-2.47474e-05
0.00135629
-3.20829e-07
-2.4012e-05
0.00137039
3.3904e-07
-2.3871e-05
0.00137472
1.00787e-06
-2.39941e-05
0.00137038
2.21817e-06
-2.47183e-05
0.00135629
4.98572e-06
-3.91619e-05
0.0013268
-3.67143e-05
0.00125168
-4.52395e-06
-8.62874e-05
0.00139885
-4.60167e-06
-3.87997e-05
0.0015245
-2.31947e-06
-4.28666e-05
0.00160497
-9.30244e-07
-2.68091e-05
0.00164045
-2.86823e-07
-2.52828e-05
0.00165751
3.05151e-07
-2.51557e-05
0.00166281
9.44914e-07
-2.52614e-05
0.00165751
2.33101e-06
-2.6777e-05
0.00164046
4.6106e-06
-4.28462e-05
0.001605
-3.88005e-05
0.00152455
-4.421e-06
-8.4484e-05
0.00173214
-4.14665e-06
-4.06169e-05
0.00183865
-2.4899e-06
-4.54485e-05
0.00191966
-9.25373e-07
-2.89405e-05
0.0019606
-2.64852e-07
-2.66152e-05
0.00198095
2.80941e-07
-2.65429e-05
0.0019874
9.39909e-07
-2.65924e-05
0.00198095
2.50475e-06
-2.89087e-05
0.00196061
4.16066e-06
-4.54278e-05
0.00191969
-4.06188e-05
0.0018387
-4.13876e-06
0.00210934
-8.05874e-05
-3.48018e-06
0.00219307
-4.2135e-05
-2.52963e-06
0.00227008
-4.68066e-05
-9.02801e-07
0.00231496
-3.12615e-05
-2.32098e-07
0.00233877
-2.83363e-05
2.4358e-07
0.00234653
-2.83839e-05
9.16279e-07
0.00233877
-2.83158e-05
2.54857e-06
0.00231497
-3.12356e-05
3.50016e-06
0.00227011
-4.67881e-05
0.00219311
-4.21392e-05
-2.98409e-06
-6.9291e-07
0.000107878
-1.98052e-06
-7.06036e-07
0.00012159
-7.61191e-07
1.6243e-08
0.000128444
-4.94e-07
1.66182e-06
0.000130911
-9.18839e-08
1.96477e-06
0.00013287
9.25753e-08
2.33928e-06
0.000133314
4.94696e-07
1.96524e-06
0.000132869
7.61868e-07
1.66281e-06
0.00013091
1.98087e-06
1.77215e-08
0.000128446
-7.06889e-07
0.000121598
-8.7445e-06
4.3804e-06
0.000284681
-9.49831e-06
-4.42313e-07
0.000319868
-5.59428e-06
-2.38677e-06
0.000332801
-3.67871e-06
2.36232e-06
0.000337126
-1.17192e-06
2.68357e-06
0.000340582
1.17222e-06
3.45314e-06
0.000341349
3.67925e-06
2.68445e-06
0.00034058
5.59544e-06
2.36421e-06
0.000337124
9.50072e-06
-2.38465e-06
0.000332804
-4.47519e-07
0.000319884
-1.23442e-05
8.33599e-06
0.000436228
-1.55636e-05
-1.97903e-06
0.000491434
-9.83086e-06
-8.93516e-06
0.000513186
-6.42039e-06
-1.80581e-07
0.000520033
-2.14529e-06
-6.18576e-08
0.000524945
2.14509e-06
9.77941e-07
0.000526127
6.42064e-06
-6.08275e-08
0.000524943
9.8323e-06
-1.78233e-07
0.000520031
1.55684e-05
-8.93391e-06
0.000513192
-1.99033e-06
0.000491459
-1.37669e-05
6.34293e-06
0.000581161
-1.87211e-05
-6.36946e-06
0.000655217
-1.25066e-05
-1.83022e-05
0.000688052
-8.08747e-06
-5.47736e-06
0.000698665
-2.76429e-06
-5.51873e-06
0.00070525
2.76396e-06
-4.33841e-06
0.000706979
8.08782e-06
-5.51787e-06
0.000705248
1.25086e-05
-5.47506e-06
0.000698664
1.87279e-05
-1.83027e-05
0.000688062
-6.38639e-06
0.000655249
-1.38374e-05
-1.72556e-06
0.000740254
-1.97616e-05
-1.22843e-05
0.000830554
-1.40965e-05
-2.83206e-05
0.000875888
-9.01716e-06
-1.22048e-05
0.00089126
-3.12761e-06
-1.21923e-05
0.000899703
3.12717e-06
-1.09685e-05
0.000902059
9.01775e-06
-1.2192e-05
0.0008997
1.40994e-05
-1.22033e-05
0.00089126
1.97699e-05
-2.83231e-05
0.000875901
-1.23057e-05
0.000830592
-1.33122e-05
-1.27194e-05
0.000926625
-1.95746e-05
-1.76223e-05
0.00102953
-1.50198e-05
-3.71763e-05
0.00108767
-9.51371e-06
-1.91552e-05
0.00110851
-3.33665e-06
-1.88017e-05
0.00111904
3.33563e-06
-1.76041e-05
0.00112209
9.51442e-06
-1.88027e-05
0.00111904
1.50239e-05
-1.91556e-05
0.00110851
1.95846e-05
-3.71812e-05
0.00108769
-1.76471e-05
0.00102958
-1.25302e-05
-2.18265e-05
0.00115171
-1.87697e-05
-2.10662e-05
0.00126131
-1.55805e-05
-4.38055e-05
0.00133022
-9.8067e-06
-2.55475e-05
0.00135691
-3.46469e-06
-2.45824e-05
0.00136982
3.46221e-06
-2.34362e-05
0.00137363
9.80712e-06
-2.45856e-05
0.00136982
1.55861e-05
-2.55514e-05
0.00135691
1.87813e-05
-4.38129e-05
0.00133024
-2.10932e-05
0.00126136
-1.15733e-05
-2.49339e-05
0.00142512
-1.76064e-05
-2.27533e-05
0.00153222
-1.5923e-05
-4.81726e-05
0.00160766
-1.00332e-05
-3.10803e-05
0.0016401
-3.55485e-06
-2.92603e-05
0.00165571
3.55004e-06
-2.81048e-05
0.00166038
1.00329e-05
-2.92671e-05
0.00165571
1.59303e-05
-3.10894e-05
0.0016401
1.76199e-05
-4.81822e-05
0.00160768
-2.2781e-05
0.00153226
-1.03412e-05
-2.1524e-05
0.00174943
-1.60822e-05
-2.35618e-05
0.0018452
-1.59608e-05
-5.01951e-05
0.00192156
-1.02152e-05
-3.49894e-05
0.00195877
-3.6183e-06
-3.21604e-05
0.00197726
3.61144e-06
-3.08404e-05
0.00198291
1.02143e-05
-3.21718e-05
0.00197725
1.59699e-05
-3.50052e-05
0.00195877
1.60976e-05
-5.02058e-05
0.00192159
-2.35886e-05
0.00184524
-8.65169e-06
0.0021201
-1.49652e-05
-1.41015e-05
0.00219864
-2.36807e-05
-1.55016e-05
0.00227007
-4.87838e-05
-1.03345e-05
0.00231012
-3.53149e-05
-3.66301e-06
0.0023315
-3.15609e-05
3.65678e-06
0.00233825
-2.98744e-05
1.03345e-05
0.0023315
-3.15768e-05
1.55123e-05
0.00231012
-3.5337e-05
1.41183e-05
0.00227009
-4.87936e-05
0.00219868
-2.37055e-05
1.82678e-06
-3.68025e-06
0.000107908
1.62929e-06
3.32881e-06
0.000118459
1.76407e-06
7.19215e-07
0.00012759
1.42599e-06
-2.24209e-07
0.000131474
5.02278e-07
-4.76395e-07
0.00013427
-5.00263e-07
-8.07021e-07
0.000135123
-1.42504e-06
-4.75736e-07
0.000134269
-1.76461e-06
-2.23858e-07
0.000131474
-1.6294e-06
7.1716e-07
0.000127593
3.32549e-06
0.000118468
3.0267e-06
-1.75647e-05
0.000292513
4.45948e-06
5.56534e-06
0.000316199
4.72956e-06
1.45077e-06
0.000331799
3.07189e-06
8.03593e-07
0.000337756
1.14369e-06
-7.23305e-08
0.000342106
-1.13732e-06
-5.25003e-07
0.000343348
-3.06746e-06
-7.01688e-08
0.000342105
-4.72853e-06
8.06094e-07
0.000337755
-4.46022e-06
1.4488e-06
0.000331804
5.56071e-06
0.000316214
2.74605e-06
-2.88705e-05
0.000442042
5.13524e-06
7.92562e-06
0.000486685
5.83275e-06
3.51469e-06
0.000510425
3.56333e-06
4.2955e-06
0.00051881
1.35572e-06
2.66812e-06
0.000524413
-1.3458e-06
2.36264e-06
0.000525941
-3.55586e-06
2.67242e-06
0.000524411
-5.83003e-06
4.30178e-06
0.00051881
-5.13647e-06
3.51531e-06
0.000510432
7.92214e-06
0.000486708
1.73203e-06
-3.12068e-05
0.000580032
4.23558e-06
1.06019e-05
0.000650037
5.68587e-06
5.62376e-06
0.000684493
3.49006e-06
8.82522e-06
0.000696331
1.34887e-06
6.53191e-06
0.000703528
-1.33597e-06
6.51935e-06
0.000705507
-3.48004e-06
6.53878e-06
0.000703526
-5.68169e-06
8.83644e-06
0.000696331
-4.23688e-06
5.62866e-06
0.000684504
1.06004e-05
0.000650068
3.55494e-07
-2.59971e-05
0.000734333
2.88194e-06
1.30135e-05
0.000825616
5.27514e-06
6.69209e-06
0.000872427
3.38676e-06
1.3227e-05
0.000888747
1.32154e-06
1.04383e-05
0.000897862
-1.30591e-06
1.0759e-05
0.000900447
-3.3744e-06
1.0448e-05
0.000897859
-5.2695e-06
1.32439e-05
0.000888748
-2.88275e-06
6.70225e-06
0.000872441
1.30139e-05
0.000825652
-2.98844e-07
-1.85953e-05
0.000919821
2.09885e-06
1.53659e-05
0.00102478
5.14507e-06
7.20653e-06
0.00108411
3.51785e-06
1.74237e-05
0.00110594
1.36663e-06
1.43316e-05
0.0011173
-1.34852e-06
1.49439e-05
0.00112062
-3.50329e-06
1.43443e-05
0.0011173
-5.13779e-06
1.74465e-05
0.00110595
-2.09853e-06
7.2222e-06
0.00108413
1.53678e-05
0.00102483
-3.45079e-07
-1.2947e-05
0.00114675
2.21372e-06
1.81465e-05
0.00125598
5.44193e-06
8.18098e-06
0.00132601
3.94884e-06
2.16966e-05
0.00135413
1.50395e-06
1.8508e-05
0.00136809
-1.48382e-06
1.92984e-05
0.00137226
-3.93233e-06
1.85235e-05
0.00136809
-5.43271e-06
2.17248e-05
0.00135413
-2.21144e-06
8.20151e-06
0.00132604
1.8149e-05
0.00125602
4.47131e-08
-9.78268e-06
0.00142187
3.06166e-06
2.1924e-05
0.00152543
6.06529e-06
1.01147e-05
0.00160272
4.62401e-06
2.5857e-05
0.00163738
1.71191e-06
2.27817e-05
0.00165435
-1.69072e-06
2.35634e-05
0.00165952
-4.60611e-06
2.27996e-05
0.00165435
-6.0537e-06
2.5889e-05
0.00163738
-3.05621e-06
1.01382e-05
0.00160275
2.19253e-05
0.00152547
7.57627e-07
-7.53327e-06
0.00174568
4.37269e-06
2.66752e-05
0.00183684
6.89633e-06
1.25697e-05
0.00191658
5.48483e-06
2.88052e-05
0.00195723
1.97114e-06
2.6003e-05
0.00197755
-1.95057e-06
2.65101e-05
0.00198388
-5.46655e-06
2.6022e-05
0.00197755
-6.88199e-06
2.88377e-05
0.00195724
-4.36258e-06
1.25928e-05
0.00191661
2.66692e-05
0.00183688
1.46601e-06
0.00211439
-4.73137e-06
6.08341e-06
0.00219012
3.05791e-05
7.89723e-06
0.00226681
1.40113e-05
6.51169e-06
0.00231205
2.82533e-05
2.29371e-06
0.00233597
2.57525e-05
-2.27616e-06
0.00234363
2.56925e-05
-6.4944e-06
0.00233597
2.57703e-05
-7.87955e-06
0.00231206
2.82807e-05
-6.06734e-06
0.00226684
1.40292e-05
0.00219016
3.05661e-05
1.19465e-06
1.54746e-05
9.00445e-05
5.04291e-06
4.42893e-06
0.000110182
4.51406e-06
6.59961e-06
0.000121519
2.57377e-06
6.76635e-06
0.000126648
8.92936e-07
6.16004e-06
0.000129791
-8.91655e-07
6.26614e-06
0.000130642
-2.57271e-06
6.16064e-06
0.00012979
-4.51264e-06
6.76654e-06
0.000126647
-5.04305e-06
6.60144e-06
0.000121522
4.42548e-06
0.000110193
-4.00515e-06
3.85901e-05
0.000277415
-4.91493e-06
1.26143e-05
0.000308923
-2.41668e-06
8.8534e-06
0.000327047
-1.35075e-06
9.28911e-06
0.000334167
-3.67981e-07
8.03445e-06
0.000339249
3.68679e-07
8.26586e-06
0.000340611
1.3509e-06
8.036e-06
0.000339247
2.41744e-06
9.28941e-06
0.000334165
4.91712e-06
8.85449e-06
0.000327051
1.26047e-05
0.00030894
-6.85858e-06
6.40861e-05
0.000430275
-1.03787e-05
1.53534e-05
0.000487466
-6.66475e-06
4.82479e-06
0.000510739
-3.85135e-06
5.96173e-06
0.000519324
-1.17558e-06