/*--------------------------------*- C++ -*----------------------------------*\
| =========                 |                                                 |
| \\      /  F ield         | OpenFOAM: The Open Source CFD Toolbox           |
|  \\    /   O peration     | Version:  v1912                                 |
|   \\  /    A nd           | Website:  www.openfoam.com                      |
|    \\/     M anipulation  |                                                 |
\*---------------------------------------------------------------------------*/
FoamFile
{
    version     2.0;
    format      ascii;
    class       surfaceScalarField;
    location    "99.6";
    object      phi;
}
// * * * * * * * * * * * * * * * * * * * * * * * * * * * * * * * * * * * * * //

dimensions      [1 0 -1 0 0 0 0];
oriented        oriented;


internalField   nonuniform List<scalar> 
6304
(
1.10665e-05
-3.11192e-05
4.64127e-06
-2.43201e-06
1.18753e-05
3.36912e-06
2.46054e-06
-7.5475e-06
4.20501e-06
1.16051e-05
2.71779e-06
1.48726e-05
-6.6953e-05
1.02675e-05
-4.15925e-06
2.84895e-05
9.79066e-06
4.51797e-06
-2.02632e-05
1.09493e-05
2.79673e-05
7.83551e-06
1.26642e-05
-9.82559e-05
1.52356e-05
-6.53572e-06
4.57084e-05
1.61108e-05
7.55533e-06
-3.86305e-05
1.73558e-05
4.55861e-05
1.28569e-05
1.05882e-05
-0.000125517
2.0476e-05
-8.68116e-06
6.33669e-05
2.2596e-05
1.04478e-05
-6.22843e-05
2.39006e-05
6.44566e-05
1.80733e-05
9.36204e-06
-0.00015056
2.59516e-05
-9.92528e-06
8.11405e-05
2.92629e-05
1.23781e-05
-8.94305e-05
3.05818e-05
8.41549e-05
2.35167e-05
8.53436e-06
-0.000174159
3.15612e-05
-1.07217e-05
9.89331e-05
3.60155e-05
1.38175e-05
-0.000119104
3.73231e-05
0.000104529
2.91002e-05
7.89434e-06
-0.000196613
3.72429e-05
-1.1266e-05
0.000116709
4.27951e-05
1.49637e-05
-0.000150707
4.40771e-05
0.00012551
3.47706e-05
7.32412e-06
-0.000217979
4.2948e-05
-1.16494e-05
0.000134418
4.95561e-05
1.59048e-05
-0.000183805
5.08062e-05
0.000147034
4.0485e-05
6.75176e-06
-0.000238155
4.86327e-05
-1.19205e-05
0.000151983
5.62556e-05
1.66861e-05
-0.000218054
5.74727e-05
0.00016901
4.62029e-05
6.14449e-06
-0.000256967
5.42585e-05
-1.21088e-05
0.000169321
6.2854e-05
1.73358e-05
-0.000253161
6.40402e-05
0.000191333
5.18853e-05
5.50546e-06
-0.00027425
5.97971e-05
-1.2234e-05
0.000186375
6.93225e-05
1.78533e-05
-0.000288855
7.04806e-05
0.000213887
5.75014e-05
4.86729e-06
-0.000289913
6.52355e-05
-1.23029e-05
0.000203119
7.56475e-05
1.8285e-05
-0.000324931
7.67805e-05
0.000236612
6.30328e-05
4.2824e-06
-0.000303977
7.05772e-05
-1.23146e-05
0.000219563
8.1832e-05
1.86518e-05
-0.00036122
8.29477e-05
0.000259484
6.84767e-05
3.79596e-06
-0.000316571
7.58396e-05
-1.22685e-05
0.000235762
8.78958e-05
1.89508e-05
-0.000397562
8.90077e-05
0.000282505
7.38374e-05
3.43046e-06
-0.0003279
8.10384e-05
-1.21619e-05
0.00025179
9.38584e-05
1.91546e-05
-0.000433768
9.49775e-05
0.000305708
7.91154e-05
3.18177e-06
-0.000338209
8.61889e-05
-1.20001e-05
0.000267728
9.97306e-05
1.92583e-05
-0.000469652
0.000100864
0.000329166
8.43171e-05
3.02398e-06
-0.000347711
9.13077e-05
-1.17798e-05
0.000283628
0.000105522
1.92736e-05
-0.000505041
0.000106679
0.000352956
8.94543e-05
2.93682e-06
-0.000356566
9.64071e-05
-1.14648e-05
0.000299487
0.000111241
1.92098e-05
-0.000539744
0.000112433
0.000377129
9.45353e-05
2.91334e-06
-0.000364908
0.000101498
-1.11344e-05
0.000315379
0.000116892
1.90817e-05
-0.000573671
0.000118138
0.000401727
9.95686e-05
2.94903e-06
-0.000372866
0.000106592
-1.07874e-05
0.000331374
0.000122485
1.88971e-05
-0.000606743
0.000123804
0.000426778
0.000104566
3.03918e-06
-0.000380564
0.000111698
-1.04235e-05
0.000347531
0.000128029
1.86595e-05
-0.000638891
0.000129442
0.000452283
0.00010954
3.17964e-06
-0.000388123
0.000116827
-1.0043e-05
0.000363882
0.000133543
1.83715e-05
-0.000670052
0.000135061
0.000478224
0.000114504
3.35451e-06
-0.000395659
0.000121991
-9.64584e-06
0.000380407
0.00013904
1.80352e-05
-0.000700168
0.00014067
0.000504578
0.000119472
3.52449e-06
-0.000403253
0.000127201
-9.23152e-06
0.000397017
0.000144537
1.7651e-05
-0.000729185
0.000146276
0.000531341
0.000124457
3.74074e-06
-0.000411047
0.000132466
-8.79933e-06
0.00041366
0.000150046
1.72184e-05
-0.00075705
0.00015189
0.000558493
0.000129469
3.99958e-06
-0.00041913
0.000137795
-8.35006e-06
0.000430305
0.00015558
1.67367e-05
-0.000783713
0.00015752
0.000585948
0.000134522
4.29124e-06
-0.000427572
0.000143194
-7.88747e-06
0.000447013
0.000161151
1.62075e-05
-0.000809127
0.000163175
0.000613665
0.000139624
4.59873e-06
-0.000436454
0.000148668
-7.41916e-06
0.000463968
0.000166765
1.56355e-05
-0.00083326
0.000168857
0.000641804
0.000144787
4.90146e-06
-0.000445827
0.000154223
-6.95479e-06
0.000481409
0.000172424
1.50278e-05
-0.000856097
0.00017456
0.000670652
0.000150017
5.18216e-06
-0.000455738
0.000159864
-6.50329e-06
0.000499419
0.000178124
1.439e-05
-0.000877648
0.000180274
0.000700338
0.000155315
5.43104e-06
-0.000466256
0.000165594
-6.07132e-06
0.000517823
0.000183858
1.37239e-05
-0.000897948
0.000185992
0.000730666
0.000160679
5.64383e-06
-0.000477483
0.000171422
-5.6628e-06
0.000536388
0.00018962
1.29559e-05
-0.000916976
0.000191727
0.000761303
0.000166105
5.82017e-06
-0.000489508
0.000177352
-5.27766e-06
0.000554863
0.000195503
1.21479e-05
-0.000934745
0.000197496
0.000792074
0.000171597
5.97174e-06
-0.000502356
0.000183387
-4.90761e-06
0.000572922
0.000201665
1.13188e-05
-0.000951193
0.000203314
0.000822928
0.000177155
6.13258e-06
-0.000515934
0.000189531
-4.5347e-06
0.000590145
0.000208267
1.04619e-05
-0.000966149
0.000209199
0.000853852
0.000182785
6.34514e-06
-0.000530086
0.000195784
-4.14165e-06
0.000606206
0.000215256
9.57453e-06
-0.000979466
0.000215193
0.000884816
0.000188489
6.61658e-06
-0.000544758
0.000202144
-3.73119e-06
0.000621447
0.000221988
8.6563e-06
-0.000991245
0.000221371
0.000915782
0.00019427
6.88812e-06
-0.0005601
0.000208609
-3.34051e-06
0.000636481
0.000228181
7.70938e-06
-0.00100179
0.000227748
0.000946707
0.000200132
7.0646e-06
-0.00057626
0.000215182
-3.01773e-06
0.000651549
0.000234169
6.73768e-06
-0.00101127
0.000234142
0.00097755
0.000206077
7.10165e-06
-0.000593235
0.000221863
-2.77987e-06
0.00066655
0.000240266
5.74705e-06
-0.00101959
0.000240343
0.00100827
0.000212108
7.06161e-06
-0.000610973
0.000228658
-2.59921e-06
0.000681332
0.000246546
4.74612e-06
-0.00102663
0.000246425
0.00103881
0.000218228
7.04053e-06
-0.000629464
0.000235571
-2.44221e-06
0.00069588
0.000252923
3.74887e-06
-0.00103243
0.000252569
0.00106911
0.000224437
7.12367e-06
-0.00064877
0.00024261
-2.23608e-06
0.000710221
0.000259352
2.77781e-06
-0.00103704
0.000258842
0.0010991
0.000230729
7.57443e-06
-0.000669301
0.000249783
-1.79904e-06
0.000724426
0.000265815
1.83031e-06
-0.00104029
0.000265206
0.0011287
0.000237089
8.86544e-06
-0.000692103
0.000257102
-9.5598e-07
0.00073877
0.000272333
8.75196e-07
-0.00104177
0.000271638
0.00115781
0.000243499
1.10771e-05
-0.000718181
0.000264572
1.39576e-07
0.000753667
0.000279049
-1.41991e-07
-0.00104119
0.000278135
0.00118616
0.000250177
1.29194e-05
-0.000746515
0.000272188
6.1171e-07
0.000769211
0.000286178
-1.25986e-06
-0.00103906
0.000284696
0.00121305
0.000257528
1.19508e-05
-0.000773229
0.000279928
-6.78804e-07
0.000784659
0.000293749
-2.46955e-06
-0.00103708
0.000291315
0.00123743
0.000265961
8.3029e-06
-0.000795725
0.000287754
-3.1443e-06
0.000799031
0.000301379
-3.71574e-06
-0.00103637
0.000297988
0.00125822
0.000275418
4.9695e-06
-0.000814953
0.000295645
-5.13174e-06
0.000812133
0.000308785
-4.9789e-06
-0.00103663
0.000304906
0.00127674
0.000283539
3.1964e-06
-0.000833009
0.000303608
-6.1813e-06
0.000824255
0.000316044
-6.25128e-06
-0.00103755
0.000312503
0.00129437
0.000290438
2.65236e-06
-0.000851409
0.000311674
-6.45494e-06
0.000835654
0.000323251
-7.54496e-06
-0.00103949
0.000321306
0.00131137
0.000297289
2.56656e-06
-0.000870855
0.000319892
-6.47085e-06
0.000846486
0.000330486
-8.8705e-06
-0.0010435
0.000331514
0.00132757
0.000304544
2.52149e-06
-0.000891596
0.000328307
-6.55313e-06
0.000856829
0.000337802
-1.02268e-05
-0.00104857
0.000340773
0.00134287
0.00031211
2.3747e-06
-0.000913527
0.000336935
-6.72081e-06
0.000866632
0.000345211
-1.16021e-05
-0.00105297
0.000348357
0.0013572
0.000319843
1.98089e-06
-0.000936065
0.000345729
-6.93523e-06
0.000875655
0.00035271
-1.29737e-05
-0.00105613
0.000355453
0.00137032
0.000327733
1.24436e-06
-0.000958385
0.000354578
-7.17608e-06
0.000883537
0.000360299
-1.44003e-05
-0.00105817
0.000362846
0.00138187
0.00033578
2.53483e-07
-0.000980225
0.00036337
-7.40348e-06
0.000889963
0.000367979
-1.61006e-05
-0.00105932
0.000370715
0.00139148
0.000343985
-7.18625e-07
-0.00100292
0.00037233
-7.553e-06
0.000894823
0.000375753
-1.82532e-05
-0.00105961
0.000378861
0.00139869
0.000352466
-1.52163e-06
-0.001029
0.000382203
-7.81979e-06
0.000898344
0.000383625
-2.05243e-05
-0.0010592
0.000387177
0.00140334
0.000361507
-2.24624e-06
-0.00105933
0.000393785
-8.09815e-06
0.000900554
0.000391598
-2.16295e-05
-0.00105782
0.00039567
0.00140685
0.000371367
-2.9763e-06
-0.00109092
0.00040736
-8.45717e-06
0.000901462
0.000399675
-2.04076e-05
-0.00105502
0.000404323
0.00141228
0.000381892
-3.72158e-06
-0.00111742
0.000420023
-8.9277e-06
0.000901097
0.000407857
-1.81316e-05
-0.00105277
0.000413077
0.0014188
0.000392328
-4.43879e-06
-0.0011381
0.000430162
-9.39755e-06
0.000899416
0.000416147
-1.68419e-05
-0.00105156
0.000421891
0.00142473
0.000402333
-4.9719e-06
-0.00115608
0.000439554
-9.88298e-06
0.000896547
0.00042455
-1.68939e-05
-0.00105106
0.000430757
0.00142912
0.000412208
-5.31971e-06
-0.00117444
0.000449525
-1.04095e-05
0.000892637
0.000433075
-1.77839e-05
-0.00105076
0.00043967
0.00143185
0.000422097
-5.39772e-06
-0.00119399
0.000460303
-1.08045e-05
0.000887751
0.000441649
-1.88197e-05
-0.00105037
0.000448622
0.00143276
0.000432063
-5.03842e-06
-0.00121378
0.000471374
-1.04224e-05
0.00088107
0.000450355
-1.97575e-05
-0.00104925
0.000457607
0.00143113
0.000442183
-4.61431e-06
-0.0012328
0.000482352
-9.36205e-06
0.000870838
0.000459652
-2.06023e-05
-0.00104684
0.000466609
0.0014264
0.00045246
-6.69865e-06
-0.0012487
0.00049324
-1.07874e-05
0.000856764
0.000469711
-2.13649e-05
-0.00104571
0.000475601
0.00141865
0.000462895
-1.41655e-05
-0.00125658
0.000504135
-1.84977e-05
0.000842559
0.000479573
-2.20496e-05
-0.00105219
0.000484545
0.00140814
0.000473491
-2.02939e-05
-0.00125783
0.000515063
-2.5007e-05
0.000828995
0.000488984
-2.2668e-05
-0.00106502
0.000493401
0.00139494
0.000484251
-2.33319e-05
-0.00125536
0.000526048
-2.79728e-05
0.00081423
0.000498561
-2.32386e-05
-0.00108053
0.000502135
0.00137895
0.000495174
-2.45708e-05
-0.00125073
0.000537116
-2.89465e-05
0.000797541
0.000507994
-2.37835e-05
-0.00109656
0.000510728
0.00136006
0.000506252
-2.53274e-05
-0.00124423
0.000548259
-2.95098e-05
0.00077926
0.000517184
-2.43416e-05
-0.0011125
0.000519165
0.00133794
0.000517454
-2.58814e-05
-0.00123586
0.000559472
-2.98809e-05
0.000759283
0.000526623
-2.49922e-05
-0.00112811
0.000527647
0.00131165
0.000528702
-2.61152e-05
-0.00122579
0.000570755
-2.99455e-05
0.000737101
0.000536753
-2.55964e-05
-0.00114339
0.000536365
0.00128029
0.00054035
-2.59595e-05
-0.00121433
0.000582103
-2.96516e-05
0.000712424
0.000546799
-2.58068e-05
-0.00115798
0.00054461
0.00124523
0.000553321
-2.54024e-05
0.000593442
-0.00120139
-2.90621e-05
0.000553607
0.000686797
-2.58686e-05
0.000551091
-0.00116999
0.000568227
0.00121091
-3.15778e-06
7.51333e-06
3.20686e-06
4.25117e-06
-1.04024e-05
6.37666e-06
-3.889e-06
7.81061e-06
4.52409e-06
-9.78429e-06
5.69152e-06
-4.81266e-06
1.74806e-05
9.45026e-06
5.98438e-06
-2.59935e-05
1.46319e-05
-5.10923e-06
1.73022e-05
1.25147e-05
-2.41376e-05
1.27378e-05
-5.33826e-06
2.72951e-05
1.55152e-05
5.90486e-06
-4.26892e-05
2.16509e-05
-4.64441e-06
2.49912e-05
2.0152e-05
-3.92545e-05
1.85632e-05
-5.75958e-06
3.69341e-05
2.16981e-05
5.82555e-06
-6.03032e-05
2.87536e-05
-4.26171e-06
3.10963e-05
2.77969e-05
-5.50784e-05
2.45143e-05
-6.04132e-06
4.62107e-05
2.80307e-05
5.8528e-06
-7.88425e-05
3.60716e-05
-3.99021e-06
3.59646e-05
3.54593e-05
-7.16177e-05
3.07201e-05
-6.23361e-06
5.50704e-05
3.44032e-05
5.91784e-06
-9.82179e-05
4.34216e-05
-3.78317e-06
3.98353e-05
4.30588e-05
-8.88142e-05
3.70029e-05
-6.3561e-06
6.35058e-05
4.07591e-05
5.98825e-06
-0.000118305
5.07169e-05
-3.61727e-06
4.28816e-05
5.05572e-05
-0.000106586
4.32795e-05
-6.41652e-06
7.15141e-05
4.70621e-05
6.04307e-06
-0.000138953
5.79075e-05
-3.47547e-06
4.5216e-05
5.79328e-05
-0.000124835
4.95011e-05
-6.41838e-06
7.90786e-05
5.32834e-05
6.06579e-06
-0.000159992
6.49547e-05
-3.34297e-06
4.6896e-05
6.51652e-05
-0.000143452
5.56311e-05
-6.36595e-06
8.61711e-05
5.93988e-05
6.04708e-06
-0.000181253
7.1828e-05
-3.21005e-06
4.79421e-05
7.22326e-05
-0.000162325
6.16396e-05
-6.26607e-06
9.27625e-05
6.53902e-05
5.98781e-06
-0.000202582
7.85129e-05
-3.07534e-06
4.83633e-05
7.91179e-05
-0.00018136
6.75078e-05
-6.12974e-06
9.88389e-05
7.12491e-05
5.89989e-06
-0.000223872
8.50175e-05
-2.94784e-06
4.81822e-05
8.58164e-05
-0.00020049
7.32322e-05
-5.97429e-06
0.000104425
7.69766e-05
5.80403e-06
-0.00024508
9.13687e-05
-2.84272e-06
4.74526e-05
9.23433e-05
-0.0002197
7.88257e-05
-5.80208e-06
0.000109554
8.25864e-05
5.71067e-06
-0.000266181
9.75874e-05
-2.76175e-06
4.62391e-05
9.87217e-05
-0.000239001
8.43031e-05
-5.60708e-06
0.000114253
8.80945e-05
5.61259e-06
-0.000287124
0.000103681
-2.69e-06
4.45873e-05
0.000104964
-0.000258394
8.96721e-05
-5.40922e-06
0.000118575
9.35122e-05
5.50478e-06
-0.000307869
0.000109657
-2.61703e-06
4.25302e-05
0.000111078
-0.000277862
9.49343e-05
-5.21236e-06
0.000122586
9.8851e-05
5.38785e-06
-0.000328378
0.000115528
-2.53925e-06
4.00981e-05
0.000117077
-0.000297378
0.000100091
-5.01867e-06
0.000126359
0.000104122
5.26008e-06
-0.00034862
0.000121298
-2.45316e-06
3.73148e-05
0.000122972
-0.000316908
0.000105147
-4.82944e-06
0.000129964
0.000109338
5.11917e-06
-0.000368559
0.000126975
-2.35767e-06
3.41988e-05
0.000128777
-0.000336421
0.000110112
-4.64641e-06
0.000133476
0.000114507
4.96641e-06
-0.000388162
0.000132565
-2.25438e-06
3.07701e-05
0.000134503
-0.000355884
0.000114999
-4.47161e-06
0.000136967
0.000119642
4.8076e-06
-0.000407403
0.00013808
-2.14568e-06
2.70557e-05
0.000140163
-0.000375274
0.000119825
-4.3056e-06
0.00014051
0.000124754
4.6494e-06
-0.000426261
0.000143533
-2.03342e-06
2.30894e-05
0.000145766
-0.000394567
0.000124606
-4.1471e-06
0.000144176
0.000129855
4.49633e-06
-0.000444709
0.000148934
-1.9188e-06
1.89094e-05
0.000151323
-0.000413744
0.000129357
-3.99386e-06
0.00014803
0.000134957
4.3514e-06
-0.000462719
0.000154291
-1.80303e-06
1.45566e-05
0.000156844
-0.000432789
0.000134095
-3.84401e-06
0.000152128
0.000140074
4.21916e-06
-0.00048027
0.000159623
-1.68785e-06
1.0076e-05
0.000162341
-0.000451691
0.000138835
-3.69722e-06
0.000156523
0.000145217
4.10582e-06
-0.000497358
0.000164955
-1.57532e-06
5.51425e-06
0.000167829
-0.00047044
0.000143592
-3.55296e-06
0.000161258
0.000150398
4.01263e-06
-0.00051399
0.000170308
-1.46622e-06
9.11436e-07
0.000173327
-0.000489024
0.000148374
-3.4103e-06
0.000166373
0.000155624
3.93161e-06
-0.000530173
0.000175698
-1.35791e-06
-3.70854e-06
0.00017884
-0.000507424
0.000153189
-3.26998e-06
0.000171905
0.000160904
3.84913e-06
-0.000545913
0.000181134
-1.24192e-06
-8.34705e-06
0.000184366
-0.000525618
0.000158048
-3.13431e-06
0.000177891
0.000166244
3.75405e-06
-0.000561213
0.000186624
-1.10766e-06
-1.303e-05
0.000189895
-0.000543579
0.00016296
-3.00771e-06
0.000184369
0.00017165
3.64613e-06
-0.0005761
0.000192174
-9.54789e-07
-1.77841e-05
0.000195423
-0.000561287
0.000167929
-2.89684e-06
0.000191387
0.000177129
3.52999e-06
-0.000590662
0.000197827
-7.91206e-07
-2.26209e-05
0.00020096
-0.000578739
0.000172962
-2.75522e-06
0.000198945
0.000182686
3.46416e-06
-0.000605101
0.000203782
-6.27822e-07
-2.74796e-05
0.000206523
-0.000595944
0.000178061
-2.58007e-06
0.000207037
0.000188323
3.68672e-06
-0.000619983
0.000210366
-4.70021e-07
-3.20611e-05
0.000212129
-0.000612915
0.000183231
-2.42191e-06
0.000215704
0.000194046
4.36812e-06
-0.000636047
0.00021769
-3.03128e-07
-3.59175e-05
0.0002178
-0.000629648
0.000188477
-2.15579e-06
0.000224854
0.000199857
5.17319e-06
-0.00065314
0.000225197
-1.48528e-07
-3.89116e-05
0.000223587
-0.000646157
0.000193802
-1.76e-06
0.000234364
0.000205763
5.43401e-06
-0.000670045
0.000231825
-8.38334e-08
-4.14972e-05
0.00022957
-0.000662534
0.000199212
-1.42891e-06
0.000244302
0.000211768
5.19928e-06
-0.000685974
0.000237559
-7.86312e-08
-4.41292e-05
0.000235772
-0.000678844
0.000204713
-1.23176e-06
0.000254801
0.000217875
4.8133e-06
-0.00070096
0.000243181
8.05759e-08
-4.7148e-05
0.000242004
-0.000694941
0.000210308
-1.10611e-06
0.000265934
0.000224088
4.42183e-06
-0.000715251
0.000249112
4.73314e-07
-5.08142e-05
0.000248048
-0.000710605
0.000216006
-9.60168e-07
0.000277684
0.00023041
4.16084e-06
-0.000729043
0.000255303
8.87804e-07
-5.49981e-05
0.000253965
-0.000725836
0.000221813
-7.95278e-07
0.000290037
0.000236843
4.05831e-06
-0.000742486
0.000261599
1.18903e-06
-5.94072e-05
0.00025994
-0.000740771
0.000227736
-6.41543e-07
0.000302984
0.000243391
4.03888e-06
-0.000755686
0.000267956
1.43814e-06
-6.3906e-05
0.000266039
-0.000755472
0.00023378
-4.95633e-07
0.000316547
0.000250056
4.03045e-06
-0.000768696
0.000274383
1.70433e-06
-6.84987e-05
0.000272226
-0.000769974
0.000239943
-3.57281e-07
0.000330777
0.000256842
4.02096e-06
-0.000781543
0.000280884
2.00451e-06
-7.32199e-05
0.000278477
-0.000784341
0.000246222
-2.24925e-07
0.000345584
0.000263752
4.00819e-06
-0.00079411
0.000287462
2.19716e-06
-7.79679e-05
0.000284795
-0.000798618
0.000252836
-9.40565e-08
0.000360768
0.000270786
3.98599e-06
-0.000806058
0.000294122
1.76279e-06
-8.2132e-05
0.000291181
-0.000813354
0.000260334
4.05063e-08
0.000376254
0.000277948
3.94801e-06
-0.000817007
0.000300865
3.58979e-07
-8.4771e-05
0.000297631
-0.00082979
0.000269325
1.93197e-07
0.000391596
0.000285241
3.89614e-06
-0.000826948
0.000307688
-1.14572e-06
-8.58196e-05
0.000304144
-0.000847782
0.000279363
3.78576e-07
0.000406848
0.000292667
3.88863e-06
-0.000836194
0.00031459
-7.00951e-07
-8.71931e-05
0.000310911
-0.000864941
0.00028734
5.96518e-07
0.000422496
0.000300228
4.30415e-06
-0.00084536
0.000321568
2.37063e-07
-8.89438e-05
0.000318395
-0.000881146
0.000293958
8.40782e-07
0.000438632
0.000307925
5.57674e-06
-0.000855408
0.000328624
1.49838e-07
-8.92227e-05
0.000327187
-0.000897718
0.000300735
1.11002e-06
0.000455122
0.000315765
7.037e-06
-0.00086655
0.000335759
-3.52485e-07
-8.75401e-05
0.000337427
-0.000915079
0.000308041
1.40781e-06
0.000471887
0.000323754
6.97343e-06
-0.000877235
0.000342977
3.23709e-07
-8.64751e-05
0.000346486
-0.000931956
0.000315653
1.73411e-06
0.000488957
0.000331896
5.93275e-06
-0.000886447
0.000350277
1.70644e-06
-8.74346e-05
0.000353598
-0.000947609
0.000323395
2.08711e-06
0.00050634
0.000340193
5.1595e-06
-0.000894423
0.000357663
2.81482e-06
-8.96775e-05
0.000360094
-0.000962291
0.000331247
2.46311e-06
0.000523942
0.000348637
4.97284e-06
-0.000901724
0.000365136
3.43131e-06
-9.20342e-05
0.000366821
-0.000976481
0.00033922
2.87101e-06
0.00054157
0.000357206
5.0804e-06
-0.000908609
0.000372698
3.90007e-06
-9.397e-05
0.000373917
-0.000990327
0.000347321
3.29066e-06
0.000559023
0.000366121
5.22665e-06
-0.000915102
0.000380352
4.43135e-06
-9.53594e-05
0.000381134
-0.00100362
0.000355554
3.70151e-06
0.000576203
0.000376053
5.3887e-06
-0.000921223
0.000388098
5.00521e-06
-9.60799e-05
0.00038837
-0.00101587
0.00036392
4.18678e-06
0.000592929
0.000387816
5.56239e-06
-0.000926902
0.000395938
5.62935e-06
-9.60279e-05
0.00039564
-0.00102628
0.000372418
4.77011e-06
0.000608909
0.000401697
5.73973e-06
-0.000932036
0.000403874
6.30625e-06
-9.51392e-05
0.000402956
-0.00103421
0.000381048
5.22539e-06
0.000624489
0.000414565
5.91243e-06
-0.000936736
0.000411903
7.02305e-06
-9.34447e-05
0.000410359
-0.0010401
0.000389833
5.51909e-06
0.000640267
0.000424752
6.07653e-06
-0.000941141
0.000420025
7.76536e-06
-9.10351e-05
0.00041788
-0.00104479
0.000398777
5.87433e-06
0.000656296
0.000434132
6.23066e-06
-0.000945158
0.00042824
8.53387e-06
-8.80847e-05
0.000425589
-0.00104852
0.000407867
6.36305e-06
0.000672467
0.000443962
6.37356e-06
-0.000948613
0.000436546
9.33786e-06
-8.48753e-05
0.000433581
-0.00105127
0.000417097
6.9039e-06
0.000688853
0.000454392
6.50126e-06
-0.000951476
0.00044494
1.01865e-05
-8.16421e-05
0.000441789
-0.00105298
0.000426466
7.4312e-06
0.000705521
0.000465072
6.60727e-06
-0.000953693
0.00045342
1.1088e-05
-7.82111e-05
0.00044978
-0.00105359
0.000435972
7.95024e-06
0.000722307
0.000475854
6.68222e-06
-0.00095473
0.000461979
1.20484e-05
-7.37022e-05
0.000456818
-0.00105305
0.000445613
8.45362e-06
0.000739048
0.000486749
6.71155e-06
-0.000953862
0.000470607
1.30689e-05
-6.69919e-05
0.000462617
-0.0010513
0.000455386
8.9514e-06
0.000755661
0.000497762
6.69155e-06
-0.000951299
0.000479288
1.41449e-05
-5.73931e-05
0.000467575
-0.00104826
0.000465285
9.50327e-06
0.000772026
0.000508896
6.66743e-06
-0.000947451
0.000487988
1.52682e-05
-4.49861e-05
0.000472474
-0.00104387
0.000475306
1.01425e-05
0.000788007
0.000520155
6.66291e-06
-0.00094207
0.000496674
1.64298e-05
-3.07119e-05
0.000478175
-0.00103806
0.000485439
1.08599e-05
0.000803502
0.000531544
6.66641e-06
-0.000935189
0.000505319
1.76267e-05
-1.5655e-05
0.000484792
-0.00103075
0.000495665
1.16195e-05
0.000818445
0.000543064
6.56561e-06
-0.000926816
0.00051388
1.88722e-05
-6.23073e-07
0.000491909
-0.00102187
0.00050595
1.27195e-05
0.000832512
0.000554725
6.70304e-06
-0.000916782
0.000522637
2.02203e-05
1.42702e-05
0.000499323
-0.00101134
0.000516216
1.47846e-05
0.000844322
0.000566541
7.84606e-06
-0.000905254
0.000532244
2.10752e-05
3.02819e-05
0.000507225
-0.000999261
0.000526796
1.73545e-05
0.000851952
0.000578521
9.61382e-06
-0.000892815
0.000542164
2.04174e-05
4.9143e-05
0.00051502
-0.000985823
0.000538754
1.73761e-05
0.000590551
0.000856223
9.08671e-06
0.000548797
-0.000879847
1.86648e-05
0.000520809
6.98327e-05
0.000553033
-0.00097072
1.45554e-05
-2.90586e-05
3.27382e-06
-9.7702e-06
2.83297e-05
2.3209e-06
1.02097e-05
-1.88315e-05
3.39835e-06
2.85282e-05
1.80551e-06
1.94856e-05
-6.80064e-05
9.18464e-06
-1.39345e-05
6.70659e-05
9.13774e-06
1.58618e-05
-4.65613e-05
1.05274e-05
6.92503e-05
7.58392e-06
1.70568e-05
-0.000102708
1.5155e-05
-1.55484e-05
0.000104392
1.66109e-05
1.9403e-05
-7.90979e-05
1.78869e-05
0.000111146
1.40408e-05
1.4501e-05
-0.000132864
2.11344e-05
-1.7188e-05
0.000140318
2.40675e-05
2.30535e-05
-0.00011656
2.52378e-05
0.000154373
2.05134e-05
1.25403e-05
-0.000159432
2.71051e-05
-1.81964e-05
0.000175134
3.14521e-05
2.59992e-05
-0.000157567
3.25391e-05
0.000199045
2.69534e-05
1.09031e-05
-0.000183045
3.3127e-05
-1.88396e-05
0.00020893
3.88051e-05
2.853e-05
-0.000201419
3.98171e-05
0.000245111
3.34119e-05
9.47e-06
-0.000204186
3.9208e-05
-1.92262e-05
0.000241704
4.61201e-05
3.07573e-05
-0.000247668
4.70651e-05
0.000292455
3.98883e-05
8.17611e-06
-0.000223243
4.5332e-05
-1.93952e-05
0.000273362
5.3375e-05
3.2716e-05
-0.000295921
5.42657e-05
0.00034091
4.63608e-05
6.97977e-06
-0.000240521
5.14728e-05
-1.93596e-05
0.000303739
6.0543e-05
3.4411e-05
-0.000345782
6.1397e-05
0.000390256
5.27998e-05
5.86352e-06
-0.000256266
5.76016e-05
-1.91326e-05
0.00033265
6.75979e-05
3.5843e-05
-0.000396859
6.84355e-05
0.000440241
5.9175e-05
4.84303e-06
-0.000270721
6.36924e-05
-1.8737e-05
0.000359954
7.45202e-05
3.7023e-05
-0.000448788
7.53603e-05
0.000490619
6.546e-05
3.95395e-06
-0.000284152
6.97255e-05
-1.8227e-05
0.000385624
8.12988e-05
3.79817e-05
-0.000501284
8.21578e-05
0.000541196
7.16344e-05
3.21159e-06
-0.000296851
7.56886e-05
-1.76493e-05
0.000409711
8.79379e-05
3.87478e-05
-0.000554126
8.88309e-05
0.000591854
7.76871e-05
2.60095e-06
-0.000309117
8.1585e-05
-1.70072e-05
0.000432265
9.44564e-05
3.9341e-05
-0.000607114
9.53948e-05
0.000642541
8.36223e-05
2.1045e-06
-0.000321245
8.74279e-05
-1.63106e-05
0.000453322
0.00010087
3.97836e-05
-0.000660077
0.00010186
0.000693233
8.94538e-05
1.70636e-06
-0.000333486
9.32291e-05
-1.55803e-05
0.000472924
0.000107189
4.00902e-05
-0.000712876
0.000108231
0.000743882
9.51942e-05
1.38456e-06
-0.000346018
9.89955e-05
-1.47425e-05
0.000491016
0.000113423
4.02831e-05
-0.000765317
0.000114512
0.000794411
0.000100851
1.12287e-06
-0.000358969
0.000104731
-1.38753e-05
0.000507605
0.00011958
4.03888e-05
-0.000817301
0.000120709
0.000844739
0.00010643
9.12817e-07
-0.000372436
0.00011044
-1.30231e-05
0.000522729
0.000125672
4.04227e-05
-0.000868781
0.000126829
0.000894794
0.000111937
7.45114e-07
-0.000386495
0.000116126
-1.21929e-05
0.000536418
0.000131708
4.03959e-05
-0.000919726
0.000132876
0.000944522
0.000117371
6.02352e-07
-0.000401198
0.000121796
-1.1393e-05
0.000548704
0.000137694
4.03149e-05
-0.000970112
0.000138859
0.0009939
0.000122721
4.54906e-07
-0.000416559
0.000127452
-1.06308e-05
0.000559617
0.000143621
4.01827e-05
-0.00101992
0.000144783
0.00104293
0.000127981
2.73937e-07
-0.000432566
0.000133101
-9.91179e-06
0.000569196
0.000149463
3.99963e-05
-0.00106915
0.000150655
0.00109163
0.000133165
5.89683e-08
-0.000449222
0.000138748
-9.24318e-06
0.000577517
0.000155203
3.97532e-05
-0.00111776
0.000156483
0.00114001
0.000138299
-1.5123e-07
-0.000466591
0.000144399
-8.63548e-06
0.000584728
0.000160833
3.94633e-05
-0.00116577
0.000162272
0.00118815
0.000143382
-3.12843e-07
-0.000484791
0.000150064
-8.09361e-06
0.000591007
0.000166402
3.91408e-05
-0.00121318
0.000168036
0.00123618
0.000148408
-4.01612e-07
-0.00050394
0.000155751
-7.59805e-06
0.000596442
0.000172023
3.87858e-05
-0.00126
0.000173788
0.00128413
0.000153443
-4.00506e-07
-0.000524152
0.000161462
-7.12417e-06
0.000600979
0.000177843
3.83871e-05
-0.00130618
0.000179537
0.00133187
0.000158667
-3.08639e-07
-0.000545494
0.000167191
-6.66347e-06
0.00060449
0.000183943
3.79387e-05
-0.00135166
0.000185277
0.00137904
0.000164228
-1.57424e-07
-0.00056794
0.000172925
-6.21994e-06
0.00060696
0.000190184
3.74415e-05
-0.00139637
0.000190989
0.00142544
0.000169983
6.92438e-08
-0.00059152
0.000178649
-5.75083e-06
0.000608601
0.000196316
3.68966e-05
-0.00144022
0.000196661
0.00147123
0.000175613
6.34171e-07
-0.000616524
0.000184366
-5.1258e-06
0.000609842
0.00020231
3.63037e-05
-0.00148294
0.000202299
0.00151664
0.00018105
1.99343e-06
-0.000643719
0.000190113
-4.33775e-06
0.000611659
0.000208272
3.56588e-05
-0.00152432
0.000207949
0.00156182
0.000186393
4.231e-06
-0.00067402
0.000195962
-3.46652e-06
0.000615386
0.000214335
3.49567e-05
-0.00156426
0.000213699
0.00160676
0.000191747
6.44581e-06
-0.000707515
0.000202
-2.44393e-06
0.000621403
0.000220575
3.41946e-05
-0.00160268
0.000219633
0.00165144
0.000197167
7.26505e-06
-0.000742946
0.000208256
-1.37876e-06
0.000628361
0.000226889
3.33771e-05
-0.00163953
0.000225737
0.00169582
0.000202653
6.71266e-06
-0.000778967
0.000214617
-5.27078e-07
0.000634283
0.000233138
3.25161e-05
-0.0016748
0.000231863
0.00173989
0.000208211
5.99409e-06
-0.000815281
0.000220926
-2.88416e-08
0.000638591
0.000239274
3.16207e-05
-0.00170851
0.000237902
0.00178364
0.000213844
5.80115e-06
-0.000852262
0.000227165
2.35595e-07
0.000641981
0.000245369
3.06948e-05
-0.00174077
0.000243871
0.00182708
0.00021956
6.03191e-06
-0.000890234
0.000233397
5.57512e-07
0.000645073
0.000251515
2.97356e-05
-0.00177165
0.000249828
0.00187019
0.000225365
6.3543e-06
-0.000929235
0.000239677
9.45518e-07
0.000648081
0.00025773
2.87371e-05
-0.00180121
0.000255818
0.00191298
0.000231265
6.64376e-06
-0.000969196
0.000246035
1.28929e-06
0.00065106
0.000264007
2.76971e-05
-0.00182945
0.000261858
0.00195539
0.000237266
6.90027e-06
-0.00101002
0.000252457
1.59091e-06
0.000654031
0.00027033
2.6616e-05
-0.0018563
0.000267948
0.0019974
0.000243373
7.12562e-06
-0.00105154
0.000258873
1.85081e-06
0.000657041
0.000276689
2.54951e-05
-0.00188171
0.000274087
0.00203895
0.000249592
7.31697e-06
-0.00109354
0.000265257
2.0666e-06
0.000660138
0.000283081
2.43366e-05
-0.00190568
0.000280277
0.00207998
0.000255928
7.46975e-06
-0.00113602
0.000271846
2.23384e-06
0.000663373
0.000289513
2.31422e-05
-0.00192821
0.000286519
0.00212062
0.000262386
7.57927e-06
-0.00117945
0.000279122
2.34773e-06
0.000666791
0.000295988
2.19132e-05
-0.0019493
0.000292814
0.00216156
0.000268972
7.64073e-06
-0.00122431
0.000287107
2.40375e-06
0.000670443
0.000302506
2.06504e-05
-0.00196896
0.000299163
0.00220404
0.000275691
7.64851e-06
-0.00127019
0.000294964
2.39813e-06
0.000674372
0.000309069
1.9359e-05
-0.00198723
0.000305569
0.00224889
0.000282538
7.59667e-06
-0.00131647
0.000302464
2.32807e-06
0.000678612
0.000315682
1.80497e-05
-0.00200395
0.000312031
0.00229383
0.000289492
7.47973e-06
-0.00136259
0.000309735
2.19255e-06
0.000683189
0.000322346
1.66444e-05
-0.00201843
0.000318552
0.00233718
0.000296545
7.2928e-06
-0.00140826
0.000317012
1.99259e-06
0.000688123
0.00032906
1.51421e-05
-0.00202939
0.000325133
0.00237881
0.000303692
7.03127e-06
-0.00145325
0.000324421
1.72932e-06
0.000693435
0.000335824
1.36567e-05
-0.00203552
0.000331761
0.00241905
0.000310933
6.69084e-06
-0.00149734
0.000331947
1.40069e-06
0.000699142
0.000342636
1.21902e-05
-0.00203809
0.000338407
0.002458
0.000318266
6.26758e-06
-0.00154026
0.000339591
1.00312e-06
0.000705268
0.000349496
1.07502e-05
-0.00203916
0.000345051
0.00249559
0.000325695
5.75745e-06
-0.00158178
0.000347361
5.32993e-07
0.000711838
0.000356401
9.34896e-06
-0.00203944
0.00035169
0.00253174
0.000333225
5.15608e-06
-0.00162165
0.000355272
-1.27688e-08
0.000718878
0.00036335
7.99493e-06
-0.00203881
0.000358318
0.00256634
0.000340872
4.45943e-06
-0.00165966
0.000363352
-6.36588e-07
0.000726418
0.000370342
6.69463e-06
-0.00203687
0.000364783
0.00259948
0.000348472
3.663e-06
-0.00169521
0.000371414
-1.33878e-06
0.000734486
0.000377375
5.4538e-06
-0.0020333
0.000370898
0.00263156
0.000355701
2.7614e-06
-0.00172674
0.000379216
-2.11771e-06
0.000743107
0.000384448
4.27715e-06
-0.0020282
0.000377005
0.00266267
0.000362882
1.75018e-06
-0.00175234
0.000387274
-2.9717e-06
0.000752303
0.000391558