/*--------------------------------*- C++ -*----------------------------------*\
| =========                 |                                                 |
| \\      /  F ield         | OpenFOAM: The Open Source CFD Toolbox           |
|  \\    /   O peration     | Version:  v1912                                 |
|   \\  /    A nd           | Website:  www.openfoam.com                      |
|    \\/     M anipulation  |                                                 |
\*---------------------------------------------------------------------------*/
FoamFile
{
    version     2.0;
    format      ascii;
    class       volSymmTensorField;
    location    "99.6";
    object      UPrime2Mean;
}
// * * * * * * * * * * * * * * * * * * * * * * * * * * * * * * * * * * * * * //

dimensions      [0 2 -2 0 0 0 0];


internalField   nonuniform List<symmTensor> 
2000
(
(8.41863e-13 1.29337e-09 -6.23751e-10 1.78763e-05 4.142e-06 4.22284e-05)
(3.76262e-06 6.72845e-07 -6.47009e-07 1.36882e-07 -2.02739e-07 3.12906e-05)
(7.13314e-07 6.59591e-08 1.75649e-06 6.60937e-09 1.76229e-07 1.08873e-05)
(1.28276e-07 2.72448e-08 7.10398e-07 7.0187e-09 1.93823e-07 8.39058e-06)
(2.3529e-08 1.04082e-08 3.41522e-07 5.54104e-09 1.89147e-07 9.30346e-06)
(6.30399e-14 3.32651e-12 5.84947e-11 5.36831e-09 1.88755e-07 9.50167e-06)
(2.35197e-08 -1.04041e-08 -3.41408e-07 5.54115e-09 1.89155e-07 9.30388e-06)
(1.28188e-07 -2.72275e-08 -7.10074e-07 7.0183e-09 1.93809e-07 8.39017e-06)
(7.13289e-07 -6.59642e-08 -1.75587e-06 6.60945e-09 1.76236e-07 1.08755e-05)
(3.76143e-06 -6.72629e-07 6.41298e-07 1.36838e-07 -2.01648e-07 3.12338e-05)
(8.78766e-13 1.73818e-09 -5.06036e-09 2.42281e-05 -2.44087e-05 0.000155982)
(1.05449e-05 -2.62324e-07 -1.57027e-05 5.04479e-08 1.25751e-06 6.53623e-05)
(1.64325e-06 1.64309e-07 -1.26582e-06 4.45924e-08 3.53413e-07 1.12535e-05)
(4.80234e-07 2.17815e-08 2.34981e-07 3.08072e-08 3.64266e-07 7.39793e-06)
(1.18837e-07 8.32933e-09 2.7397e-07 2.14047e-08 3.61304e-07 9.13003e-06)
(2.7559e-14 -8.21367e-12 -1.10572e-10 2.05397e-08 3.63406e-07 9.58792e-06)
(1.18722e-07 -8.34889e-09 -2.74304e-07 2.1404e-08 3.61307e-07 9.12993e-06)
(4.79956e-07 -2.17769e-08 -2.36188e-07 3.08022e-08 3.6422e-07 7.39618e-06)
(1.64276e-06 -1.64267e-07 1.26027e-06 4.4582e-08 3.53356e-07 1.12272e-05)
(1.0541e-05 2.61995e-07 1.56709e-05 5.04311e-08 1.25633e-06 6.51776e-05)
(7.36258e-13 -5.64119e-10 -1.02621e-08 1.54541e-05 3.89378e-05 0.000377663)
(6.95999e-06 1.16845e-06 -1.69121e-05 4.09854e-07 -1.67144e-06 5.81099e-05)
(2.15746e-06 1.68608e-07 -2.00409e-06 8.10149e-08 -2.51351e-08 5.13887e-06)
(7.69702e-07 2.97476e-09 2.06039e-07 4.7599e-08 6.20228e-08 4.20557e-06)
(1.89787e-07 4.64982e-11 3.09224e-07 3.09755e-08 1.1062e-07 5.12725e-06)
(7.41256e-14 -1.13012e-11 8.70949e-11 2.98836e-08 1.19591e-07 5.39928e-06)
(1.89347e-07 -7.17094e-11 -3.09109e-07 3.09751e-08 1.10631e-07 5.12671e-06)
(7.68922e-07 -2.98166e-09 -2.07413e-07 4.75912e-08 6.20061e-08 4.20446e-06)
(2.15629e-06 -1.68493e-07 1.99649e-06 8.09539e-08 -2.49424e-08 5.1234e-06)
(6.95785e-06 -1.16765e-06 1.68787e-05 4.09732e-07 -1.66827e-06 5.79125e-05)
(5.78281e-13 2.58063e-09 -1.26814e-08 4.39167e-05 -0.000125434 0.000572375)
(4.01651e-06 4.10796e-07 -1.10305e-05 1.78823e-07 -1.3977e-06 3.69688e-05)
(1.90557e-06 1.26236e-07 -2.90345e-07 9.36145e-08 -3.66706e-07 4.95516e-06)
(6.59261e-07 2.15553e-08 6.25205e-07 5.78099e-08 -2.20937e-07 5.67237e-06)
(1.62359e-07 5.55388e-09 4.67274e-07 3.71548e-08 -1.14984e-07 6.03468e-06)
(8.47179e-14 -4.33898e-12 2.6563e-10 3.61299e-08 -1.00609e-07 6.15922e-06)
(1.61898e-07 -5.5619e-09 -4.66684e-07 3.71561e-08 -1.14972e-07 6.0343e-06)
(6.58474e-07 -2.15452e-08 -6.25879e-07 5.78034e-08 -2.20904e-07 5.67234e-06)
(1.90416e-06 -1.26059e-07 2.85308e-07 9.35287e-08 -3.66385e-07 4.95267e-06)
(4.01543e-06 -4.10245e-07 1.10042e-05 1.78736e-07 -1.3946e-06 3.68239e-05)
(4.51584e-13 6.54532e-10 -1.24507e-08 3.4061e-06 -3.14403e-05 0.000682588)
(3.92733e-06 7.19955e-07 -9.17169e-06 2.90362e-07 -2.88713e-06 3.29328e-05)
(1.38009e-06 1.79822e-07 5.98885e-07 1.18446e-07 -6.32809e-07 8.37779e-06)
(4.63899e-07 4.44814e-08 6.94274e-07 6.67495e-08 -3.70314e-07 6.84397e-06)
(1.16838e-07 1.19513e-08 4.68766e-07 4.32873e-08 -2.41272e-07 6.68789e-06)
(7.01774e-14 1.97343e-12 2.85334e-10 4.21962e-08 -2.23928e-07 6.71055e-06)
(1.16473e-07 -1.19435e-08 -4.68064e-07 4.32916e-08 -2.41268e-07 6.68782e-06)
(4.63296e-07 -4.44449e-08 -6.94493e-07 6.67475e-08 -3.70273e-07 6.84418e-06)
(1.37887e-06 -1.79509e-07 -6.01265e-07 1.18329e-07 -6.32383e-07 8.37816e-06)
(3.92634e-06 -7.19131e-07 9.1503e-06 2.9019e-07 -2.88257e-06 3.2836e-05)
(2.3419e-13 4.11072e-10 -8.00341e-09 3.5268e-06 -4.11012e-05 0.000616058)
(2.99572e-06 9.2408e-07 -6.99505e-06 4.42192e-07 -3.96013e-06 3.7966e-05)
(9.62223e-07 1.99754e-07 4.45176e-07 1.35289e-07 -8.22505e-07 1.08458e-05)
(3.3315e-07 5.8112e-08 5.2485e-07 7.47873e-08 -4.38957e-07 6.45254e-06)
(8.62608e-08 1.52276e-08 3.78043e-07 4.88914e-08 -3.01985e-07 5.7728e-06)
(5.25217e-14 4.77944e-12 2.2957e-10 4.75687e-08 -2.81404e-07 5.70306e-06)
(8.59811e-08 -1.52117e-08 -3.77442e-07 4.88998e-08 -3.02001e-07 5.77285e-06)
(3.32689e-07 -5.80542e-08 -5.24947e-07 7.47904e-08 -4.38938e-07 6.45242e-06)
(9.61295e-07 -1.9941e-07 -4.46387e-07 1.35144e-07 -8.2205e-07 1.08434e-05)
(2.99496e-06 -9.23008e-07 6.98001e-06 4.41742e-07 -3.95451e-06 3.78991e-05)
(7.71296e-14 2.58048e-10 -2.76277e-09 6.00415e-06 -4.83533e-05 0.000427896)
(2.10065e-06 9.30156e-07 -5.61643e-06 5.67442e-07 -4.53281e-06 4.49534e-05)
(7.14145e-07 2.01154e-07 4.56374e-09 1.45199e-07 -9.98466e-07 1.23917e-05)
(2.62931e-07 6.27445e-08 3.11156e-07 8.03284e-08 -4.92979e-07 5.9523e-06)
(6.98267e-08 1.58708e-08 2.70674e-07 5.21172e-08 -3.38514e-07 4.75398e-06)
(3.96687e-14 5.24763e-12 1.62251e-10 5.05599e-08 -3.14583e-07 4.58987e-06)
(6.96025e-08 -1.58515e-08 -2.70239e-07 5.21295e-08 -3.38556e-07 4.75395e-06)
(2.62542e-07 -6.26738e-08 -3.11279e-07 8.03339e-08 -4.92971e-07 5.95145e-06)
(7.13414e-07 -2.00825e-07 -5.54831e-09 1.45047e-07 -9.97918e-07 1.2386e-05)
(2.10024e-06 -9.29125e-07 5.60639e-06 5.66757e-07 -4.52725e-06 4.49018e-05)
(4.0437e-14 -2.30592e-11 -3.54858e-11 6.17413e-06 -3.87536e-05 0.000259754)
(1.54835e-06 8.29202e-07 -4.85621e-06 5.95748e-07 -4.71501e-06 5.02787e-05)
(5.78351e-07 1.93282e-07 -3.71496e-07 1.45167e-07 -1.13483e-06 1.40732e-05)
(2.26828e-07 6.17881e-08 1.28746e-07 8.04436e-08 -5.40368e-07 6.18851e-06)
(6.16647e-08 1.46349e-08 1.74821e-07 5.02994e-08 -3.56785e-07 4.51528e-06)
(3.84423e-14 4.42234e-12 1.19277e-10 4.86508e-08 -3.30982e-07 4.25859e-06)
(6.1472e-08 -1.46141e-08 -1.74514e-07 5.03143e-08 -3.56849e-07 4.51491e-06)
(2.26468e-07 -6.17024e-08 -1.28922e-07 8.04489e-08 -5.40356e-07 6.18651e-06)
(5.77738e-07 -1.9297e-07 3.70446e-07 1.45024e-07 -1.13421e-06 1.40646e-05)
(1.54818e-06 -8.28349e-07 4.84934e-06 5.95028e-07 -4.71016e-06 5.0235e-05)
(5.10453e-14 -1.86315e-10 5.94659e-10 4.93718e-06 -2.55244e-05 0.000157664)
(1.21055e-06 7.11572e-07 -4.07069e-06 5.52878e-07 -4.41232e-06 5.08149e-05)
(5.01094e-07 1.74785e-07 -6.18077e-07 1.25818e-07 -1.13541e-06 1.50278e-05)
(2.07829e-07 5.56027e-08 -2.47767e-08 6.94978e-08 -5.44965e-07 6.36975e-06)
(5.75926e-08 1.06352e-08 8.55967e-08 4.17484e-08 -3.46905e-07 4.33845e-06)
(5.08144e-14 2.27051e-12 1.05453e-10 4.04003e-08 -3.21652e-07 3.99298e-06)
(5.7413e-08 -1.06153e-08 -8.53575e-08 4.17643e-08 -3.46976e-07 4.33757e-06)
(2.07475e-07 -5.55001e-08 2.45836e-08 6.95025e-08 -5.44957e-07 6.3664e-06)
(5.00555e-07 -1.74485e-07 6.17025e-07 1.25699e-07 -1.13485e-06 1.50168e-05)
(1.2105e-06 -7.10902e-07 4.06602e-06 5.52249e-07 -4.40858e-06 5.0778e-05)
(7.55615e-14 -2.59356e-10 6.92599e-10 3.5354e-06 -1.59434e-05 0.000104302)
(9.27228e-07 5.80488e-07 -3.06759e-06 4.63284e-07 -3.57583e-06 4.45107e-05)
(4.53208e-07 1.44872e-07 -7.84747e-07 8.81757e-08 -9.65428e-07 1.45327e-05)
(1.97516e-07 4.31091e-08 -1.88385e-07 4.50827e-08 -4.73509e-07 6.34457e-06)
(5.51962e-08 3.63734e-09 -1.27125e-08 2.68544e-08 -2.92523e-07 4.12916e-06)
(6.60072e-14 -1.1028e-12 8.72719e-11 2.64112e-08 -2.70501e-07 3.68617e-06)
(5.5013e-08 -3.62132e-09 1.28864e-08 2.68702e-08 -2.92579e-07 4.12805e-06)
(1.97163e-07 -4.30064e-08 1.88182e-07 4.5092e-08 -4.73537e-07 6.34064e-06)
(4.52737e-07 -1.44597e-07 7.83832e-07 8.80899e-08 -9.65067e-07 1.45216e-05)
(9.27271e-07 -5.80002e-07 3.06472e-06 4.62796e-07 -3.57345e-06 4.4482e-05)
(1.05794e-12 -2.24597e-11 -1.19737e-09 6.51878e-08 -7.17305e-07 1.84299e-05)
(2.09029e-06 -2.85913e-12 2.96436e-06 5.71312e-10 -8.19195e-10 7.23294e-06)
(1.17001e-06 3.16001e-08 -4.76875e-07 8.67112e-10 -9.79116e-09 3.68033e-06)
(3.63104e-07 1.30049e-08 -7.58923e-07 4.7887e-10 -2.24205e-08 6.87019e-06)
(8.82574e-08 6.4826e-09 -5.74352e-07 4.86616e-10 -3.9219e-08 9.8679e-06)
(1.5076e-13 3.81351e-12 -2.97185e-10 5.03553e-10 -4.34031e-08 1.11275e-05)
(8.80716e-08 -6.47584e-09 5.74072e-07 4.86643e-10 -3.92261e-08 9.87132e-06)
(3.6259e-07 -1.29934e-08 7.59077e-07 4.78728e-10 -2.24286e-08 6.8755e-06)
(1.17009e-06 -3.16248e-08 4.80484e-07 8.68422e-10 -9.89471e-09 3.68626e-06)
(2.09044e-06 -4.87075e-12 -2.95973e-06 5.71344e-10 -7.80725e-10 7.21618e-06)
(2.07192e-12 4.30426e-10 -5.95985e-09 1.54925e-07 -1.52202e-06 5.81746e-05)
(2.77217e-06 2.01091e-07 6.79741e-06 1.62151e-08 4.71162e-07 2.66935e-05)
(8.92862e-07 1.28024e-07 4.21502e-07 1.88885e-08 8.4504e-08 1.08242e-05)
(2.4986e-07 4.57017e-08 3.74689e-08 9.13007e-09 -7.64569e-08 2.06518e-05)
(5.17454e-08 1.8831e-08 -1.93204e-07 7.33987e-09 -1.38328e-07 2.85846e-05)
(9.88829e-14 7.81902e-12 -8.40842e-12 7.25437e-09 -1.55199e-07 3.15878e-05)
(5.16658e-08 -1.88165e-08 1.93707e-07 7.3395e-09 -1.3836e-07 2.85914e-05)
(2.49519e-07 -4.56663e-08 -3.68901e-08 9.12854e-09 -7.64976e-08 2.06628e-05)
(8.92718e-07 -1.28017e-07 -4.17373e-07 1.88887e-08 8.38689e-08 1.0832e-05)
(2.7707e-06 -2.01059e-07 -6.78797e-06 1.62208e-08 4.70676e-07 2.66134e-05)
(2.48346e-12 4.3763e-10 -1.12726e-08 4.22846e-07 -3.39522e-06 0.000126609)
(1.44806e-06 2.12434e-07 4.95762e-06 4.88339e-08 1.25524e-06 4.75477e-05)
(2.59651e-07 9.64353e-08 5.90929e-07 4.53268e-08 2.10209e-07 9.65789e-06)
(9.46066e-08 2.41223e-08 6.66058e-07 1.73016e-08 -1.62285e-07 1.91462e-05)
(1.79914e-08 8.41339e-09 3.06029e-07 1.27655e-08 -2.379e-07 2.81166e-05)
(1.11543e-13 -2.80416e-12 5.27717e-10 1.24511e-08 -2.66211e-07 3.16855e-05)
(1.79535e-08 -8.41983e-09 -3.04716e-07 1.2763e-08 -2.37941e-07 2.81247e-05)
(9.44779e-08 -2.41129e-08 -6.65668e-07 1.72946e-08 -1.62298e-07 1.91592e-05)
(2.59565e-07 -9.64058e-08 -5.89935e-07 4.53056e-08 2.09027e-07 9.66028e-06)
(1.44701e-06 -2.12312e-07 -4.95197e-06 4.88371e-08 1.25381e-06 4.74022e-05)
(1.89525e-12 7.40159e-10 -1.24679e-08 6.26527e-07 -4.90232e-06 0.00020292)
(7.31029e-07 1.37778e-07 1.9724e-06 9.29859e-08 1.82818e-06 5.21057e-05)
(1.18775e-07 4.18904e-08 2.86096e-07 6.84314e-08 1.54435e-07 6.64413e-06)
(7.58849e-08 2.52478e-09 7.91985e-07 2.19132e-08 -2.70879e-07 1.56116e-05)
(1.67979e-08 -4.01548e-10 4.79893e-07 1.55854e-08 -3.31586e-07 2.46502e-05)
(1.46215e-13 -1.11736e-11 8.51023e-10 1.50379e-08 -3.66188e-07 2.83593e-05)
(1.6716e-08 3.77309e-10 -4.78139e-07 1.5581e-08 -3.31579e-07 2.46585e-05)
(7.57518e-08 -2.54551e-09 -7.91748e-07 2.19008e-08 -2.70842e-07 1.56257e-05)
(1.18693e-07 -4.18805e-08 -2.87057e-07 6.83877e-08 1.53031e-07 6.64751e-06)
(7.30515e-07 -1.3763e-07 -1.9717e-06 9.30024e-08 1.82626e-06 5.19399e-05)
(1.26516e-12 3.04666e-10 -1.07034e-08 4.6845e-07 1.03461e-07 0.000260799)
(4.92681e-07 7.4257e-08 -1.69338e-07 1.32714e-07 1.94053e-06 4.15264e-05)
(9.6913e-08 1.96539e-08 1.77199e-07 7.82601e-08 4.76014e-08 3.55278e-06)
(6.97274e-08 -4.92327e-09 7.32488e-07 2.30444e-08 -3.17137e-07 1.22304e-05)
(1.67323e-08 -3.27507e-09 4.93235e-07 1.59451e-08 -3.59301e-07 2.10631e-05)
(1.60514e-13 -1.37201e-11 9.59111e-10 1.51923e-08 -3.91338e-07 2.47291e-05)
(1.66265e-08 3.24401e-09 -4.91359e-07 1.59392e-08 -3.59214e-07 2.10716e-05)
(6.95765e-08 4.88828e-09 -7.32255e-07 2.30275e-08 -3.17035e-07 1.22452e-05)
(9.68088e-08 -1.96561e-08 -1.78558e-07 7.82064e-08 4.6393e-08 3.55973e-06)
(4.92379e-07 -7.41209e-08 1.66113e-07 1.32759e-07 1.93879e-06 4.13879e-05)
(9.12132e-13 9.47168e-11 -7.34037e-09 6.27723e-07 3.71018e-06 0.000269899)
(3.41625e-07 5.74834e-08 -5.95684e-07 1.5096e-07 1.62444e-06 2.70315e-05)
(7.97281e-08 2.44691e-08 1.46717e-07 8.09541e-08 -1.07542e-09 1.40441e-06)
(5.74887e-08 -3.58913e-09 6.01445e-07 2.29612e-08 -2.89636e-07 9.32548e-06)
(1.42001e-08 -2.78249e-09 4.39697e-07 1.55799e-08 -3.25957e-07 1.78958e-05)
(1.56457e-13 -1.24688e-11 9.26133e-10 1.45634e-08 -3.49787e-07 2.1481e-05)
(1.40956e-08 2.75215e-09 -4.37916e-07 1.5572e-08 -3.25795e-07 1.79046e-05)
(5.73411e-08 3.55244e-09 -6.01184e-07 2.29417e-08 -2.89479e-07 9.34087e-06)
(7.96227e-08 -2.44622e-08 -1.47783e-07 8.08984e-08 -2.00172e-09 1.41247e-06)
(3.41357e-07 -5.73654e-08 5.91978e-07 1.51039e-07 1.62351e-06 2.6936e-05)
(8.24246e-13 4.49216e-11 -3.48205e-09 7.19591e-07 4.10414e-06 0.000205502)
(2.14041e-07 6.58155e-08 -3.53012e-07 1.59602e-07 1.31566e-06 1.73506e-05)
(6.51003e-08 3.44143e-08 1.23866e-07 8.1297e-08 2.17392e-08 4.68253e-07)
(4.55959e-08 -1.25543e-10 4.65609e-07 2.30701e-08 -2.17618e-07 7.29463e-06)
(1.14534e-08 -1.35285e-09 3.73171e-07 1.51826e-08 -2.52394e-07 1.55745e-05)
(1.4418e-13 -9.16057e-12 8.33288e-10 1.38413e-08 -2.65796e-07 1.90871e-05)
(1.1359e-08 1.32738e-09 -3.71578e-07 1.51734e-08 -2.52173e-07 1.55838e-05)
(4.54604e-08 9.3349e-11 -4.65342e-07 2.30489e-08 -2.17438e-07 7.31033e-06)
(6.50032e-08 -3.4393e-08 -1.24613e-07 8.12417e-08 2.10336e-08 4.751e-07)
(2.13812e-07 -6.57214e-08 3.50477e-07 1.597e-07 1.31531e-06 1.72883e-05)
(1.02445e-12 3.9134e-11 -1.00959e-09 5.82019e-07 2.65589e-06 0.000119106)
(1.4331e-07 6.60043e-08 -2.33798e-07 1.66948e-07 1.13231e-06 1.27408e-05)
(5.41949e-08 3.97511e-08 1.09686e-07 8.14634e-08 6.70274e-08 6.1698e-07)
(3.6323e-08 2.88913e-09 3.63158e-07 2.341e-08 -1.3921e-07 6.50714e-06)
(9.36235e-09 2.3918e-11 3.18459e-07 1.46978e-08 -1.66721e-07 1.45839e-05)
(1.3348e-13 -4.67147e-12 7.4548e-10 1.30586e-08 -1.69712e-07 1.80878e-05)
(9.27873e-09 -4.17856e-11 -3.17035e-07 1.46889e-08 -1.66464e-07 1.4594e-05)
(3.62014e-08 -2.91307e-09 -3.62889e-07 2.33884e-08 -1.39036e-07 6.52295e-06)
(5.41025e-08 -3.97223e-08 -1.10245e-07 8.14115e-08 6.64841e-08 6.21988e-07)
(1.43107e-07 -6.59318e-08 2.32051e-07 1.67047e-07 1.13215e-06 1.26979e-05)
(1.56704e-12 3.40768e-11 -1.17608e-10 4.46016e-07 1.30553e-06 5.81369e-05)
(1.06416e-07 5.26563e-08 -2.58948e-07 1.65346e-07 9.58532e-07 9.85751e-06)
(4.44438e-08 3.97015e-08 9.63777e-08 7.97807e-08 8.7615e-08 7.6332e-07)
(2.91198e-08 4.86512e-09 3.04468e-07 2.30655e-08 -9.11861e-08 6.40409e-06)
(7.84366e-09 1.04203e-09 2.8275e-07 1.3858e-08 -1.02656e-07 1.46434e-05)
(1.32682e-13 5.94379e-13 6.95318e-10 1.20682e-08 -9.6361e-08 1.82799e-05)
(7.76986e-09 -1.04986e-09 -2.81407e-07 1.38511e-08 -1.02382e-07 1.46542e-05)
(2.90117e-08 -4.87897e-09 -3.0417e-07 2.30454e-08 -9.10106e-08 6.42017e-06)
(4.43515e-08 -3.96744e-08 -9.68356e-08 7.97393e-08 8.72087e-08 7.67203e-07)
(1.06215e-07 -5.25956e-08 2.57393e-07 1.65431e-07 9.58449e-07 9.82599e-06)
(2.90902e-12 2.84246e-11 1.13838e-10 3.3593e-07 5.50671e-07 2.88207e-05)
(8.28217e-08 3.3371e-08 -2.93299e-07 1.52047e-07 7.21901e-07 6.78997e-06)
(3.52045e-08 3.51449e-08 8.43339e-08 7.38823e-08 6.77363e-08 5.33072e-07)
(2.31873e-08 5.30535e-09 2.84666e-07 2.15227e-08 -7.99762e-08 6.74417e-06)
(6.745e-09 1.43866e-09 2.69015e-07 1.25234e-08 -7.0957e-08 1.56979e-05)
(1.45223e-13 5.46403e-12 6.59268e-10 1.07743e-08 -5.80557e-08 1.96608e-05)
(6.68063e-09 -1.43633e-09 -2.67691e-07 1.25196e-08 -7.06783e-08 1.571e-05)
(2.30926e-08 -5.31111e-09 -2.84314e-07 2.15066e-08 -7.97571e-08 6.76098e-06)
(3.51098e-08 -3.51253e-08 -8.47076e-08 7.38596e-08 6.74852e-08 5.36772e-07)
(8.26228e-08 -3.33261e-08 2.91858e-07 1.5211e-07 7.21841e-07 6.76708e-06)
(3.25389e-13 3.86819e-12 -1.65935e-09 1.14693e-09 -2.56316e-07 7.0178e-05)
(8.35291e-07 3.20606e-09 8.23184e-07 4.9658e-11 1.07015e-08 6.50437e-06)
(3.0636e-07 1.97848e-10 -1.34069e-07 9.35741e-11 -1.008e-08 4.72696e-06)
(1.20335e-07 -8.02546e-10 -1.71275e-07 6.34175e-11 -1.7846e-09 3.75752e-06)
(3.68772e-08 -5.46318e-10 -1.17159e-07 4.71787e-11 7.02256e-10 3.59638e-06)
(5.17662e-14 -1.90905e-14 -1.40592e-10 6.06955e-11 1.05136e-09 3.62102e-06)
(3.68426e-08 5.46491e-10 1.17017e-07 4.72152e-11 6.98906e-10 3.59646e-06)
(1.2017e-07 8.02969e-10 1.71165e-07 6.339e-11 -1.78526e-09 3.75784e-06)
(3.06537e-07 -2.00639e-10 1.34866e-07 9.35954e-11 -1.00822e-08 4.72701e-06)
(8.3559e-07 -3.21795e-09 -8.19899e-07 4.9734e-11 1.07002e-08 6.4996e-06)
(1.54689e-12 1.28892e-10 -8.39475e-09 1.57092e-08 -1.15392e-06 0.000244403)
(1.98853e-06 6.20867e-08 7.65494e-07 2.39117e-09 -7.01469e-09 4.04703e-06)
(7.01055e-07 3.68587e-08 -1.09221e-06 3.37352e-09 -8.3778e-08 5.3046e-06)
(2.5735e-07 1.16534e-08 -7.05052e-07 1.105e-09 -3.3315e-08 7.04862e-06)
(7.24189e-08 4.84127e-09 -4.83487e-07 1.01325e-09 -2.93019e-08 8.3819e-06)
(4.08451e-14 3.49523e-12 -1.69992e-10 1.02269e-09 -2.60226e-08 8.66132e-06)
(7.2391e-08 -4.8373e-09 4.83534e-07 1.01366e-09 -2.93026e-08 8.38194e-06)
(2.57026e-07 -1.16432e-08 7.0499e-07 1.10523e-09 -3.33385e-08 7.04938e-06)
(7.0151e-07 -3.68613e-08 1.09398e-06 3.37201e-09 -8.38299e-08 5.30801e-06)
(1.98795e-06 -6.21343e-08 -7.56322e-07 2.39468e-09 -7.23417e-09 4.03492e-06)
(2.10522e-12 3.48169e-10 -1.24375e-08 7.52224e-08 -3.16209e-06 0.000341908)
(1.46918e-06 1.26908e-07 1.8567e-06 1.17683e-08 1.58262e-07 9.28916e-06)
(5.09357e-07 7.2078e-08 -1.03138e-06 1.36862e-08 -1.90533e-07 6.4604e-06)
(1.87978e-07 2.27481e-08 -7.1406e-07 3.43126e-09 -9.63927e-08 8.59263e-06)
(5.0498e-08 9.33626e-09 -4.79572e-07 2.99598e-09 -8.26409e-08 1.00198e-05)
(2.093e-14 4.6084e-12 -9.5526e-11 2.919e-09 -7.96007e-08 1.03907e-05)
(5.05225e-08 -9.33446e-09 4.79892e-07 2.99658e-09 -8.26436e-08 1.00197e-05)
(1.87776e-07 -2.27318e-08 7.14084e-07 3.43158e-09 -9.64274e-08 8.59353e-06)
(5.09811e-07 -7.20769e-08 1.03338e-06 1.36731e-08 -1.90691e-07 6.46428e-06)
(1.46855e-06 -1.26992e-07 -1.84603e-06 1.17859e-08 1.57584e-07 9.25073e-06)
(1.75775e-12 3.2374e-10 -1.27796e-08 8.26367e-08 -1.60761e-06 0.000377716)
(8.36634e-07 1.43424e-07 2.17122e-06 2.60036e-08 4.04616e-07 1.76751e-05)
(3.06176e-07 8.37583e-08 -7.79773e-07 2.83528e-08 -3.23016e-07 7.30741e-06)
(1.15434e-07 2.6671e-08 -6.31167e-07 6.80186e-09 -1.90951e-07 8.50889e-06)
(3.06951e-08 1.13064e-08 -4.03736e-07 5.59796e-09 -1.76492e-07 9.61453e-06)
(1.84702e-14 3.66089e-12 -4.14885e-11 5.33205e-09 -1.75026e-07 9.96455e-06)
(3.07422e-08 -1.13112e-08 4.04177e-07 5.59851e-09 -1.765e-07 9.61439e-06)
(1.15339e-07 -2.6657e-08 6.31213e-07 6.80178e-09 -1.91004e-07 8.5099e-06)
(3.06559e-07 -8.37715e-08 7.81697e-07 2.8322e-08 -3.23278e-07 7.31055e-06)
(8.36369e-07 -1.43536e-07 -2.16244e-06 2.60464e-08 4.03556e-07 1.76121e-05)
(1.2327e-12 2.40119e-10 -1.17307e-08 8.45848e-08 -1.27468e-06 0.000379792)
(4.2992e-07 1.34813e-07 1.87975e-06 4.32934e-08 6.46689e-07 2.53137e-05)
(2.0149e-07 8.23497e-08 -5.38591e-07 4.08279e-08 -4.06335e-07 8.1966e-06)
(7.79454e-08 2.71687e-08 -5.42786e-07 1.02296e-08 -2.36254e-07 7.60842e-06)
(2.11674e-08 1.18446e-08 -3.29287e-07 7.88959e-09 -2.29831e-07 8.25203e-06)
(1.80152e-14 2.75521e-12 -3.62863e-11 7.3837e-09 -2.28825e-07 8.51727e-06)
(2.12162e-08 -1.18549e-08 3.29706e-07 7.88985e-09 -2.29846e-07 8.25203e-06)
(7.79047e-08 -2.716e-08 5.42834e-07 1.02282e-08 -2.36337e-07 7.60941e-06)
(2.01826e-07 -8.23844e-08 5.40411e-07 4.07832e-08 -4.06615e-07 8.19811e-06)
(4.30013e-07 -1.34958e-07 -1.87423e-06 4.33717e-08 6.45414e-07 2.52444e-05)
(7.52873e-13 1.03099e-10 -9.45537e-09 6.89772e-08 2.40386e-07 0.000350747)
(2.46542e-07 1.19054e-07 1.57238e-06 5.82649e-08 8.12937e-07 3.20075e-05)
(1.60268e-07 8.18566e-08 -3.23869e-07 4.89559e-08 -3.97855e-07 9.00374e-06)
(6.20259e-08 2.84275e-08 -4.5022e-07 1.44515e-08 -2.3111e-07 6.25254e-06)
(1.74674e-08 1.28692e-08 -2.63653e-07 1.06239e-08 -2.41344e-07 6.39555e-06)
(1.46244e-14 2.84741e-12 -6.5078e-11 9.79312e-09 -2.39789e-07 6.5579e-06)
(1.75111e-08 -1.28826e-08 2.63955e-07 1.06239e-08 -2.41369e-07 6.3957e-06)
(6.20124e-08 -2.84245e-08 4.50275e-07 1.44485e-08 -2.31235e-07 6.25319e-06)
(1.60586e-07 -8.191e-08 3.25572e-07 4.89103e-08 -3.98122e-07 9.00246e-06)
(2.46811e-07 -1.19246e-07 -1.56937e-06 5.83862e-08 8.11766e-07 3.19471e-05)
(3.98098e-13 3.26587e-12 -6.27144e-09 6.1502e-08 1.56564e-06 0.000292567)
(1.75774e-07 1.07669e-07 1.37477e-06 6.7128e-08 9.32791e-07 3.80887e-05)
(1.40491e-07 8.225e-08 -1.20012e-07 5.38527e-08 -2.88814e-07 9.6057e-06)
(5.27705e-08 3.00511e-08 -3.42247e-07 1.95289e-08 -1.80323e-07 5.01045e-06)
(1.55e-08 1.40361e-08 -1.98171e-07 1.3894e-08 -2.1285e-07 4.67028e-06)
(1.13665e-14 3.84687e-12 -9.16074e-11 1.25852e-08 -2.10819e-07 4.73542e-06)
(1.55365e-08 -1.40505e-08 1.98336e-07 1.38945e-08 -2.12891e-07 4.67045e-06)
(5.27746e-08 -3.00544e-08 3.42307e-07 1.95249e-08 -1.80503e-07 5.01042e-06)
(1.40797e-07 -8.23185e-08 1.21496e-07 5.38182e-08 -2.89115e-07 9.6013e-06)
(1.76085e-07 -1.07895e-07 -1.37301e-06 6.7285e-08 9.31905e-07 3.80397e-05)
(1.9107e-13 -2.62949e-11 -3.23069e-09 5.93799e-08 1.93094e-06 0.0002163)
(1.25436e-07 9.36847e-08 1.13321e-06 7.21635e-08 1.01504e-06 4.25267e-05)
(1.18656e-07 7.95972e-08 6.75294e-08 5.78004e-08 -1.36088e-07 1.05824e-05)
(4.242e-08 3.03202e-08 -2.27783e-07 2.51203e-08 -1.07299e-07 4.59111e-06)
(1.31602e-08 1.45343e-08 -1.32622e-07 1.73969e-08 -1.61464e-07 3.7812e-06)
(1.30448e-14 5.02094e-12 -8.75719e-11 1.54075e-08 -1.60692e-07 3.75215e-06)
(1.31898e-08 -1.45489e-08 1.32693e-07 1.73991e-08 -1.61523e-07 3.7811e-06)
(4.24384e-08 -3.03309e-08 2.27824e-07 2.5118e-08 -1.07524e-07 4.58999e-06)
(1.18935e-07 -7.96786e-08 -6.64033e-08 5.77825e-08 -1.36446e-07 1.05751e-05)
(1.25715e-07 -9.39077e-08 -1.1323e-06 7.23358e-08 1.01442e-06 4.24867e-05)
(1.00758e-13 -1.97572e-11 -1.19771e-09 4.87494e-08 1.34562e-06 0.000144731)
(7.32322e-08 7.1633e-08 7.91296e-07 7.34851e-08 9.96102e-07 4.24623e-05)
(8.92768e-08 7.03099e-08 1.94822e-07 5.90353e-08 1.61227e-09 1.10866e-05)
(3.02606e-08 2.75979e-08 -1.22113e-07 2.9208e-08 -3.14092e-08 4.37015e-06)
(1.01265e-08 1.3582e-08 -7.26127e-08 1.9654e-08 -9.75652e-08 3.17442e-06)
(2.12928e-14 5.079e-12 -4.65643e-11 1.68668e-08 -1.01101e-07 3.05292e-06)
(1.01519e-08 -1.35978e-08 7.26444e-08 1.96601e-08 -9.76277e-08 3.17386e-06)
(3.02895e-08 -2.76164e-08 1.22105e-07 2.92115e-08 -3.16219e-08 4.36777e-06)
(8.95108e-08 -7.03971e-08 -1.94178e-07 5.90333e-08 1.24166e-09 1.10772e-05)
(7.34366e-08 -7.18228e-08 -7.91148e-07 7.36518e-08 9.95665e-07 4.24295e-05)
(6.7257e-14 -1.05212e-11 -3.16921e-10 3.80092e-08 6.38246e-07 9.4479e-05)
(3.10678e-08 4.56068e-08 4.0056e-07 7.20694e-08 8.57489e-07 3.60692e-05)
(5.78154e-08 5.50679e-08 2.39695e-07 5.58666e-08 1.04676e-07 1.04387e-05)
(1.89203e-08 2.19128e-08 -3.96817e-08 2.96936e-08 4.45987e-08 4.08753e-06)
(7.01356e-09 1.12391e-08 -2.30914e-08 1.96042e-08 -2.41816e-08 2.66272e-06)
(2.85004e-14 3.16342e-12 1.1512e-11 1.62289e-08 -3.48569e-08 2.441e-06)
(7.03781e-09 -1.12579e-08 2.31142e-08 1.96155e-08 -2.42184e-08 2.66192e-06)
(1.89527e-08 -2.1937e-08 3.96144e-08 2.97061e-08 4.44636e-08 4.08459e-06)
(5.79922e-08 -5.51502e-08 -2.39541e-07 5.58765e-08 1.04368e-07 1.04292e-05)
(3.1187e-08 -4.57499e-08 -4.01026e-07 7.22165e-08 8.57166e-07 3.60441e-05)
(2.5593e-13 4.60845e-12 -1.18663e-09 1.25935e-10 -1.93265e-08 9.58579e-06)
(1.86005e-07 -4.20679e-10 2.34135e-07 1.86922e-11 2.13167e-09 2.74791e-06)
(4.3949e-08 -1.80019e-10 -1.31965e-07 2.23067e-11 4.349e-09 2.89061e-06)
(3.02349e-08 2.09717e-11 -2.67446e-07 1.61654e-11 3.61826e-09 4.74141e-06)
(1.09732e-08 1.11137e-10 -2.25805e-07 1.78944e-11 1.40024e-09 7.07418e-06)
(1.41759e-14 1.37519e-13 -1.41602e-10 2.09888e-11 2.1697e-09 8.13745e-06)
(1.09602e-08 -1.11097e-10 2.25719e-07 1.79065e-11 1.39691e-09 7.07643e-06)
(3.01777e-08 -2.13476e-11 2.67416e-07 1.61634e-11 3.61244e-09 4.74486e-06)
(4.39617e-08 1.78499e-10 1.32522e-07 2.22874e-11 4.34449e-09 2.894e-06)
(1.86229e-07 4.10395e-10 -2.3234e-07 1.86494e-11 2.14706e-09 2.74349e-06)
(8.61838e-13 5.00709e-11 -3.7482e-09 4.49908e-09 -2.22595e-07 2.384e-05)
(5.68514e-07 1.49427e-08 7.30589e-07 8.92872e-10 1.07342e-08 1.13058e-05)
(1.52406e-07 6.66067e-09 -7.57611e-07 1.16176e-09 -1.77733e-08 1.02573e-05)
(6.8155e-08 2.89469e-09 -8.71976e-07 3.7703e-10 -3.25584e-08 1.86091e-05)
(2.46721e-08 1.75107e-09 -7.01432e-07 4.51504e-10 -4.45591e-08 2.55348e-05)
(2.04923e-14 1.46773e-12 1.31033e-10 4.53157e-10 -4.48808e-08 2.83357e-05)
(2.46873e-08 -1.74876e-09 7.02036e-07 4.51543e-10 -4.45366e-08 2.55391e-05)
(6.80545e-08 -2.89188e-09 8.72268e-07 3.77041e-10 -3.25892e-08 1.86164e-05)
(1.52478e-07 -6.66289e-09 7.59416e-07 1.16164e-09 -1.78665e-08 1.02672e-05)
(5.68714e-07 -1.49971e-08 -7.24447e-07 8.94596e-10 1.0737e-08 1.12889e-05)
(8.53253e-13 8.24451e-11 -4.69464e-09 1.32343e-08 -4.10887e-07 4.61551e-05)
(4.32538e-07 3.62833e-08 1.54759e-06 4.56833e-09 1.76218e-07 1.88231e-05)
(1.10395e-07 1.3952e-08 -6.73654e-07 5.24072e-09 -4.03543e-09 1.13388e-05)
(3.71844e-08 4.61274e-09 -7.0002e-07 1.1725e-09 -5.32883e-08 2.15643e-05)
(1.42826e-08 2.19852e-09 -6.01182e-07 1.27026e-09 -5.99256e-08 3.00052e-05)
(2.24593e-14 1.22848e-12 5.3882e-10 1.27813e-09 -6.67286e-08 3.35477e-05)
(1.43321e-08 -2.19588e-09 6.0256e-07 1.2702e-09 -5.98506e-08 3.0011e-05)
(3.71493e-08 -4.60581e-09 7.00662e-07 1.17226e-09 -5.33077e-08 2.15741e-05)
(1.10477e-07 -1.39476e-08 6.75583e-07 5.2376e-09 -4.26495e-09 1.13498e-05)
(4.32541e-07 -3.63433e-08 -1.54077e-06 4.57608e-09 1.76119e-07 1.87785e-05)
(6.31119e-13 5.6023e-11 -4.74001e-09 1.89065e-08 -1.5551e-07 7.02338e-05)
(2.42798e-07 5.09491e-08 1.68337e-06 1.36651e-08 4.31698e-07 2.40783e-05)
(5.18777e-08 1.56351e-08 -4.28265e-07 1.22845e-08 -1.49247e-08 9.163e-06)
(1.20947e-08 4.60382e-09 -3.98136e-07 2.78774e-09 -1.16866e-07 1.93688e-05)
(5.50143e-09 2.08039e-09 -3.76979e-07 2.69043e-09 -1.16669e-07 2.8344e-05)
(3.54408e-14 -1.21453e-12 8.1056e-10 2.6956e-09 -1.31178e-07 3.21752e-05)
(5.55127e-09 -2.08189e-09 3.78788e-07 2.68971e-09 -1.16533e-07 2.83507e-05)
(1.20994e-08 -4.59796e-09 3.98907e-07 2.78649e-09 -1.1685e-07 1.93804e-05)
(5.19399e-08 -1.56283e-08 4.29767e-07 1.22744e-08 -1.53163e-08 9.17323e-06)
(2.42745e-07 -5.09863e-08 -1.67761e-06 1.36815e-08 4.31288e-07 2.40101e-05)
(4.09141e-13 1.98634e-11 -4.29759e-09 2.71067e-08 4.64108e-07 9.19856e-05)
(1.23686e-07 5.2715e-08 1.38373e-06 2.70591e-08 7.18072e-07 2.52832e-05)
(2.22978e-08 1.24951e-08 -2.4688e-07 1.92551e-08 -1.42704e-08 5.64056e-06)
(3.19747e-09 2.93836e-09 -1.86148e-07 3.86682e-09 -1.46745e-07 1.5128e-05)
(2.10276e-09 1.25687e-09 -2.03043e-07 3.32955e-09 -1.33821e-07 2.41474e-05)
(4.76772e-14 -3.28745e-12 9.2001e-10 3.3383e-09 -1.51947e-07 2.80077e-05)
(2.13835e-09 -1.26193e-09 2.04977e-07 3.32787e-09 -1.33622e-07 2.41546e-05)
(3.20949e-09 -2.9366e-09 1.86917e-07 3.86346e-09 -1.46674e-07 1.51409e-05)
(2.23433e-08 -1.24901e-08 2.47923e-07 1.9235e-08 -1.47745e-08 5.64984e-06)
(1.23665e-07 -5.27337e-08 -1.37959e-06 2.70842e-08 7.1728e-07 2.52033e-05)
(2.28739e-13 -1.66845e-11 -3.41251e-09 4.70158e-08 1.46035e-06 0.000105911)
(6.47122e-08 4.74489e-08 9.93805e-07 4.15424e-08 8.92851e-07 2.19579e-05)
(1.19629e-08 1.09456e-08 -1.318e-07 2.47399e-08 -1.60745e-08 2.60706e-06)
(1.20609e-09 2.04502e-09 -8.50732e-08 4.87178e-09 -1.59791e-07 1.11109e-05)
(1.12755e-09 9.43421e-10 -1.09659e-07 3.68218e-09 -1.34585e-07 1.99203e-05)
(5.07376e-14 -4.59566e-12 9.05009e-10 3.72644e-09 -1.52703e-07 2.36945e-05)
(1.15202e-09 -9.50732e-10 1.11511e-07 3.67929e-09 -1.34331e-07 1.99282e-05)
(1.2152e-09 -2.04793e-09 8.58094e-08 4.86511e-09 -1.59667e-07 1.11248e-05)
(1.20008e-08 -1.09442e-08 1.32581e-07 2.47105e-08 -1.66197e-08 2.61533e-06)
(6.47372e-08 -4.74692e-08 -9.91311e-07 4.15773e-08 8.91834e-07 2.18838e-05)
(1.04382e-13 -3.66014e-11 -2.20162e-09 8.01588e-08 2.44613e-06 0.000102118)
(4.11383e-08 4.2158e-08 7.3565e-07 5.08701e-08 8.98224e-07 1.65895e-05)
(9.72375e-09 1.26457e-08 -5.94314e-08 2.8185e-08 9.40937e-09 1.10231e-06)
(9.33116e-10 2.17446e-09 -5.99317e-08 5.97083e-09 -1.4712e-07 8.34257e-06)
(8.05201e-10 1.05315e-09 -7.8253e-08 3.97526e-09 -1.13504e-07 1.68094e-05)
(4.49833e-14 -4.827e-12 8.16561e-10 4.07754e-09 -1.28468e-07 2.04644e-05)
(8.25384e-10 -1.06067e-09 7.99125e-08 3.97112e-09 -1.13213e-07 1.68179e-05)
(9.40951e-10 -2.18045e-09 6.06439e-08 5.95987e-09 -1.46966e-07 8.35692e-06)
(9.762e-09 -1.26469e-08 6.01205e-08 2.81496e-08 8.86109e-09 1.10905e-06)
(4.11923e-08 -4.21942e-08 -7.34319e-07 5.09174e-08 8.97298e-07 1.65334e-05)
(3.89036e-14 -3.21296e-11 -1.07393e-09 1.07747e-07 2.6978e-06 7.71896e-05)
(3.01619e-08 3.81649e-08 5.77237e-07 5.46413e-08 8.22578e-07 1.26099e-05)
(1.04117e-08 1.56578e-08 -1.2759e-08 3.04098e-08 5.21089e-08 1.05919e-06)
(1.32412e-09 2.81664e-09 -6.57865e-08 7.40047e-09 -1.26487e-07 7.14649e-06)
(7.41834e-10 1.31646e-09 -7.79468e-08 4.46869e-09 -9.13559e-08 1.53392e-05)
(3.65864e-14 -4.30644e-12 7.14209e-10 4.62681e-09 -1.01717e-07 1.8939e-05)
(7.60793e-10 -1.32312e-09 7.94105e-08 4.46325e-09 -9.10481e-08 1.53485e-05)
(1.33337e-09 -2.82442e-09 6.64991e-08 7.3848e-09 -1.2633e-07 7.16106e-06)
(1.04548e-08 -1.56623e-08 1.34117e-08 3.0371e-08 5.15588e-08 1.0642e-06)
(3.02282e-08 -3.8215e-08 -5.7658e-07 5.46984e-08 8.21876e-07 1.25715e-05)
(1.83451e-14 -1.95863e-11 -4.13425e-10 1.05326e-07 2.14349e-06 4.79095e-05)
(2.03217e-08 3.24376e-08 4.31773e-07 5.6102e-08 7.42847e-07 1.01965e-05)
(1.10326e-08 1.76033e-08 8.2681e-09 3.16887e-08 7.17789e-08 1.25443e-06)
(1.96032e-09 3.46988e-09 -8.02712e-08 9.13949e-09 -1.30091e-07 6.8685e-06)
(8.27006e-10 1.56699e-09 -9.05074e-08 5.19961e-09 -9.75877e-08 1.51753e-05)
(3.23376e-14 -3.12871e-12 6.31795e-10 5.35765e-09 -1.03614e-07 1.88801e-05)
(8.44693e-10 -1.57222e-09 9.18367e-08 5.19281e-09 -9.72749e-08 1.51854e-05)
(1.97184e-09 -3.47893e-09 8.10187e-08 9.1195e-09 -1.29943e-07 6.8834e-06)