0 	0 	0 	0
5.01672e-05 	-2.1823e-05 	-4.44974e-06 	0.0203395
0.000100334 	-4.3646e-05 	-8.89947e-06 	0.040679
0.000150502 	-6.54691e-05 	-1.33492e-05 	0.0610184
0.000200669 	-8.72921e-05 	-1.77989e-05 	0.0813579
0.000250836 	-0.000109115 	-2.22487e-05 	0.101697
0.000301003 	-0.000130938 	-2.66984e-05 	0.122037
0.000351171 	-0.000150773 	-3.18552e-05 	0.14027
0.000401338 	-0.000163089 	-3.96855e-05 	0.150536
0.000451505 	-0.000175406 	-4.75158e-05 	0.160801
0.000501672 	-0.000187722 	-5.53461e-05 	0.171067
0.000551839 	-0.000200038 	-6.31765e-05 	0.181333
0.000602007 	-0.000212355 	-7.10068e-05 	0.191599
0.000652174 	-0.000224671 	-7.88371e-05 	0.201865
0.000702341 	-0.000236987 	-8.66675e-05 	0.212131
0.000752508 	-0.000246571 	-9.47256e-05 	0.220966
0.000802676 	-0.00024938 	-0.000103348 	0.226253
0.000852843 	-0.000252189 	-0.000111971 	0.23154
0.00090301 	-0.000254998 	-0.000120594 	0.236826
0.000953177 	-0.000257808 	-0.000129217 	0.242113
0.00100334 	-0.000260617 	-0.00013784 	0.2474
0.00105351 	-0.000263426 	-0.000146463 	0.252687
0.00110368 	-0.000266235 	-0.000155086 	0.257974
0.00115385 	-0.000269044 	-0.000163709 	0.263261
0.00120401 	-0.000271656 	-0.000172291 	0.268442
0.00125418 	-0.000270219 	-0.000180034 	0.271456
0.00130435 	-0.000268782 	-0.000187777 	0.27447
0.00135452 	-0.000267345 	-0.00019552 	0.277484
0.00140468 	-0.000265908 	-0.000203263 	0.280498
0.00145485 	-0.000264471 	-0.000211006 	0.283513
0.00150502 	-0.000263034 	-0.000218749 	0.286527
0.00155518 	-0.000261598 	-0.000226492 	0.289541
0.00160535 	-0.000260161 	-0.000234235 	0.292555
0.00165552 	-0.000258724 	-0.000241978 	0.295569
0.00170569 	-0.000257287 	-0.000249721 	0.298583
0.00175585 	-0.000255597 	-0.000257065 	0.301308
0.00180602 	-0.000253212 	-0.00026331 	0.303239
0.00185619 	-0.000250826 	-0.000269556 	0.30517
0.00190635 	-0.000248441 	-0.000275801 	0.3071
0.00195652 	-0.000246055 	-0.000282047 	0.309031
0.00200669 	-0.00024367 	-0.000288292 	0.310961
0.00205686 	-0.000241284 	-0.000294537 	0.312892
0.00210702 	-0.000238899 	-0.000300783 	0.314823
0.00215719 	-0.000236513 	-0.000307028 	0.316753
0.00220736 	-0.000234128 	-0.000313274 	0.318684
0.00225753 	-0.000231742 	-0.000319519 	0.320614
0.00230769 	-0.000229357 	-0.000325764 	0.322545
0.00235786 	-0.000226972 	-0.00033201 	0.324476
0.00240803 	-0.000224822 	-0.000337102 	0.325973
0.00245819 	-0.000222778 	-0.00034168 	0.327278
0.00250836 	-0.000220733 	-0.000346258 	0.328583
0.00255853 	-0.000218689 	-0.000350836 	0.329888
0.0026087 	-0.000216644 	-0.000355413 	0.331193
0.00265886 	-0.0002146 	-0.000359991 	0.332498
0.00270903 	-0.000212556 	-0.000364569 	0.333802
0.0027592 	-0.000210511 	-0.000369147 	0.335107
0.00280936 	-0.000208467 	-0.000373725 	0.336412
0.00285953 	-0.000206422 	-0.000378303 	0.337717
0.0029097 	-0.000204378 	-0.000382881 	0.339022
0.00295987 	-0.000202334 	-0.000387459 	0.340326
0.00301003 	-0.000200289 	-0.000392037 	0.341631
0.0030602 	-0.000198245 	-0.000396615 	0.342936
0.00311037 	-0.000196214 	-0.000401163 	0.344231
0.00316054 	-0.000194782 	-0.000404403 	0.345108
0.0032107 	-0.00019335 	-0.000407643 	0.345984
0.00326087 	-0.000191918 	-0.000410883 	0.346861
0.00331104 	-0.000190486 	-0.000414123 	0.347737
0.0033612 	-0.000189054 	-0.000417363 	0.348614
0.00341137 	-0.000187622 	-0.000420604 	0.349491
0.00346154 	-0.00018619 	-0.000423844 	0.350367
0.00351171 	-0.000184758 	-0.000427084 	0.351244
0.00356187 	-0.000183326 	-0.000430324 	0.35212
0.00361204 	-0.000181894 	-0.000433564 	0.352997
0.00366221 	-0.000180462 	-0.000436805 	0.353874
0.00371237 	-0.000179029 	-0.000440045 	0.35475
0.00376254 	-0.000177597 	-0.000443285 	0.355627
0.00381271 	-0.000176165 	-0.000446525 	0.356503
0.00386288 	-0.000174733 	-0.000449765 	0.35738
0.00391304 	-0.000173301 	-0.000453006 	0.358257
0.00396321 	-0.000171869 	-0.000456246 	0.359133
0.00401338 	-0.000170837 	-0.000458643 	0.359712
0.00406355 	-0.000169844 	-0.000460959 	0.360262
0.00411371 	-0.000168851 	-0.000463274 	0.360812
0.00416388 	-0.000167858 	-0.000465589 	0.361361
0.00421405 	-0.000166865 	-0.000467904 	0.361911
0.00426421 	-0.000165872 	-0.000470219 	0.362461
0.00431438 	-0.00016488 	-0.000472534 	0.363011
0.00436455 	-0.000163887 	-0.000474849 	0.363561
0.00441472 	-0.000162894 	-0.000477164 	0.36411
0.00446488 	-0.000161901 	-0.000479479 	0.36466
0.00451505 	-0.000160908 	-0.000481794 	0.36521
0.00456522 	-0.000159915 	-0.000484109 	0.36576
0.00461538 	-0.000158922 	-0.000486424 	0.366309
0.00466555 	-0.000157929 	-0.000488739 	0.366859
0.00471572 	-0.000156936 	-0.000491054 	0.367409
0.00476589 	-0.000155943 	-0.000493369 	0.367959
0.00481605 	-0.000154951 	-0.000495685 	0.368508
0.00486622 	-0.000153958 	-0.000498 	0.369058
0.00491639 	-0.000152965 	-0.000500315 	0.369608
0.00496656 	-0.000151972 	-0.00050263 	0.370158
0.00501672 	-0.000151184 	-0.000504228 	0.370458
0.00506689 	-0.000150407 	-0.000505787 	0.370746
0.00511706 	-0.000149631 	-0.000507346 	0.371033
0.00516722 	-0.000148854 	-0.000508906 	0.37132
0.00521739 	-0.000148077 	-0.000510465 	0.371607
0.00526756 	-0.000147301 	-0.000512025 	0.371895
0.00531773 	-0.000146524 	-0.000513584 	0.372182
0.00536789 	-0.000145747 	-0.000515144 	0.372469
0.00541806 	-0.000144971 	-0.000516703 	0.372756
0.00546823 	-0.000144194 	-0.000518262 	0.373044
0.00551839 	-0.000143417 	-0.000519822 	0.373331
0.00556856 	-0.000142641 	-0.000521381 	0.373618
0.00561873 	-0.000141864 	-0.000522941 	0.373905
0.0056689 	-0.000141087 	-0.0005245 	0.374193
0.00571906 	-0.000140311 	-0.00052606 	0.37448
0.00576923 	-0.000139534 	-0.000527619 	0.374767
0.0058194 	-0.000138757 	-0.000529178 	0.375054
0.00586957 	-0.00013798 	-0.000530738 	0.375342
0.00591973 	-0.000137204 	-0.000532297 	0.375629
0.0059699 	-0.000136427 	-0.000533857 	0.375916
0.00602007 	-0.00013565 	-0.000535416 	0.376203
0.00607023 	-0.000134874 	-0.000536976 	0.376491
0.0061204 	-0.000134097 	-0.000538535 	0.376778
0.00617057 	-0.000133417 	-0.00053958 	0.376919
0.00622074 	-0.000132787 	-0.000540364 	0.376986
0.0062709 	-0.000132156 	-0.000541148 	0.377053
0.00632107 	-0.000131526 	-0.000541932 	0.37712
0.00637124 	-0.000130895 	-0.000542717 	0.377187
0.0064214 	-0.000130264 	-0.000543501 	0.377254
0.00647157 	-0.000129634 	-0.000544285 	0.377321
0.00652174 	-0.000129003 	-0.000545069 	0.377388
0.00657191 	-0.000128373 	-0.000545853 	0.377455
0.00662207 	-0.000127742 	-0.000546637 	0.377522
0.00667224 	-0.000127111 	-0.000547422 	0.377589
0.00672241 	-0.000126481 	-0.000548206 	0.377656
0.00677258 	-0.00012585 	-0.00054899 	0.377723
0.00682274 	-0.00012522 	-0.000549774 	0.37779
0.00687291 	-0.000124589 	-0.000550558 	0.377857
0.00692308 	-0.000123959 	-0.000551342 	0.377924
0.00697324 	-0.000123328 	-0.000552126 	0.377991
0.00702341 	-0.000122697 	-0.000552911 	0.378057
0.00707358 	-0.000122067 	-0.000553695 	0.378124
0.00712375 	-0.000121436 	-0.000554479 	0.378191
0.00717391 	-0.000120806 	-0.000555263 	0.378258
0.00722408 	-0.000120175 	-0.000556047 	0.378325
0.00727425 	-0.000119545 	-0.000556831 	0.378392
0.00732441 	-0.000118914 	-0.000557616 	0.378459
0.00737458 	-0.000118283 	-0.0005584 	0.378526
0.00742475 	-0.000117653 	-0.000559184 	0.378593
0.00747492 	-0.000117022 	-0.000559968 	0.37866
0.00752508 	-0.000116449 	-0.000560368 	0.378628
0.00757525 	-0.000115933 	-0.000560383 	0.378497
0.00762542 	-0.000115417 	-0.000560399 	0.378366
0.00767559 	-0.000114902 	-0.000560414 	0.378234
0.00772575 	-0.000114386 	-0.000560429 	0.378103
0.00777592 	-0.00011387 	-0.000560445 	0.377972
0.00782609 	-0.000113354 	-0.00056046 	0.377841
0.00787625 	-0.000112839 	-0.000560475 	0.37771
0.00792642 	-0.000112323 	-0.000560491 	0.377578
0.00797659 	-0.000111807 	-0.000560506 	0.377447
0.00802676 	-0.000111291 	-0.000560522 	0.377316
0.00807692 	-0.000110775 	-0.000560537 	0.377185
0.00812709 	-0.00011026 	-0.000560552 	0.377053
0.00817726 	-0.000109744 	-0.000560568 	0.376922
0.00822742 	-0.000109228 	-0.000560583 	0.376791
0.00827759 	-0.000108712 	-0.000560599 	0.37666
0.00832776 	-0.000108196 	-0.000560614 	0.376529
0.00837793 	-0.000107681 	-0.000560629 	0.376397
0.00842809 	-0.000107165 	-0.000560645 	0.376266
0.00847826 	-0.000106649 	-0.00056066 	0.376135
0.00852843 	-0.000106133 	-0.000560675 	0.376004
0.0085786 	-0.000105618 	-0.000560691 	0.375872
0.00862876 	-0.000105102 	-0.000560706 	0.375741
0.00867893 	-0.000104586 	-0.000560722 	0.37561
0.0087291 	-0.00010407 	-0.000560737 	0.375479
0.00877926 	-0.000103554 	-0.000560752 	0.375348
0.00882943 	-0.000103039 	-0.000560768 	0.375216
0.0088796 	-0.000102577 	-0.000560467 	0.375004
0.00892977 	-0.00010222 	-0.000559542 	0.374633
0.00897993 	-0.000101864 	-0.000558618 	0.374262
0.0090301 	-0.000101507 	-0.000557693 	0.373891
0.00908027 	-0.000101151 	-0.000556768 	0.37352
0.00913043 	-0.000100794 	-0.000555844 	0.373149
0.0091806 	-0.000100438 	-0.000554919 	0.372778
0.00923077 	-0.000100081 	-0.000553995 	0.372407
0.00928094 	-9.97248e-05 	-0.00055307 	0.372036
0.0093311 	-9.93683e-05 	-0.000552146 	0.371665
0.00938127 	-9.90119e-05 	-0.000551221 	0.371294
0.00943144 	-9.86554e-05 	-0.000550296 	0.370923
0.00948161 	-9.82989e-05 	-0.000549372 	0.370552
0.00953177 	-9.79425e-05 	-0.000548447 	0.370181
0.00958194 	-9.7586e-05 	-0.000547523 	0.369809
0.00963211 	-9.72296e-05 	-0.000546598 	0.369438
0.00968227 	-9.68731e-05 	-0.000545673 	0.369067
0.00973244 	-9.65166e-05 	-0.000544749 	0.368696
0.00978261 	-9.61602e-05 	-0.000543824 	0.368325
0.00983278 	-9.58037e-05 	-0.0005429 	0.367954
0.00988294 	-9.54472e-05 	-0.000541975 	0.367583
0.00993311 	-9.50908e-05 	-0.000541051 	0.367212
0.00998328 	-9.47343e-05 	-0.000540126 	0.366841
0.0100334 	-9.43953e-05 	-0.000539145 	0.366455
0.0100836 	-9.43824e-05 	-0.00053712 	0.365801
0.0101338 	-9.43694e-05 	-0.000535094 	0.365146
0.0101839 	-9.43565e-05 	-0.000533069 	0.364492
0.0102341 	-9.43436e-05 	-0.000531043 	0.363837
0.0102843 	-9.43306e-05 	-0.000529017 	0.363183
0.0103344 	-9.43177e-05 	-0.000526992 	0.362528
0.0103846 	-9.43047e-05 	-0.000524966 	0.361874
0.0104348 	-9.42918e-05 	-0.00052294 	0.361219
0.0104849 	-9.42789e-05 	-0.000520915 	0.360564
0.0105351 	-9.42659e-05 	-0.000518889 	0.35991
0.0105853 	-9.4253e-05 	-0.000516863 	0.359255
0.0106355 	-9.424e-05 	-0.000514838 	0.358601
0.0106856 	-9.42271e-05 	-0.000512812 	0.357946
0.0107358 	-9.42142e-05 	-0.000510787 	0.357292
0.010786 	-9.42012e-05 	-0.000508761 	0.356637
0.0108361 	-9.41883e-05 	-0.000506735 	0.355982
0.0108863 	-9.41753e-05 	-0.00050471 	0.355328
0.0109365 	-9.41624e-05 	-0.000502684 	0.354673
0.0109866 	-9.41495e-05 	-0.000500658 	0.354019
0.0110368 	-9.41915e-05 	-0.000498491 	0.353331
0.011087 	-9.47938e-05 	-0.000494872 	0.35231
0.0111371 	-9.53961e-05 	-0.000491253 	0.351288
0.0111873 	-9.59984e-05 	-0.000487635 	0.350267
0.0112375 	-9.66007e-05 	-0.000484016 	0.349245
0.0112876 	-9.7203e-05 	-0.000480397 	0.348223
0.0113378 	-9.78053e-05 	-0.000476779 	0.347202
0.011388 	-9.84076e-05 	-0.00047316 	0.34618
0.0114381 	-9.90099e-05 	-0.000469541 	0.345158
0.0114883 	-9.96122e-05 	-0.000465923 	0.344137
0.0115385 	-0.000100215 	-0.000462304 	0.343115
0.0115886 	-0.000100817 	-0.000458685 	0.342094
0.0116388 	-0.000101419 	-0.000455067 	0.341072
0.011689 	-0.000102021 	-0.000451448 	0.34005
0.0117391 	-0.000102624 	-0.00044783 	0.339029
0.0117893 	-0.000103226 	-0.000444211 	0.338007
0.0118395 	-0.000103828 	-0.000440592 	0.336986
0.0118896 	-0.000104431 	-0.000436974 	0.335964
0.0119398 	-0.000105903 	-0.000430868 	0.334406
0.01199 	-0.000107396 	-0.000424705 	0.332835
0.0120401 	-0.000108888 	-0.000418542 	0.331264
0.0120903 	-0.000110381 	-0.000412379 	0.329693
0.0121405 	-0.000111873 	-0.000406215 	0.328122
0.0121906 	-0.000113366 	-0.000400052 	0.326552
0.0122408 	-0.000114858 	-0.000393889 	0.324981
0.012291 	-0.000116351 	-0.000387726 	0.32341
0.0123411 	-0.000117843 	-0.000381563 	0.321839
0.0123913 	-0.000119336 	-0.0003754 	0.320268
0.0124415 	-0.000120828 	-0.000369237 	0.318697
0.0124916 	-0.000122321 	-0.000363074 	0.317127
0.0125418 	-0.000123813 	-0.000356911 	0.315556
0.012592 	-0.000125306 	-0.000350747 	0.313985
0.0126421 	-0.000127048 	-0.000343622 	0.31213
0.0126923 	-0.000129352 	-0.00033434 	0.309639
0.0127425 	-0.000131656 	-0.000325057 	0.307147
0.0127926 	-0.00013396 	-0.000315774 	0.304655
0.0128428 	-0.000136264 	-0.000306491 	0.302164
0.012893 	-0.000138568 	-0.000297208 	0.299672
0.0129431 	-0.000140872 	-0.000287925 	0.297181
0.0129933 	-0.000143175 	-0.000278642 	0.294689
0.0130435 	-0.000145479 	-0.00026936 	0.292197
0.0130936 	-0.000147783 	-0.000260077 	0.289706
0.0131438 	-0.000150087 	-0.000250794 	0.287214
0.013194 	-0.000152391 	-0.000241511 	0.284722
0.0132441 	-0.000154695 	-0.000232228 	0.282231
0.0132943 	-0.000156696 	-0.000221354 	0.278527
0.0133445 	-0.000158588 	-0.0002099 	0.274382
0.0133946 	-0.00016048 	-0.000198447 	0.270237
0.0134448 	-0.000162372 	-0.000186993 	0.266092
0.013495 	-0.000164264 	-0.00017554 	0.261947
0.0135452 	-0.000166155 	-0.000164086 	0.257802
0.0135953 	-0.000168047 	-0.000152633 	0.253657
0.0136455 	-0.000169939 	-0.000141179 	0.249512
0.0136957 	-0.000171831 	-0.000129726 	0.245367
0.0137458 	-0.000173722 	-0.000118273 	0.241222
0.013796 	-0.000175614 	-0.000106819 	0.237077
0.0138462 	-0.000173616 	-9.69833e-05 	0.229639
0.0138963 	-0.000171427 	-8.72263e-05 	0.222041
0.0139465 	-0.000169239 	-7.74693e-05 	0.214442
0.0139967 	-0.000167051 	-6.77123e-05 	0.206844
0.0140468 	-0.000164863 	-5.79553e-05 	0.199246
0.014097 	-0.000162675 	-4.81983e-05 	0.191648
0.0141472 	-0.000160487 	-3.84413e-05 	0.184049
0.0141973 	-0.000158299 	-2.86843e-05 	0.176451
0.0142475 	-0.000156111 	-1.89273e-05 	0.168853
0.0142977 	-0.000148684 	-1.38138e-05 	0.158309
0.0143478 	-0.000139144 	-1.05731e-05 	0.146577
0.014398 	-0.000129605 	-7.33244e-06 	0.134846
0.0144482 	-0.000120065 	-4.09175e-06 	0.123114
0.0144983 	-0.000110526 	-8.51067e-07 	0.111382
0.0145485 	-0.000100986 	2.38962e-06 	0.0996508
0.0145987 	-9.14463e-05 	5.6303e-06 	0.0879191
0.0146488 	-8.19067e-05 	8.87099e-06 	0.0761874
0.014699 	-7.06051e-05 	8.43669e-06 	0.0651469
0.0147492 	-5.88376e-05 	7.03058e-06 	0.0542891
0.0147993 	-4.70701e-05 	5.62446e-06 	0.0434312
0.0148495 	-3.53025e-05 	4.21835e-06 	0.0325734
0.0148997 	-2.3535e-05 	2.81223e-06 	0.0217156
0.0149498 	-1.17675e-05 	1.40612e-06 	0.0108578
0.015 	0 	0 	0
