/*--------------------------------*- C++ -*----------------------------------*\
| =========                 |                                                 |
| \\      /  F ield         | OpenFOAM: The Open Source CFD Toolbox           |
|  \\    /   O peration     | Version:  v1912                                 |
|   \\  /    A nd           | Website:  www.openfoam.com                      |
|    \\/     M anipulation  |                                                 |
\*---------------------------------------------------------------------------*/
FoamFile
{
    version     2.0;
    format      ascii;
    class       surfaceScalarField;
    location    "196.4";
    object      phi;
}
// * * * * * * * * * * * * * * * * * * * * * * * * * * * * * * * * * * * * * //

dimensions      [1 0 -1 0 0 0 0];
oriented        oriented;


internalField   nonuniform List<scalar> 
116032
(
2.53867e-06
2.45975e-05
8.5549e-07
-1.87572e-07
2.21759e-06
2.31526e-07
1.83445e-07
-8.41728e-07
2.18081e-07
1.15347e-07
-4.23094e-07
7.97643e-08
7.9687e-08
-4.12533e-07
6.27507e-08
5.06224e-08
-4.14048e-07
2.87109e-08
3.23532e-08
-4.18431e-07
2.07928e-08
8.19242e-09
-4.12752e-07
1.41002e-08
-8.92887e-09
-4.18443e-07
1.43917e-08
-3.3129e-08
-4.12683e-07
1.45182e-08
-5.13006e-08
-4.18521e-07
2.18372e-08
-8.02126e-08
-4.14125e-07
3.00876e-08
-1.1536e-07
-4.12836e-07
6.43417e-08
-1.82662e-07
-4.23679e-07
8.10451e-08
1.88462e-07
-8.41729e-07
2.18989e-07
2.21798e-06
2.32936e-07
2.86166e-06
1.50541e-05
1.34273e-06
-4.92519e-07
4.63329e-06
6.85482e-07
3.65502e-07
-2.54923e-06
6.58362e-07
1.61363e-07
-1.18206e-06
2.57119e-07
1.64836e-07
-1.32619e-06
2.54166e-07
1.11108e-07
-1.28297e-06
1.67774e-07
7.53122e-08
-1.29857e-06
1.50879e-07
1.96303e-08
-1.2776e-06
1.31982e-07
-2.22292e-08
-1.29461e-06
1.33672e-07
-7.78866e-08
-1.2777e-06
1.33429e-07
-1.1314e-07
-1.29965e-06
1.5442e-07
-1.65998e-07
-1.28433e-06
1.72478e-07
-1.60818e-07
-1.32816e-06
2.59504e-07
-3.63131e-07
-1.18441e-06
2.61575e-07
4.94541e-07
-2.54902e-06
6.61439e-07
4.63486e-06
6.89984e-07
1.99008e-06
6.15152e-06
1.59105e-06
-1.30912e-06
6.79382e-06
1.23674e-06
3.71497e-07
-5.26935e-06
1.22607e-06
1.27273e-07
-2.14452e-06
5.56477e-07
2.01918e-07
-2.55863e-06
5.75745e-07
1.47311e-07
-2.42805e-06
4.44081e-07
1.05952e-07
-2.45462e-06
4.21114e-07
2.80221e-08
-2.40977e-06
3.92423e-07
-3.23043e-08
-2.44081e-06
3.95371e-07
-1.1007e-07
-2.41014e-06
3.94742e-07
-1.50406e-07
-2.45723e-06
4.26865e-07
-2.03413e-07
-2.43145e-06
4.51829e-07
-1.2609e-07
-2.56315e-06
5.84809e-07
-3.67856e-07
-2.14925e-06
5.64179e-07
1.31185e-06
-5.26884e-06
1.2315e-06
6.79423e-06
1.2445e-06
1.20235e-06
-2.00106e-06
1.88741e-06
-2.11031e-06
8.88084e-06
1.94129e-06
3.37153e-07
-8.84481e-06
1.96682e-06
8.73054e-08
-3.22387e-06
1.01892e-06
2.29434e-07
-3.97968e-06
1.06062e-06
1.76099e-07
-3.73505e-06
8.80273e-07
1.31726e-07
-3.77351e-06
8.50719e-07
3.50755e-08
-3.69775e-06
8.11282e-07
-4.0625e-08
-3.74515e-06
8.15565e-07
-1.36989e-07
-3.69845e-06
8.14552e-07
-1.7997e-07
-3.77794e-06
8.58826e-07
-2.31158e-07
-3.74085e-06
8.91226e-07
-8.55958e-08
-3.98575e-06
1.07348e-06
-3.32544e-07
-3.2306e-06
1.02991e-06
2.11344e-06
-8.84349e-06
1.97459e-06
8.87956e-06
1.9523e-06
6.56069e-07
-9.76899e-06
2.32801e-06
-2.67444e-06
1.0985e-05
2.80614e-06
3.11148e-07
-1.29644e-05
2.88186e-06
5.38723e-08
-4.34878e-06
1.64784e-06
2.54086e-07
-5.52811e-06
1.71225e-06
1.99957e-07
-5.09148e-06
1.48101e-06
1.53317e-07
-5.1436e-06
1.44468e-06
4.09486e-08
-5.02921e-06
1.39415e-06
-4.7364e-08
-5.09547e-06
1.39976e-06
-1.59355e-07
-5.03032e-06
1.39838e-06
-2.04361e-07
-5.15033e-06
1.45515e-06
-2.55963e-07
-5.10038e-06
1.49518e-06
-5.18443e-08
-5.53848e-06
1.72888e-06
-3.05813e-07
-4.35911e-06
1.6621e-06
2.67773e-06
-1.29617e-05
2.89189e-06
1.09815e-05
2.82034e-06
2.41459e-07
-1.72228e-05
2.86348e-06
-3.10299e-06
1.31624e-05
3.8249e-06
2.78723e-07
-1.74296e-05
3.96388e-06
1.94962e-08
-5.46157e-06
2.43998e-06
2.69951e-07
-7.12564e-06
2.52798e-06
2.16219e-07
-6.49466e-06
2.24439e-06
1.69408e-07
-6.56472e-06
2.20131e-06
4.52535e-08
-6.40639e-06
2.13947e-06
-5.21702e-08
-6.49374e-06
2.14642e-06
-1.75879e-07
-6.40795e-06
2.14467e-06
-2.20919e-07
-6.57397e-06
2.21416e-06
-2.71882e-07
-6.50696e-06
2.26179e-06
-1.72089e-08
-7.13972e-06
2.54838e-06
-2.72898e-07
-5.47495e-06
2.45749e-06
3.10621e-06
-1.74249e-05
3.97608e-06
1.31565e-05
3.84227e-06
-7.83056e-08
-2.43159e-05
3.4499e-06
-3.42591e-06
1.54419e-05
4.98771e-06
2.34415e-07
-2.20838e-05
5.19707e-06
-1.77051e-08
-6.50394e-06
3.38505e-06
2.75081e-07
-8.69884e-06
3.49751e-06
2.24039e-07
-7.85836e-06
3.16065e-06
1.79527e-07
-7.95219e-06
3.11084e-06
4.786e-08
-7.74914e-06
3.03746e-06
-5.49398e-08
-7.859e-06
3.04574e-06
-1.86111e-07
-7.75094e-06
3.04361e-06
-2.28808e-07
-7.96373e-06
3.12607e-06
-2.76964e-07
-7.8738e-06
3.18125e-06
2.01256e-08
-8.71618e-06
3.52162e-06
-2.28332e-07
-6.51997e-06
3.4058e-06
3.42884e-06
-2.20764e-05
5.21135e-06
1.54331e-05
5.00816e-06
-3.33425e-07
-3.10325e-05
4.16369e-06
-3.65661e-06
1.78218e-05
6.27584e-06
1.77021e-07
-2.67937e-05
6.5542e-06
-5.91575e-08
-7.43325e-06
4.46153e-06
2.69329e-07
-1.01912e-05
4.59878e-06
2.2353e-07
-9.1295e-06
4.20801e-06
1.83726e-07
-9.2519e-06
4.15131e-06
4.87929e-08
-9.00317e-06
4.06589e-06
-5.5737e-08
-9.13664e-06
4.07552e-06
-1.90141e-07
-9.00503e-06
4.073e-06
-2.28166e-07
-9.26549e-06
4.16887e-06
-2.71073e-07
-9.14782e-06
4.23175e-06
6.16892e-08
-1.02113e-05
4.62651e-06
-1.70892e-07
-7.45142e-06
4.48545e-06
3.65909e-06
-2.6783e-05
6.57039e-06
1.78098e-05
6.29926e-06
-5.37324e-07
-3.73049e-05
4.95537e-06
-3.80129e-06
2.02875e-05
7.66211e-06
1.08707e-07
-3.14409e-05
8.0009e-06
-1.03525e-07
-8.21202e-06
5.63911e-06
2.53898e-07
-1.15516e-05
5.80074e-06
2.15632e-07
-1.02605e-05
5.35541e-06
1.82575e-07
-1.04152e-05
5.29134e-06
4.82222e-08
-1.01201e-05
5.19313e-06
-5.47865e-08
-1.0278e-05
5.20414e-06
-1.8859e-07
-1.01219e-05
5.2012e-06
-2.19971e-07
-1.04306e-05
5.31122e-06
-2.5543e-07
-1.02815e-05
5.38224e-06
1.06084e-07
-1.15739e-05
5.83198e-06
-1.028e-07
-8.23167e-06
5.66612e-06
3.80317e-06
-3.14263e-05
8.01881e-06
2.02721e-05
7.68835e-06
-6.81491e-07
-4.31423e-05
5.80621e-06
-3.8608e-06
2.28316e-05
9.1178e-06
3.30882e-08
-3.5916e-05
9.50589e-06
-1.48332e-07
-8.80668e-06
6.88825e-06
2.31136e-07
-1.27332e-05
7.07319e-06
2.0193e-07
-1.12075e-05
6.57252e-06
1.77065e-07
-1.13971e-05
6.50035e-06
4.6429e-08
-1.10549e-05
6.38838e-06
-5.24294e-08
-1.12376e-05
6.40079e-06
-1.82507e-07
-1.10564e-05
6.39742e-06
-2.05851e-07
-1.14141e-05
6.52252e-06
-2.3241e-07
-1.12308e-05
6.60237e-06
1.50848e-07
-1.27571e-05
7.10786e-06
-2.7387e-08
-8.82738e-06
6.91829e-06
3.862e-06
-3.5897e-05
9.52533e-06
2.28124e-05
9.14668e-06
-7.44146e-07
-4.84141e-05
6.70867e-06
-3.8382e-06
2.54671e-05
1.06204e-05
-4.60054e-08
-4.01225e-05
1.10535e-05
-1.90533e-07
-9.19065e-06
8.1888e-06
2.0393e-07
-1.3696e-05
8.39558e-06
1.843e-07
-1.19326e-05
7.8386e-06
1.68366e-07
-1.21589e-05
7.75745e-06
4.37425e-08
-1.17687e-05
7.63072e-06
-4.90459e-08
-1.19764e-05
7.64454e-06
-1.73114e-07
-1.17698e-05
7.64072e-06
-1.87717e-07
-1.21772e-05
7.78193e-06
-2.0492e-07
-1.19579e-05
7.87143e-06
1.92945e-07
-1.3721e-05
8.43359e-06
5.1287e-08
-9.21191e-06
8.2218e-06
3.83871e-06
-4.00987e-05
1.10743e-05
2.5444e-05
1.06518e-05
-7.12612e-07
-5.32809e-05
7.66164e-06
-3.74071e-06
2.82229e-05
1.21614e-05
-1.25528e-07
-4.39804e-05
1.26387e-05
-2.28058e-07
-9.3461e-06
9.53597e-06
1.7449e-07
-1.44099e-05
9.76372e-06
1.643e-07
-1.24071e-05
9.14691e-06
1.57499e-07
-1.26711e-05
9.05546e-06
4.04476e-08
-1.22319e-05
8.91224e-06
-4.49539e-08
-1.24647e-05
8.92755e-06
-1.61458e-07
-1.22324e-05
8.92327e-06
-1.67145e-07
-1.26907e-05
9.08236e-06
-1.75171e-07
-1.24344e-05
9.1828e-06
2.30329e-07
-1.44355e-05
9.80508e-06
1.30318e-07
-9.36751e-06
9.57196e-06
3.74057e-06
-4.39516e-05
1.26608e-05
2.81953e-05
1.21951e-05
-5.90326e-07
-5.78415e-05
8.66799e-06
-3.57477e-06
3.11282e-05
1.37378e-05
-2.03294e-07
-4.74232e-05
1.42555e-05
-2.60636e-07
-9.26237e-06
1.09365e-05
1.43698e-07
-1.48539e-05
1.11841e-05
1.42623e-07
-1.26122e-05
1.05049e-05
1.44962e-07
-1.29141e-05
1.04021e-05
3.66829e-08
-1.24243e-05
1.0241e-05
-4.03078e-08
-1.26825e-05
1.02578e-05
-1.48055e-07
-1.24243e-05
1.02531e-05
-1.4484e-07
-1.29349e-05
1.04315e-05
-1.44046e-07
-1.26413e-05
1.05439e-05
2.62749e-07
-1.48798e-05
1.12288e-05
2.07543e-07
-9.28359e-06
1.09755e-05
3.57411e-06
-4.73893e-05
1.42788e-05
3.10956e-05
1.37735e-05
-3.89279e-07
-6.21853e-05
9.73405e-06
-3.35286e-06
3.42089e-05
1.53435e-05
-2.78066e-07
-5.04024e-05
1.58975e-05
-2.89045e-07
-8.93528e-06
1.23947e-05
1.11688e-07
-1.50165e-05
1.26598e-05
1.19492e-07
-1.25379e-05
1.192e-05
1.30944e-07
-1.28775e-05
1.18055e-05
3.25072e-08
-1.23353e-05
1.16265e-05
-3.5188e-08
-1.2619e-05
1.16447e-05
-1.33115e-07
-1.23347e-05
1.16397e-05
-1.2104e-07
-1.28994e-05
1.18374e-05
-1.11683e-07
-1.25688e-05
1.19621e-05
2.90995e-07
-1.50423e-05
1.27077e-05
2.81755e-07
-8.95602e-06
1.24366e-05
3.35183e-06
-5.03637e-05
1.59218e-05
3.41709e-05
1.53809e-05
-1.26673e-07
-6.63852e-05
1.08711e-05
-3.08768e-06
3.74799e-05
1.69751e-05
-3.48454e-07
-5.28914e-05
1.75626e-05
-3.14008e-07
-8.36675e-06
1.39097e-05
7.8597e-08
-1.48955e-05
1.41897e-05
9.51765e-08
-1.21834e-05
1.33924e-05
1.15692e-07
-1.25595e-05
1.3266e-05
2.79976e-08
-1.19627e-05
1.30694e-05
-2.97026e-08
-1.22719e-05
1.30889e-05
-1.16914e-07
-1.19616e-05
1.30836e-05
-9.60368e-08
-1.25826e-05
1.33003e-05
-7.82311e-08
-1.22161e-05
1.34375e-05
3.15789e-07
-1.4921e-05
1.42406e-05
3.51584e-07
-8.38681e-06
1.39543e-05
3.08642e-06
-5.28482e-05
1.75878e-05
3.74357e-05
1.70142e-05
1.74075e-07
-7.04753e-05
1.2088e-05
-2.78796e-06
4.09337e-05
1.86311e-05
-4.12887e-07
-5.48814e-05
1.92493e-05
-3.35679e-07
-7.56406e-06
1.54795e-05
4.47086e-08
-1.44959e-05
1.57717e-05
7.00843e-08
-1.15554e-05
1.49207e-05
9.9529e-08
-1.19661e-05
1.47824e-05
2.32471e-08
-1.13116e-05
1.45688e-05
-2.39696e-08
-1.16464e-05
1.45893e-05
-9.98001e-08
-1.13102e-05
1.4584e-05
-7.02564e-08
-1.19905e-05
1.48192e-05
-4.39601e-08
-1.15899e-05
1.49687e-05
3.37287e-07
-1.45209e-05
1.58254e-05
4.1548e-07
-7.58338e-06
1.55267e-05
2.78662e-06
-5.48342e-05
1.92755e-05
4.08827e-05
1.86714e-05
4.91445e-07
-7.44557e-05
1.33855e-05
-2.46252e-06
4.45457e-05
2.0308e-05
-4.70076e-07
-5.63767e-05
2.09537e-05
-3.54058e-07
-6.53878e-06
1.71012e-05
9.84613e-09
-1.38285e-05
1.74027e-05
4.47007e-08
-1.06672e-05
1.65025e-05
8.28134e-08
-1.11091e-05
1.63523e-05
1.8361e-08
-1.03932e-05
1.61226e-05
-1.81154e-08
-1.07537e-05
1.61439e-05
-8.2151e-08
-1.03917e-05
1.61386e-05
-4.41974e-08
-1.11349e-05
1.63915e-05
-8.79933e-09
-1.07037e-05
1.65533e-05
3.55494e-07
-1.38529e-05
1.7459e-05
4.72176e-07
-6.55738e-06
1.71508e-05
2.46129e-06
-5.63263e-05
2.09806e-05
4.44872e-05
2.03495e-05
8.08938e-07
-7.83045e-05
1.47596e-05
-2.12037e-06
4.82821e-05
2.2001e-05
-5.19258e-07
-5.73916e-05
2.26698e-05
-3.69351e-07
-5.30587e-06
1.87703e-05
-2.13223e-08
-1.29142e-05
1.90796e-05
1.94046e-08
-9.53246e-06
1.81337e-05
6.58723e-08
-1.0005e-05
1.79719e-05
1.34362e-08
-9.22276e-06
1.77269e-05
-1.22581e-08
-9.60919e-06
1.77488e-05
-6.43136e-08
-9.22165e-06
1.77438e-05
-1.8236e-08
-1.00324e-05
1.80133e-05
2.26606e-08
-9.57117e-06
1.8187e-05
3.70623e-07
-1.29383e-05
1.91383e-05
5.20923e-07
-5.32404e-06
1.88222e-05
2.1194e-06
-5.73387e-05
2.26975e-05
4.82155e-05
2.20432e-05
1.11235e-06
-8.19821e-05
1.6203e-05
-1.77067e-06
5.21032e-05
2.37045e-05
-5.60194e-07
-5.79488e-05
2.43921e-05
-3.8196e-07
-3.88557e-06
2.04834e-05
-5.29833e-08
-1.17763e-05
2.07992e-05
-5.44323e-09
-8.1739e-06
1.98093e-05
4.90239e-08
-8.67425e-06
1.96358e-05
8.57047e-09
-7.81885e-06
1.93757e-05
-6.51806e-09
-8.23153e-06
1.9398e-05
-4.66236e-08
-7.81856e-06
1.93934e-05
7.12826e-09
-8.70356e-06
1.96794e-05
5.46377e-08
-8.21529e-06
1.98652e-05
3.83081e-07
-1.18004e-05
2.08602e-05
5.61497e-07
-3.90385e-06
2.05375e-05
1.77012e-06
-5.78944e-05
2.44204e-05
5.20281e-05
2.37472e-05
1.39012e-06
-8.54379e-05
1.7706e-05
-1.42281e-06
5.59675e-05
2.54132e-05
-5.93022e-07
-5.80784e-05
2.6115e-05
-3.92283e-07
-2.3019e-06
2.22344e-05
-8.34041e-08
-1.04428e-05
2.25547e-05
-2.89447e-08
-6.61835e-06
2.1524e-05
3.26292e-08
-7.14219e-06
2.13392e-05
3.87755e-09
-6.20492e-06
2.10641e-05
-1.05031e-09
-6.64426e-06
2.10868e-05
-2.94563e-08
-6.20604e-06
2.10826e-05
3.12494e-08
-7.17393e-06
2.1385e-05
8.53367e-08
-6.66294e-06
2.15825e-05
3.9328e-07
-1.04675e-05
2.26178e-05
5.94052e-07
-2.32091e-06
2.22905e-05
1.42281e-06
-5.80235e-05
2.61439e-05
5.58836e-05
2.54561e-05
1.63429e-06
-8.86165e-05
1.9259e-05
-1.08623e-06
5.98358e-05
2.71221e-05
-6.18042e-07
-5.78175e-05
2.78335e-05
-4.00263e-07
-5.78444e-07
2.40127e-05
-1.1175e-07
-8.94148e-06
2.43359e-05
-5.10598e-08
-4.89395e-06
2.32704e-05
1.70536e-08
-5.43741e-06
2.30762e-05
-5.23782e-10
-4.40885e-06
2.27885e-05
4.16986e-09
-4.87546e-06
2.28116e-05
-1.31791e-08
-4.4119e-06
2.28079e-05
5.3868e-08
-5.47202e-06
2.31238e-05
1.13941e-07
-4.94232e-06
2.33311e-05
4.01182e-07
-8.96727e-06
2.44007e-05
6.18897e-07
-5.9884e-07
2.40705e-05
1.08687e-06
-5.77631e-05
2.78629e-05
5.97427e-05
2.7165e-05
1.83996e-06
-9.14641e-05
2.08563e-05
-7.70278e-07
6.3674e-05
2.88262e-05
-6.35689e-07
-5.72093e-05
2.95433e-05
-4.05336e-07
1.26233e-06
2.58104e-05
-1.37258e-07
-7.29835e-06
2.61327e-05
-7.12748e-08
-3.02701e-06
2.50442e-05
2.46102e-09
-3.58681e-06
2.4843e-05
-4.70532e-09
-2.45826e-06
2.45455e-05
8.98638e-09
-2.95249e-06
2.45686e-05
2.31474e-09
-2.46364e-06
2.45655e-05
7.4525e-08
-3.62435e-06
2.48921e-05
1.39684e-07
-3.07965e-06
2.51069e-05
4.06219e-07
-7.32583e-06
2.61988e-05
6.36467e-07
1.23982e-06
2.58695e-05
7.71623e-07
-5.71562e-05
2.95731e-05
6.35716e-05
2.88689e-05
2.00491e-06
-9.39318e-05
2.24959e-05
-4.8404e-07
6.74562e-05
3.05215e-05
-6.46584e-07
-5.63028e-05
3.12409e-05
-4.07073e-07
3.19944e-06
2.76245e-05
-1.59564e-07
-5.537e-06
2.79424e-05
-8.93997e-08
-1.04058e-06
2.68435e-05
-1.08283e-08
-1.61435e-06
2.66367e-05
-8.50863e-09
-3.80613e-07
2.63308e-05
1.33443e-08
-9.0281e-07
2.6354e-05
1.57636e-08
-3.88313e-07
2.63515e-05
9.30337e-08
-1.65552e-06
2.66872e-05
1.62199e-07
-1.09794e-06
2.69077e-05
4.07956e-07
-5.56689e-06
2.80094e-05
6.47381e-07
3.17395e-06
2.76845e-05
4.86128e-07
-5.6252e-05
3.12712e-05
6.73443e-05
3.05638e-05
2.13062e-06
-9.59808e-05
2.41764e-05
-2.38035e-07
7.11685e-05
3.22056e-05
-6.5169e-07
-5.51547e-05
3.29242e-05
-4.05624e-07
5.21352e-06
2.94527e-05
-1.78594e-07
-3.67903e-06
2.97643e-05
-1.0533e-07
1.04571e-06
2.86635e-05
-2.27286e-08
4.59636e-07
2.84527e-05
-1.19017e-08
1.79842e-06
2.81395e-05
1.72269e-08
1.24757e-06
2.81627e-05
2.8159e-08
1.78717e-06
2.81608e-05
1.09294e-07
4.1462e-07
2.85041e-05
1.81414e-07
9.83196e-07
2.87289e-05
4.06538e-07
-3.7122e-06
2.98317e-05
6.5259e-07
5.18406e-06
2.95133e-05
2.40933e-07
-5.51072e-05
3.29549e-05
7.1047e-05
3.22475e-05
2.22333e-06
-9.75908e-05
2.58958e-05
4.59585e-09
7.47664e-05
3.38784e-05
-6.52299e-07
-5.37815e-05
3.45918e-05
-4.01501e-07
7.28638e-06
3.12909e-05
-1.94416e-07
-1.74463e-06
3.15942e-05
-1.18994e-07
3.21536e-06
3.05008e-05
-3.33002e-08
2.61852e-06
3.02876e-05
-1.48744e-08
4.05935e-06
2.99686e-05
2.06179e-08
3.47983e-06
2.99919e-05
3.91144e-08
4.04441e-06
2.99906e-05
1.23238e-07
2.56938e-06
3.03398e-05
1.97409e-07
3.14722e-06
3.05671e-05
4.02492e-07
-1.78213e-06
3.16618e-05
6.53384e-07
7.25176e-06
3.13517e-05
-7.35201e-10
-5.37382e-05
3.46229e-05
7.4635e-05
3.39196e-05
2.28492e-06
-9.87514e-05
2.76513e-05
2.42812e-07
7.82083e-05
3.55424e-05
-6.49665e-07
-5.21974e-05
3.62428e-05
-3.9505e-07
9.39999e-06
3.31356e-05
-2.07096e-07
2.46985e-07
3.34286e-05
-1.30319e-07
5.45433e-06
3.2353e-05
-4.24306e-08
4.84865e-06
3.21392e-05
-1.74144e-08
6.3886e-06
3.18165e-05
2.35091e-08
5.78122e-06
3.18398e-05
4.85602e-08
6.37064e-06
3.1839e-05
1.34805e-07
4.79502e-06
3.21918e-05
2.1026e-07
5.38e-06
3.24198e-05
3.96175e-07
2.03899e-07
3.3496e-05
6.51014e-07
9.35886e-06
3.31962e-05
-2.37976e-07
-5.21591e-05
3.62742e-05
7.80679e-05
3.55828e-05
2.27219e-06
-9.93686e-05
2.94395e-05
4.56399e-07
8.14307e-05
3.71991e-05
-6.44959e-07
-5.04329e-05
3.7877e-05
-3.86456e-07
1.15356e-05
3.49836e-05
-2.16686e-07
2.27711e-06
3.52644e-05
-1.39305e-07
7.75014e-06
3.42178e-05
-5.00968e-08
7.13838e-06
3.40056e-05
-1.9517e-08
8.77576e-06
3.36817e-05
2.59027e-08
8.14167e-06
3.37049e-05
5.64829e-08
8.75493e-06
3.37047e-05
1.43999e-07
7.07977e-06
3.40583e-05
2.20023e-07
7.66883e-06
3.42848e-05
3.87772e-07
2.22698e-06
3.5331e-05
6.4664e-07
1.14864e-05
3.50437e-05
-4.50604e-07
-5.04004e-05
3.79087e-05
8.12815e-05
3.72387e-05
2.22046e-06
-9.94233e-05
3.1256e-05
6.43695e-07
8.44077e-05
3.88477e-05
-6.39192e-07
-4.85161e-05
3.94951e-05
-3.76008e-07
1.36732e-05
3.6832e-05
-2.23343e-07
4.32681e-06
3.70985e-05
-1.46014e-07
1.00902e-05
3.60927e-05
-5.63121e-08
9.47641e-06
3.58843e-05
-2.11844e-08
1.12117e-05
3.55623e-05
2.78069e-08
1.05519e-05
3.55852e-05
6.29037e-08
1.11879e-05
3.55857e-05
1.50888e-07
9.41212e-06
3.59367e-05
2.26859e-07
1.00009e-05
3.61593e-05
3.77567e-07
4.26803e-06
3.71642e-05
6.4126e-07
1.36143e-05
3.68912e-05
-6.36998e-07
-4.849e-05
3.95271e-05
8.42501e-05
3.88863e-05
2.13065e-06
-9.8901e-05
3.30959e-05
8.24278e-07
8.70956e-05
4.04869e-05
-6.33156e-07
-4.64522e-05
4.10984e-05
-3.64125e-07
1.57905e-05
3.86776e-05
-2.27339e-07
6.37609e-06
3.89284e-05
-1.50577e-07
1.24595e-05
3.79748e-05
-6.11243e-08
1.18494e-05
3.77726e-05
-2.24262e-08
1.36859e-05
3.7456e-05
2.92378e-08
1.30008e-05
3.74783e-05
6.78783e-08
1.36589e-05
3.74797e-05
1.55612e-07
1.17785e-05
3.78244e-05
2.31045e-07
1.2361e-05
3.80407e-05
3.65971e-07
6.30697e-06
3.89926e-05
6.35651e-07
1.57201e-05
3.87355e-05
-8.16296e-07
-4.64335e-05
4.11306e-05
8.69302e-05
4.05246e-05
2.00699e-06
-9.77976e-05
3.49543e-05
9.63782e-07
8.94905e-05
4.21162e-05
-6.27655e-07
-4.42792e-05
4.26893e-05
-3.51301e-07
1.78621e-05
4.05172e-05
-2.29049e-07
8.40287e-06
4.07515e-05
-1.532e-07
1.48389e-05
3.9861e-05
-6.46204e-08
1.42393e-05
3.96673e-05
-2.3262e-08
1.6183e-05
3.936e-05
3.02213e-08
1.54727e-05
3.93814e-05
7.15015e-08
1.61527e-05
3.9384e-05
1.58384e-07
1.41606e-05
3.97181e-05
2.32955e-07
1.47298e-05
3.99256e-05
3.53467e-07
8.32172e-06
4.08139e-05
6.30605e-07
1.77787e-05
4.05735e-05
-9.55387e-07
-4.42678e-05
4.27218e-05
8.93174e-05
4.2153e-05
1.82184e-06
-9.60549e-05
3.68266e-05
1.06762e-06
9.15566e-05
4.37355e-05
-6.23423e-07
-4.20284e-05
4.4271e-05
-3.37999e-07
1.98588e-05
4.23478e-05
-2.28895e-07
1.03822e-05
4.25654e-05
-1.54144e-07
1.72027e-05
4.17474e-05
-6.69234e-08
1.66215e-05
4.15648e-05
-2.37223e-08
1.86809e-05
4.12708e-05
3.07949e-08
1.79449e-05
4.12909e-05
7.39045e-08
1.86468e-05
4.12948e-05
1.5947e-07
1.65339e-05
4.16142e-05
2.33012e-07
1.70814e-05
4.18104e-05
3.40509e-07
1.02875e-05
4.26258e-05
6.26844e-07
1.97609e-05
4.24023e-05
-1.05861e-06
-4.20245e-05
4.43039e-05
9.13765e-05
4.37713e-05
1.64697e-06
-9.37582e-05
3.87084e-05
1.14752e-06
9.33185e-05
4.53451e-05
-6.2111e-07
-3.97181e-05
4.58463e-05
-3.24545e-07
2.17491e-05
4.41674e-05
-2.27272e-07
1.22879e-05
4.43682e-05
-1.53689e-07
1.95181e-05
4.36299e-05
-6.818e-08
1.89638e-05
4.34602e-05
-2.38468e-08
2.11488e-05
4.31834e-05
3.10069e-08
2.03866e-05
4.32019e-05
7.52427e-08
2.11106e-05
4.32075e-05
1.59156e-07
1.8866e-05
4.35079e-05
2.3161e-07
1.93834e-05
4.3691e-05
3.27413e-07
1.21786e-05
4.44265e-05
6.2501e-07
2.16358e-05
4.42199e-05
-1.13787e-06
-3.9722e-05
4.58794e-05
9.31316e-05
4.538e-05
1.46612e-06
-9.0961e-05
4.05954e-05
1.21251e-06
9.47777e-05
4.69459e-05
-6.21438e-07
-3.73571e-05
4.74171e-05
-3.11128e-07
2.35079e-05
4.59747e-05
-2.24494e-07
1.40973e-05
4.61591e-05
-1.52095e-07
2.17466e-05
4.55045e-05
-6.85459e-08
2.12268e-05
4.5349e-05
-2.36815e-08
2.35477e-05
4.50927e-05
3.09128e-08
2.27587e-05
4.51091e-05
7.56807e-08
2.3505e-05
4.51165e-05
1.57709e-07
2.11178e-05
4.53949e-05
2.29065e-07
2.15974e-05
4.55633e-05
3.14367e-07
1.39731e-05
4.62152e-05
6.25816e-07
2.3379e-05
4.60253e-05
-1.2023e-06
-3.73688e-05
4.74506e-05
9.45845e-05
4.69799e-05
1.27606e-06
-8.77082e-05
4.24825e-05
1.26626e-06
9.59329e-05
4.8539e-05
-6.24953e-07
-3.49498e-05
4.89855e-05
-2.97891e-07
2.51187e-05
4.77698e-05
-2.20824e-07
1.57961e-05
4.79378e-05
-1.49598e-07
2.38535e-05
4.73678e-05
-6.81738e-08
2.33704e-05
4.72272e-05
-2.3274e-08
2.58331e-05
4.69935e-05
3.05706e-08
2.50168e-05
4.70074e-05
7.53798e-08
2.57856e-05
4.7017e-05
1.55365e-07
2.32501e-05
4.72711e-05
2.2564e-07
2.36896e-05
4.74243e-05
3.01509e-07
1.56573e-05
4.79917e-05
6.29797e-07
2.49745e-05
4.78184e-05
-1.25558e-06
-3.49695e-05
4.90193e-05
9.57339e-05
4.85723e-05
1.07417e-06
-8.40345e-05
4.43621e-05
1.3104e-06
9.67815e-05
5.0126e-05
-6.3184e-07
-3.24993e-05
5.05536e-05
-2.84994e-07
2.65708e-05
4.95527e-05
-2.16522e-07
1.73764e-05
4.97046e-05
-1.46425e-07
2.58157e-05
4.92175e-05
-6.72163e-08
2.5367e-05
4.90914e-05
-2.26721e-08
2.79707e-05
4.88813e-05
3.00371e-08
2.71273e-05
4.88927e-05
7.45004e-08
2.79182e-05
4.89044e-05
1.52359e-07
2.52359e-05
4.91333e-05
2.21592e-07
2.56377e-05
4.92716e-05
2.88995e-07
1.72236e-05
4.97565e-05
6.37131e-07
2.64121e-05
4.95994e-05
-1.29938e-06
-3.25267e-05
5.05877e-05
9.65772e-05
5.01586e-05
8.58263e-07
-7.99628e-05
4.62246e-05
1.3471e-06
9.73184e-05
5.17087e-05
-6.41515e-07
-3.00071e-05
5.21236e-05
-2.72634e-07
2.78584e-05
5.13238e-05
-2.11864e-07
1.88341e-05
5.14601e-05
-1.42824e-07
2.76205e-05
5.10514e-05
-6.58382e-08
2.7202e-05
5.09389e-05
-2.19259e-08
2.99411e-05
5.07524e-05
2.93698e-08
2.90712e-05
5.0761e-05
7.32137e-08
2.98836e-05
5.0775e-05
1.48939e-07
2.7061e-05
5.0979e-05
2.17199e-07
2.74291e-05
5.11032e-05
2.77019e-07
1.86681e-05
5.15101e-05
6.4722e-07
2.76862e-05
5.13688e-05
-1.33585e-06
-3.00422e-05
5.21582e-05
9.71091e-05
5.17408e-05
6.29328e-07
-7.55107e-05
4.80606e-05
1.38037e-06
9.75359e-05
5.32894e-05
-6.53001e-07
-2.74727e-05
5.36983e-05
-2.61043e-07
2.89812e-05
5.30834e-05
-2.07145e-07
2.01685e-05
5.32048e-05
-1.39057e-07
2.92619e-05
5.28678e-05
-6.42154e-08
2.88687e-05
5.27676e-05
-2.1089e-08
3.17351e-05
5.26039e-05
2.86276e-08
3.08397e-05
5.26097e-05
7.16999e-08
3.16726e-05
5.2626e-05
1.45368e-07
2.87187e-05
5.28061e-05
2.12754e-07
2.90584e-05
5.29176e-05
2.65811e-07
1.99905e-05
5.32532e-05
6.59081e-07
2.87968e-05
5.31269e-05
-1.36902e-06
-2.75151e-05
5.37333e-05
9.73219e-05
5.3321e-05
3.88562e-07
-7.06924e-05
4.98655e-05
1.41589e-06
9.74225e-05
5.48711e-05
-6.65636e-07
-2.48913e-05
5.52819e-05
-2.50507e-07
2.9944e-05
5.4832e-05
-2.02684e-07
2.13824e-05
5.49392e-05
-1.35393e-07
3.07408e-05
5.46658e-05
-6.25258e-08
3.03674e-05
5.45762e-05
-2.02164e-08
3.33513e-05
5.44336e-05
2.7869e-08
3.24319e-05
5.44366e-05
7.01391e-08
3.32841e-05
5.44552e-05
1.41915e-07
3.02094e-05
5.46132e-05
2.08574e-07
3.05263e-05
5.47138e-05
2.55656e-07
2.11937e-05
5.49863e-05
6.72054e-07
2.97485e-05
5.48741e-05
-1.40459e-06
-2.49405e-05
5.53174e-05
9.72038e-05
5.49025e-05
1.33927e-07
-6.55151e-05
5.16521e-05
1.45792e-06
9.69605e-05
5.64576e-05
-6.78946e-07
-2.22549e-05
5.68784e-05
-2.41338e-07
3.07551e-05
5.657e-05
-1.98792e-07
2.24816e-05
5.66639e-05
-1.3209e-07
3.20631e-05
5.64452e-05
-6.09351e-08
3.17039e-05
5.63642e-05
-1.93612e-08
3.47951e-05
5.62405e-05
2.71486e-08
3.38533e-05
5.62409e-05
6.86976e-08
3.47235e-05
5.62616e-05
1.38835e-07
3.1539e-05
5.64e-05
2.04969e-07
3.18389e-05
5.64918e-05
2.46866e-07
2.22833e-05
5.671e-05
6.85668e-07
3.055e-05
5.66112e-05
-1.44682e-06
-2.23106e-05
5.69143e-05
9.67367e-05
5.64889e-05
-1.23937e-07
-6.00052e-05
5.34344e-05
1.50811e-06
9.6141e-05
5.80523e-05
-6.92908e-07
-1.95548e-05
5.84898e-05
-2.33561e-07
3.14255e-05
5.82983e-05
-1.95539e-07
2.34743e-05
5.83797e-05
-1.29253e-07
3.32387e-05
5.82069e-05
-5.95354e-08
3.28884e-05
5.81323e-05
-1.85587e-08
3.60764e-05
5.80248e-05
2.65042e-08
3.5114e-05
5.80227e-05
6.74676e-08
3.60008e-05
5.80456e-05
1.3623e-07
3.27175e-05
5.81673e-05
2.02008e-07
3.3006e-05
5.82524e-05
2.39468e-07
2.32677e-05
5.84252e-05
6.99907e-07
3.12121e-05
5.83389e-05
-1.49745e-06
-1.96162e-05
5.85263e-05
9.59116e-05
5.80836e-05
-3.75643e-07
-5.42031e-05
5.5216e-05
1.54434e-06
9.49864e-05
5.96581e-05
-7.07351e-07
-1.6805e-05
6.01175e-05
-2.26732e-07
3.19669e-05
6.00187e-05
-1.92533e-07
2.437e-05
6.00884e-05
-1.26691e-07
3.42803e-05
5.99528e-05
-5.82698e-08
3.39339e-05
5.98826e-05
-1.78025e-08
3.72089e-05
5.97884e-05
2.5937e-08
3.62275e-05
5.97841e-05
6.6398e-08
3.71295e-05
5.98089e-05
1.3391e-07
3.37581e-05
5.9917e-05
1.99294e-07
3.40404e-05
5.99976e-05
2.33012e-07
2.41562e-05
6.01335e-05
7.14595e-07
3.17463e-05
6.00588e-05
-1.53135e-06
-1.68741e-05
6.01545e-05
9.47535e-05
5.96894e-05
-6.19596e-07
-4.81448e-05
5.70001e-05
1.56927e-06
9.35174e-05
6.12775e-05
-7.21434e-07
-1.40182e-05
6.17625e-05
-2.20324e-07
3.23919e-05
6.17349e-05
-1.89167e-07
2.51788e-05
6.17947e-05
-1.24052e-07
3.52023e-05
6.16879e-05
-5.69853e-08
3.48554e-05
6.16201e-05
-1.70536e-08
3.82079e-05
6.1536e-05
2.54206e-08
3.72093e-05
6.15297e-05
6.53482e-08
3.81252e-05
6.15563e-05
1.31532e-07
3.46753e-05
6.16543e-05
1.96221e-07
3.49561e-05
6.17323e-05
2.26963e-07
2.4959e-05
6.18396e-05
7.28875e-07
3.21654e-05
6.17749e-05
-1.55599e-06
-1.40951e-05
6.18001e-05
9.32813e-05
6.13088e-05
-8.54533e-07
-4.18618e-05
5.87892e-05
1.59113e-06
9.17479e-05
6.29127e-05
-7.34157e-07
-1.12002e-05
6.34257e-05
-2.14e-07
3.27138e-05
6.3453e-05
-1.85222e-07
2.5911e-05
6.35047e-05
-1.21166e-07
3.60193e-05
6.34192e-05
-5.56036e-08
3.5668e-05
6.33523e-05
-1.62817e-08
3.90899e-05
6.32755e-05
2.49299e-08
3.80753e-05
6.32675e-05
6.42449e-08
3.90041e-05
6.32957e-05
1.28935e-07
3.54844e-05
6.33866e-05
1.92572e-07
3.57677e-05
6.34637e-05
2.20976e-07
2.56861e-05
6.35496e-05
7.41743e-07
3.24823e-05
6.3493e-05
-1.57757e-06
-1.12848e-05
6.3464e-05
9.15085e-05
6.29441e-05
-1.07744e-06
-3.53848e-05
6.05857e-05
1.61e-06
8.96945e-05
6.45653e-05
-7.44795e-07
-8.35757e-06
6.51081e-05
-2.0781e-07
3.29456e-05
6.51775e-05
-1.81026e-07
2.65764e-05
6.52224e-05
-1.18202e-07
3.67455e-05
6.51521e-05
-5.42178e-08
3.63866e-05
6.5085e-05
-1.55008e-08
3.98704e-05
6.50133e-05
2.44721e-08
3.88413e-05
6.5004e-05
6.31754e-08
3.97819e-05
6.50335e-05
1.26287e-07
3.62e-05
6.51195e-05
1.88674e-07
3.64891e-05
6.51968e-05
2.15104e-07
2.63473e-05
6.52677e-05
7.52477e-07
3.27103e-05
6.52178e-05
-1.59617e-06
-8.45002e-06
6.5147e-05
8.9452e-05
6.45968e-05
-1.28489e-06
-2.8747e-05
6.23922e-05
1.62635e-06
8.73776e-05
6.62362e-05
-7.52931e-07
-5.497e-06
6.68105e-05
-2.02141e-07
3.31007e-05
6.69114e-05
-1.76917e-07
2.71844e-05
6.69507e-05
-1.154e-07
3.73942e-05
6.68901e-05
-5.29597e-08
3.70252e-05
6.68217e-05
-1.47472e-08
4.05645e-05
6.67535e-05
2.40767e-08
3.95219e-05
6.6743e-05
6.22651e-08
4.04735e-05
6.67738e-05
1.23821e-07
3.68361e-05
6.68566e-05
1.84869e-07
3.71338e-05
6.69353e-05
2.09738e-07
2.6952e-05
6.69965e-05
7.60662e-07
3.28623e-05
6.69522e-05
-1.61228e-06
-5.59742e-06
6.68499e-05
8.71318e-05
6.62678e-05
-1.47358e-06
-2.19792e-05
6.42114e-05
1.64068e-06
8.48208e-05
6.79261e-05
-7.57969e-07
-2.62501e-06
6.85337e-05
-1.97156e-07
3.31922e-05
6.86574e-05
-1.72922e-07
2.77435e-05
6.86921e-05
-1.12784e-07
3.79783e-05
6.86364e-05
-5.18515e-08
3.75972e-05
6.85661e-05
-1.40291e-08
4.11858e-05
6.85002e-05
2.37519e-08
4.0131e-05
6.84887e-05
6.15354e-08
4.10926e-05
6.85206e-05
1.2156e-07
3.74058e-05
6.86015e-05
1.81187e-07
3.77144e-05
6.86823e-05
2.05045e-07
2.75083e-05
6.87385e-05
7.6571e-07
3.29516e-05
6.86987e-05
-1.62636e-06
-2.73361e-06
6.85737e-05
8.45718e-05
6.79579e-05
-1.64074e-06
-1.51127e-05
6.6046e-05
1.65318e-06
8.20509e-05
6.96359e-05
-7.59155e-07
2.51505e-07
7.02788e-05
-1.92791e-07
3.32329e-05
7.04179e-05
-1.68969e-07
2.82614e-05
7.04489e-05
-1.10281e-07
3.85092e-05
7.03944e-05
-5.08624e-08
3.81142e-05
7.03218e-05
-1.33367e-08
4.17458e-05
7.0258e-05
2.34893e-08
4.068e-05
7.02456e-05
6.09566e-08
4.16506e-05
7.02786e-05
1.19433e-07
3.79211e-05
7.03579e-05
1.77553e-07
3.82422e-05
7.0441e-05
2.00959e-07
2.8024e-05
7.04962e-05
7.66874e-07
3.29908e-05
7.046e-05
-1.63864e-06
1.34467e-07
7.03194e-05
8.17985e-05
6.96679e-05
-1.78429e-06
-8.17757e-06
6.78991e-05
1.66364e-06
7.90971e-05
7.13664e-05
-7.55824e-07
3.12454e-06
7.20466e-05
-1.89012e-07
3.32357e-05
7.21951e-05
-1.65013e-07
2.87449e-05
7.22233e-05
-1.0784e-07
3.8997e-05
7.21676e-05
-4.99725e-08
3.8586e-05
7.20931e-05
-1.26622e-08
4.22539e-05
7.20313e-05
2.32818e-08
4.11783e-05
7.2018e-05
6.05092e-08
4.2157e-05
7.2052e-05
1.17388e-07
3.83914e-05
7.21298e-05
1.73924e-07
3.87274e-05
7.22148e-05
1.97442e-07
2.85056e-05
7.22715e-05
7.63501e-07
3.29926e-05
7.2238e-05
-1.64891e-06
2.99882e-06
7.20877e-05
7.88412e-05
7.13985e-05
-1.90283e-06
-1.20121e-06
6.97736e-05
1.67135e-06
7.59908e-05
7.31183e-05
-7.47433e-07
5.98457e-06
7.3838e-05
-1.85803e-07
3.32132e-05
7.39906e-05
-1.61028e-07
2.92001e-05
7.4017e-05
-1.05423e-07
3.94491e-05
7.39595e-05
-4.91686e-08
3.902e-05
7.38835e-05
-1.20002e-08
4.27182e-05
7.38227e-05
2.31241e-08
4.16341e-05
7.38087e-05
6.01801e-08
4.26198e-05
7.38437e-05
1.15388e-07
3.88243e-05
7.39208e-05
1.70275e-07
3.91774e-05
7.40075e-05
1.94475e-07
2.89593e-05
7.40663e-05
7.55063e-07
3.29697e-05
7.40344e-05
-1.65648e-06
5.84999e-06
7.38796e-05
7.57313e-05
7.31506e-05
-1.99674e-06
5.80259e-06
7.16724e-05
1.67409e-06
7.27653e-05
7.48925e-05
-7.3357e-07
8.81933e-06
7.56536e-05
-1.83171e-07
3.3178e-05
7.58057e-05
-1.57e-07
2.96319e-05
7.58318e-05
-1.02995e-07
3.98714e-05
7.5773e-05
-4.84357e-08
3.94225e-05
7.56953e-05
-1.1345e-08
4.31459e-05
7.56346e-05
2.30114e-08
4.20542e-05
7.56202e-05
5.99545e-08
4.30462e-05
7.56559e-05
1.13398e-07
3.9226e-05
7.57332e-05
1.66592e-07
3.9598e-05
7.58218e-05
1.92055e-07
2.93899e-05
7.58822e-05
7.41174e-07
3.29342e-05
7.58506e-05
-1.65912e-06
8.67576e-06
7.56958e-05
7.25021e-05
7.4925e-05
-2.06818e-06
1.28411e-05
7.35969e-05
1.67012e-06
6.94529e-05
7.66899e-05
-7.13965e-07
1.16146e-05
7.74941e-05
-1.81147e-07
3.31421e-05
7.7642e-05
-1.52916e-07
3.00437e-05
7.767e-05
-1.00519e-07
4.02688e-05
7.76097e-05
-4.77545e-08
3.97991e-05
7.75302e-05
-1.06902e-08
4.3543e-05
7.74691e-05
2.29379e-08
4.24447e-05
7.74543e-05
5.98138e-08
4.34422e-05
7.74906e-05
1.1138e-07
3.9602e-05
7.75688e-05
1.6286e-07
3.99941e-05