-0.0075 	373
-0.00715932 	352.837
-0.00676191 	349.438
-0.00629832 	348.14
-0.00575752 	347.376
-0.00512667 	346.796
-0.00439077 	346.303
-0.00353231 	345.856
-0.00253089 	345.436
-0.00136271 	345.019
0 	344.59
0.00136271 	344.15
0.00253089 	343.719
0.00353231 	343.305
0.00439077 	342.89
0.00512667 	342.439
0.00575752 	341.881
0.00629832 	341.055
0.00676191 	339.236
0.00715932 	330.739
0.0075 	313
