/*--------------------------------*- C++ -*----------------------------------*\
| =========                 |                                                 |
| \\      /  F ield         | OpenFOAM: The Open Source CFD Toolbox           |
|  \\    /   O peration     | Version:  v1912                                 |
|   \\  /    A nd           | Website:  www.openfoam.com                      |
|    \\/     M anipulation  |                                                 |
\*---------------------------------------------------------------------------*/
FoamFile
{
    version     2.0;
    format      ascii;
    class       volScalarField;
    location    "11.2";
    object      k;
}
// * * * * * * * * * * * * * * * * * * * * * * * * * * * * * * * * * * * * * //

dimensions      [0 2 -2 0 0 0 0];


internalField   nonuniform List<scalar> 
34128
(
2.69008e-07
2.60909e-07
2.60795e-07
2.58997e-07
2.58529e-07
2.6107e-07
2.65065e-07
2.69051e-07
2.7379e-07
2.75557e-07
2.69707e-07
2.63973e-07
5.27353e-08
5.13198e-08
5.11205e-08
5.06854e-08
5.04533e-08
5.07003e-08
5.12235e-08
5.20409e-08
5.32944e-08
5.396e-08
5.30229e-08
5.1728e-08
8.88908e-08
8.7421e-08
8.62011e-08
8.50364e-08
8.38899e-08
8.30036e-08
8.25416e-08
8.40954e-08
8.7867e-08
9.06331e-08
9.0168e-08
8.70934e-08
2.72452e-07
2.68596e-07
2.64356e-07
2.60494e-07
2.56443e-07
2.5289e-07
2.50631e-07
2.55484e-07
2.6802e-07
2.77514e-07
2.76884e-07
2.66919e-07
6.72093e-07
6.63101e-07
6.52499e-07
6.4277e-07
6.32382e-07
6.23139e-07
6.17153e-07
6.29136e-07
6.60357e-07
6.84231e-07
6.83327e-07
6.58584e-07
1.37383e-06
1.35642e-06
1.33466e-06
1.31448e-06
1.29269e-06
1.27311e-06
1.26036e-06
1.28482e-06
1.34867e-06
1.3979e-06
1.39721e-06
1.34671e-06
2.45802e-06
2.42895e-06
2.3898e-06
2.35321e-06
2.3134e-06
2.27709e-06
2.25332e-06
2.29691e-06
2.41082e-06
2.49944e-06
2.50049e-06
2.41078e-06
3.98195e-06
3.93896e-06
3.87494e-06
3.81498e-06
3.74959e-06
3.68854e-06
3.64819e-06
3.71823e-06
3.90155e-06
4.04564e-06
4.05158e-06
3.90826e-06
5.96268e-06
5.90559e-06
5.80833e-06
5.71766e-06
5.61928e-06
5.52455e-06
5.46087e-06
5.56423e-06
5.83562e-06
6.05147e-06
6.06756e-06
5.85783e-06
8.36541e-06
8.29685e-06
8.15777e-06
8.02948e-06
7.89236e-06
7.75518e-06
7.66066e-06
7.80229e-06
8.17654e-06
8.47832e-06
8.5122e-06
8.2278e-06
1.11028e-05
1.10284e-05
1.08395e-05
1.06678e-05
1.04891e-05
1.03024e-05
1.01694e-05
1.0351e-05
1.0836e-05
1.12335e-05
1.12951e-05
1.0935e-05
1.40453e-05
1.39732e-05
1.37282e-05
1.35091e-05
1.32897e-05
1.30492e-05
1.2871e-05
1.30899e-05
1.36845e-05
1.41819e-05
1.4283e-05
1.38548e-05
1.70397e-05
1.69797e-05
1.66748e-05
1.6406e-05
1.61501e-05
1.58557e-05
1.56271e-05
1.58763e-05
1.65699e-05
1.71647e-05
1.73179e-05
1.68378e-05
1.99642e-05
1.9926e-05
1.956e-05
1.92386e-05
1.89497e-05
1.86027e-05
1.83203e-05
1.85925e-05
1.9373e-05
2.00628e-05
2.02803e-05
1.97623e-05
2.27545e-05
2.27486e-05
2.23221e-05
2.19455e-05
2.16279e-05
2.12315e-05
2.08931e-05
2.11789e-05
2.20306e-05
2.28105e-05
2.31047e-05
2.25652e-05
2.53569e-05
2.53943e-05
2.49099e-05
2.44756e-05
2.41339e-05
2.36937e-05
2.32981e-05
2.35864e-05
2.44905e-05
2.5354e-05
2.57367e-05
2.5193e-05
2.77304e-05
2.78228e-05
2.72847e-05
2.67908e-05
2.64299e-05
2.59528e-05
2.55002e-05
2.57785e-05
2.67142e-05
2.76534e-05
2.81351e-05
2.76045e-05
2.98468e-05
3.00059e-05
2.942e-05
2.88651e-05
2.84898e-05
2.79845e-05
2.7476e-05
2.77309e-05
2.86761e-05
2.96821e-05
3.02716e-05
2.97703e-05
3.16888e-05
3.19268e-05
3.12999e-05
3.06828e-05
3.02982e-05
2.97749e-05
2.92124e-05
2.94297e-05
3.03617e-05
3.14247e-05
3.21288e-05
3.16716e-05
3.32491e-05
3.35782e-05
3.29176e-05
3.22375e-05
3.1849e-05
3.13189e-05
3.0705e-05
3.08699e-05
3.1766e-05
3.28757e-05
3.36992e-05
3.32991e-05
3.4528e-05
3.49603e-05
3.42732e-05
3.35295e-05
3.31432e-05
3.26187e-05
3.19562e-05
3.20536e-05
3.28917e-05
3.40372e-05
3.49828e-05
3.4651e-05
3.55315e-05
3.60789e-05
3.53713e-05
3.4564e-05
3.41868e-05
3.36813e-05
3.29735e-05
3.29879e-05
3.37467e-05
3.49163e-05
3.59847e-05
3.57313e-05
3.62682e-05
3.69416e-05
3.62186e-05
3.53487e-05
3.49883e-05
3.45159e-05
3.37663e-05
3.36828e-05
3.43418e-05
3.55232e-05
3.67125e-05
3.65466e-05
3.67466e-05
3.75548e-05
3.68207e-05
3.58907e-05
3.55556e-05
3.51314e-05
3.43442e-05
3.4148e-05
3.46882e-05
3.58679e-05
3.71727e-05
3.71028e-05
3.69718e-05
3.79207e-05
3.71792e-05
3.61941e-05
3.58932e-05
3.55327e-05
3.47134e-05
3.4391e-05
3.47947e-05
3.59576e-05
3.73686e-05
3.74026e-05
3.69444e-05
3.80351e-05
3.72901e-05
3.6258e-05
3.60003e-05
3.57189e-05
3.48747e-05
3.44148e-05
3.46662e-05
3.57958e-05
3.72987e-05
3.74431e-05
3.66595e-05
3.78866e-05
3.71429e-05
3.60757e-05
3.587e-05
3.56814e-05
3.4822e-05
3.42173e-05
3.43035e-05
3.53811e-05
3.69563e-05
3.72157e-05
3.61016e-05
3.74457e-05
3.67137e-05
3.56316e-05
3.5486e-05
3.54008e-05
3.45402e-05
3.37902e-05
3.37022e-05
3.47063e-05
3.6323e-05
3.6698e-05
3.52303e-05
3.66473e-05
3.59482e-05
3.4888e-05
3.48089e-05
3.48308e-05
3.39927e-05
3.3111e-05
3.28469e-05
3.37484e-05
3.53556e-05
3.58383e-05
3.40009e-05
3.54332e-05
3.47921e-05
3.37989e-05
3.37885e-05
3.39124e-05
3.31269e-05
3.21441e-05
3.17128e-05
3.24791e-05
3.4014e-05
3.45869e-05
3.24203e-05
3.38159e-05
3.32511e-05
3.23608e-05
3.2416e-05
3.26302e-05
3.1923e-05
3.08761e-05
3.02976e-05
3.0906e-05
3.23163e-05
3.29565e-05
3.05618e-05
3.18868e-05
3.14055e-05
3.06373e-05
3.07533e-05
3.10452e-05
3.04313e-05
2.93501e-05
2.86455e-05
2.90865e-05
3.03415e-05
3.10309e-05
2.84618e-05
2.96863e-05
2.92924e-05
2.86576e-05
2.88236e-05
2.91724e-05
2.86579e-05
2.75797e-05
2.67814e-05
2.70565e-05
2.81351e-05
2.88516e-05
2.61875e-05
2.72879e-05
2.69814e-05
2.6484e-05
2.66872e-05
2.70713e-05
2.66593e-05
2.56175e-05
2.476e-05
2.48794e-05
2.57714e-05
2.64912e-05
2.38179e-05
2.47788e-05
2.45562e-05
2.41925e-05
2.4419e-05
2.48167e-05
2.45052e-05
2.3529e-05
2.2647e-05
2.26283e-05
2.33338e-05
2.40345e-05
2.14327e-05
2.22475e-05
2.21015e-05
2.18614e-05
2.20972e-05
2.24889e-05
2.22711e-05
2.13837e-05
2.05093e-05
2.03753e-05
2.09046e-05
2.15663e-05
1.91056e-05
1.9776e-05
1.96963e-05
1.95637e-05
1.97964e-05
2.01657e-05
2.0031e-05
1.9248e-05
1.84093e-05
1.81863e-05
1.85579e-05
1.91649e-05
1.68994e-05
1.74342e-05
1.74082e-05
1.73634e-05
1.75827e-05
1.79177e-05
1.78526e-05
1.71818e-05
1.6401e-05
1.61169e-05
1.63549e-05
1.68963e-05
1.48636e-05
1.52767e-05
1.52906e-05
1.53117e-05
1.55104e-05
1.58042e-05
1.57931e-05
1.52348e-05
1.45279e-05
1.42101e-05
1.43421e-05
1.48117e-05
1.30327e-05
1.33413e-05
1.33811e-05
1.34463e-05
1.36203e-05
1.38704e-05
1.38978e-05
1.34456e-05
1.28222e-05
1.2496e-05
1.25504e-05
1.29462e-05
1.14276e-05
1.16499e-05
1.17021e-05
1.17911e-05
1.19396e-05
1.21476e-05
1.21981e-05
1.18408e-05
1.13049e-05
1.09927e-05
1.09964e-05
1.13201e-05
1.00569e-05
1.02107e-05
1.02632e-05
1.03584e-05
1.04828e-05
1.06533e-05
1.07132e-05
1.04363e-05
9.98739e-06
9.70787e-06
9.68508e-06
9.94071e-06
8.9202e-06
9.02139e-06
9.06347e-06
9.15048e-06
9.2543e-06
9.39384e-06
9.45113e-06
9.23868e-06
8.87278e-06
8.64133e-06
8.61282e-06
8.80569e-06
8.01062e-06
8.07289e-06
8.09554e-06
8.16282e-06
8.25094e-06
8.36689e-06
8.41149e-06
8.24738e-06
7.95864e-06
7.7877e-06
7.77067e-06
7.90647e-06
7.31813e-06
7.35268e-06
7.34823e-06
7.38687e-06
7.4648e-06
7.56479e-06
7.58827e-06
7.45735e-06
7.23913e-06
7.13881e-06
7.14715e-06
7.23123e-06
6.8318e-06
6.84753e-06
6.80955e-06
6.81248e-06
6.8859e-06
6.97725e-06
6.97259e-06
6.86115e-06
6.70707e-06
6.68559e-06
6.73014e-06
6.76723e-06
6.54122e-06
6.54524e-06
6.46861e-06
6.42977e-06
6.50399e-06
6.59333e-06
6.55486e-06
6.45091e-06
6.35551e-06
6.41909e-06
6.50734e-06
6.50198e-06
6.43409e-06
6.43276e-06
6.31519e-06
6.22954e-06
6.30863e-06
6.40169e-06
6.32585e-06
6.21908e-06
6.17764e-06
6.32729e-06
6.46088e-06
6.42124e-06
6.44104e-06
6.43851e-06
6.29608e-06
6.19009e-06
6.27687e-06
6.37635e-06
6.26982e-06
6.15221e-06
6.14458e-06
6.34453e-06
6.5219e-06
6.45455e-06
6.55051e-06
6.54493e-06
6.38247e-06
6.25605e-06
6.35092e-06
6.45944e-06
6.32217e-06
6.18871e-06
6.21214e-06
6.45523e-06
6.65464e-06
6.5777e-06
6.71604e-06
6.70451e-06
6.54362e-06
6.40747e-06
6.5043e-06
6.61637e-06
6.46122e-06
6.3149e-06
6.36007e-06
6.61754e-06
6.80088e-06
6.73057e-06
6.87695e-06
6.85729e-06
6.7212e-06
6.60122e-06
6.68869e-06
6.79013e-06
6.64166e-06
6.49659e-06
6.54582e-06
6.77555e-06
6.92856e-06
6.86711e-06
7.01253e-06
6.9898e-06
6.8781e-06
6.78286e-06
6.8554e-06
6.94131e-06
6.80762e-06
6.67692e-06
6.71756e-06
6.9137e-06
7.04159e-06
6.98584e-06
7.12983e-06
7.10879e-06
7.01811e-06
6.94188e-06
7.00073e-06
7.07305e-06
6.95041e-06
6.83156e-06
6.86579e-06
7.03755e-06
7.14427e-06
7.09233e-06
7.234e-06
7.21829e-06
7.14668e-06
7.08495e-06
7.13067e-06
7.19089e-06
7.07709e-06
6.96707e-06
6.99725e-06
7.15052e-06
7.23868e-06
7.18958e-06
7.32772e-06
7.32005e-06
7.26651e-06
7.21606e-06
7.24865e-06
7.29782e-06
7.19186e-06
7.08882e-06
7.11608e-06
7.25407e-06
7.32546e-06
7.27887e-06
7.41216e-06
7.41436e-06
7.37839e-06
7.33693e-06
7.35621e-06
7.39507e-06
7.29668e-06
7.19964e-06
7.22435e-06
7.34851e-06
7.40447e-06
7.36041e-06
7.4876e-06
7.50079e-06
7.4821e-06
7.44793e-06
7.45375e-06
7.48289e-06
7.39217e-06
7.30078e-06
7.32282e-06
7.43362e-06
7.47532e-06
7.43398e-06
7.554e-06
7.57871e-06
7.57691e-06
7.54876e-06
7.54113e-06
7.5611e-06
7.47828e-06
7.39254e-06
7.41159e-06
7.50906e-06
7.53765e-06
7.49925e-06
7.6113e-06
7.64752e-06
7.66208e-06
7.63889e-06
7.61809e-06
7.62946e-06
7.55473e-06
7.47484e-06
7.49054e-06
7.57463e-06
7.59128e-06
7.55603e-06
7.65952e-06
7.70689e-06
7.73702e-06
7.71787e-06
7.68446e-06
7.68787e-06
7.62131e-06
7.54752e-06
7.55958e-06
7.63037e-06
7.63627e-06
7.60432e-06
7.69888e-06
7.75671e-06
7.80139e-06
7.78549e-06
7.74027e-06
7.73643e-06
7.678e-06
7.61054e-06
7.61878e-06
7.67655e-06
7.67292e-06
7.6443e-06
7.72976e-06
7.79713e-06
7.85514e-06
7.84175e-06
7.78575e-06
7.77543e-06
7.72499e-06
7.66401e-06
7.66838e-06
7.71364e-06
7.70169e-06
7.67639e-06
7.75271e-06
7.82853e-06
7.89848e-06
7.88695e-06
7.82137e-06
7.80539e-06
7.76264e-06
7.70822e-06
7.7088e-06
7.74231e-06
7.72323e-06
7.70112e-06
7.76839e-06
7.85148e-06
7.93186e-06
7.92159e-06
7.84777e-06
7.82697e-06
7.79153e-06
7.74364e-06
7.74062e-06
7.76334e-06
7.7383e-06
7.7192e-06
7.7776e-06
7.86672e-06
7.95593e-06
7.9464e-06
7.86577e-06
7.84101e-06
7.81237e-06
7.77085e-06
7.76458e-06
7.77764e-06
7.74778e-06
7.73143e-06
7.78123e-06
7.87511e-06
7.97153e-06
7.96229e-06
7.87633e-06
7.84846e-06
7.826e-06
7.7906e-06
7.78149e-06
7.78623e-06
7.75267e-06
7.73871e-06
7.78025e-06
7.87767e-06
7.97967e-06
7.97033e-06
7.88057e-06
7.85039e-06
7.83341e-06
7.80375e-06
7.79232e-06
7.79018e-06
7.75403e-06
7.74207e-06
7.77574e-06
7.8755e-06
7.98148e-06
7.97175e-06
7.87971e-06
7.84797e-06
7.83566e-06
7.81126e-06
7.7981e-06
7.79067e-06
7.753e-06
7.74258e-06
7.76881e-06
7.86979e-06
7.97824e-06
7.9679e-06
7.87504e-06
7.84247e-06
7.83396e-06
7.81422e-06
7.8e-06
7.7889e-06
7.75074e-06
7.74137e-06
7.76063e-06
7.86179e-06
7.97127e-06
7.96019e-06
7.86795e-06
7.83518e-06
7.82955e-06
7.81383e-06
7.79921e-06
7.78612e-06
7.74845e-06
7.73961e-06
7.75238e-06
7.85276e-06
7.96196e-06
7.95009e-06
7.85982e-06
7.82743e-06
7.82378e-06
7.81134e-06
7.79702e-06
7.78356e-06
7.7473e-06
7.73847e-06
7.74526e-06
7.84394e-06
7.95167e-06
7.93906e-06
7.85203e-06
7.82055e-06
7.818e-06
7.80809e-06
7.79474e-06
7.78242e-06
7.74839e-06
7.73905e-06
7.74039e-06
7.83651e-06
7.94173e-06
7.92851e-06
7.84586e-06
7.81579e-06
7.81354e-06
7.80546e-06
7.79366e-06
7.78383e-06
7.75271e-06
7.74238e-06
7.73886e-06
7.83158e-06
7.93334e-06
7.91972e-06
7.84253e-06
7.81432e-06
7.81172e-06
7.80479e-06
7.79504e-06
7.78879e-06
7.7611e-06
7.74936e-06
7.74164e-06
7.83009e-06
7.92757e-06
7.91386e-06
7.84306e-06
7.81715e-06
7.81374e-06
7.8074e-06
7.80006e-06
7.79815e-06
7.7742e-06
7.7607e-06
7.7496e-06
7.83284e-06
7.92532e-06
7.91188e-06
7.84833e-06
7.82513e-06
7.82068e-06
7.81451e-06
7.80975e-06
7.81252e-06
7.79236e-06
7.77688e-06
7.76342e-06
7.84044e-06
7.9273e-06
7.91455e-06
7.85897e-06
7.83891e-06
7.83342e-06
7.82718e-06
7.82496e-06
7.83225e-06
7.81567e-06
7.7981e-06
7.78361e-06
7.85331e-06
7.93398e-06
7.92237e-06
7.87539e-06
7.85885e-06
7.85263e-06
7.84628e-06
7.8463e-06
7.85736e-06
7.84381e-06
7.82427e-06
2.89577e-07
2.81121e-07
2.81224e-07
2.78934e-07
2.7752e-07
2.79062e-07
2.82878e-07
2.88146e-07
2.94771e-07
2.97784e-07
2.91571e-07
2.83931e-07
5.44883e-08
5.30781e-08
5.28764e-08
5.22818e-08
5.18609e-08
5.18915e-08
5.23709e-08
5.34102e-08
5.49153e-08
5.58144e-08
5.49921e-08
5.3515e-08
8.02e-08
7.91346e-08
7.7679e-08
7.59193e-08
7.44365e-08
7.30779e-08
7.24926e-08
7.42685e-08
7.78645e-08
8.09786e-08
8.16614e-08
7.92517e-08
2.38807e-07
2.36466e-07
2.31369e-07
2.25484e-07
2.20411e-07
2.15373e-07
2.12702e-07
2.18118e-07
2.29738e-07
2.40271e-07
2.43724e-07
2.36368e-07
5.86462e-07
5.81443e-07
5.68695e-07
5.53888e-07
5.41057e-07
5.28256e-07
5.21225e-07
5.34438e-07
5.63176e-07
5.8958e-07
5.98936e-07
5.80813e-07
1.19683e-06
1.18799e-06
1.16188e-06
1.13122e-06
1.10466e-06
1.07816e-06
1.06324e-06
1.08982e-06
1.1482e-06
1.20251e-06
1.22287e-06
1.18601e-06
2.13842e-06
2.12557e-06
2.07876e-06
2.02324e-06
1.97544e-06
1.92766e-06
1.89993e-06
1.9464e-06
2.04966e-06
2.14707e-06
2.18584e-06
2.12071e-06
3.45887e-06
3.44374e-06
3.3676e-06
3.27666e-06
3.19934e-06
3.12161e-06
3.07478e-06
3.14763e-06
3.31195e-06
3.46964e-06
3.53668e-06
3.43353e-06
5.16998e-06
5.1571e-06
5.04232e-06
4.90474e-06
4.79025e-06
4.674e-06
4.60068e-06
4.70486e-06
4.94466e-06
5.1797e-06
5.28713e-06
5.13817e-06
7.23808e-06
7.23513e-06
7.07268e-06
6.87776e-06
6.72062e-06
6.55896e-06
6.45123e-06
6.58852e-06
6.91341e-06
7.24022e-06
7.40187e-06
7.20359e-06
9.58405e-06
9.60153e-06
9.38381e-06
9.12249e-06
8.92067e-06
8.71002e-06
8.56035e-06
8.72798e-06
9.14009e-06
9.56818e-06
9.79856e-06
9.55358e-06
1.20932e-05
1.21434e-05
1.18655e-05
1.15312e-05
1.12867e-05
1.1028e-05
1.08303e-05
1.10204e-05
1.15129e-05
1.20453e-05
1.23584e-05
1.2076e-05
1.46312e-05
1.4727e-05
1.43876e-05
1.39767e-05
1.36952e-05
1.33944e-05
1.31452e-05
1.33451e-05
1.39023e-05
1.45348e-05
1.49425e-05
1.46382e-05
1.70997e-05
1.72542e-05
1.68541e-05
1.63624e-05
1.60497e-05
1.57146e-05
1.54114e-05
1.56078e-05
1.62137e-05
1.69429e-05
1.74557e-05
1.71412e-05
1.94436e-05
1.96703e-05
1.92119e-05
1.86362e-05
1.82987e-05
1.794e-05
1.75818e-05
1.77595e-05
1.83951e-05
1.92149e-05
1.98416e-05
1.95299e-05
2.16179e-05
2.19298e-05
2.14171e-05
2.07549e-05
2.03999e-05
2.00306e-05
1.96178e-05
1.97605e-05
2.04047e-05
2.13074e-05
2.20544e-05
2.1758e-05
2.35888e-05
2.39984e-05
2.34363e-05
2.26861e-05
2.23215e-05
2.19561e-05
2.14909e-05
2.15818e-05
2.22127e-05
2.31885e-05
2.40596e-05
2.37903e-05
2.53333e-05
2.5852e-05
2.52459e-05
2.44068e-05
2.40413e-05
2.3696e-05
2.31815e-05
2.32039e-05
2.37996e-05
2.48376e-05
2.58334e-05
2.56015e-05
2.68378e-05
2.74757e-05
2.68304e-05
2.59031e-05
2.5546e-05
2.52379e-05
2.46782e-05
2.4616e-05
2.51555e-05
2.62436e-05
2.73615e-05
2.71758e-05
2.80965e-05
2.8862e-05
2.81817e-05
2.7168e-05
2.68294e-05
2.65761e-05
2.59761e-05
2.5814e-05
2.62779e-05
2.74029e-05
2.86372e-05
2.85052e-05
2.91101e-05
3.00094e-05
2.92971e-05
2.82007e-05
2.7891e-05
2.77103e-05
2.70755e-05
2.67994e-05
2.71699e-05
2.83183e-05
2.966e-05
2.95881e-05
2.98834e-05
3.092e-05
3.01778e-05
2.90047e-05
2.87345e-05
2.86436e-05
2.79801e-05
2.75777e-05
2.78391e-05
2.89966e-05
3.04334e-05
3.04272e-05
3.04243e-05
3.15976e-05
3.08275e-05
2.95857e-05
2.93655e-05
2.93804e-05
2.86951e-05
2.81564e-05
2.82953e-05
2.94471e-05
3.09633e-05
3.10274e-05
3.07402e-05
3.20456e-05
3.12492e-05
2.99499e-05
2.97898e-05
2.9924e-05
2.9225e-05
2.85431e-05
2.85487e-05
2.96786e-05
3.12554e-05
3.13935e-05
3.08369e-05
3.22638e-05
3.14442e-05
3.01017e-05
3.00109e-05
3.02742e-05
2.9571e-05
2.87437e-05
2.8608e-05
2.96984e-05
3.13133e-05
3.15283e-05
3.07165e-05
3.22488e-05
3.14102e-05
3.00426e-05
3.00286e-05
3.04263e-05
2.97298e-05
2.87606e-05
2.84793e-05
2.9511e-05
3.11374e-05
3.14311e-05
3.03774e-05
3.1992e-05
3.11412e-05
2.9771e-05
2.98389e-05
3.03706e-05
2.96934e-05
2.85924e-05
2.81655e-05
2.91179e-05
3.07254e-05
3.10978e-05
2.98121e-05
3.14734e-05
3.06252e-05
2.92815e-05
2.94327e-05
3.00896e-05
2.94474e-05
2.82334e-05
2.76667e-05
2.85177e-05
3.00691e-05
3.05154e-05
2.89985e-05
3.06517e-05
2.98346e-05
2.85586e-05
2.87867e-05
2.95455e-05
2.89606e-05
2.76694e-05
2.6977e-05
2.77019e-05
2.91471e-05
2.96527e-05
2.7913e-05
2.94959e-05
2.87436e-05
2.75816e-05
2.78712e-05
2.86956e-05
2.81934e-05
2.6877e-05
2.60837e-05
2.66574e-05
2.7943e-05
2.84845e-05
2.65682e-05
2.80295e-05
2.73674e-05
2.63546e-05
2.66865e-05
2.75381e-05
2.71365e-05
2.5848e-05
2.49852e-05
2.53918e-05
2.64772e-05
2.70321e-05
2.50202e-05
2.63284e-05
2.57679e-05
2.49233e-05
2.52824e-05
2.61311e-05
2.58376e-05
2.46154e-05
2.37098e-05
2.39432e-05
2.48086e-05
2.53636e-05
2.32956e-05
2.443e-05
2.39768e-05
2.33071e-05
2.36755e-05
2.44917e-05
2.43041e-05
2.31815e-05
2.22648e-05
2.23329e-05
2.29748e-05
2.35147e-05
2.14482e-05
2.23997e-05
2.20535e-05
2.15546e-05
2.19147e-05
2.26731e-05
2.25851e-05
2.15876e-05
2.06887e-05
2.06082e-05
2.10367e-05
2.1547e-05
1.95414e-05
2.03113e-05
2.00667e-05
1.97251e-05
2.00613e-05
2.07427e-05
2.07435e-05
1.98875e-05
1.90311e-05
1.88253e-05
1.9062e-05
1.95307e-05
1.76384e-05
1.82374e-05
1.80839e-05
1.78794e-05
1.81794e-05
1.87717e-05
1.8847e-05
1.8139e-05
1.73446e-05
1.70417e-05
1.71162e-05
1.75345e-05
1.57967e-05
1.62428e-05
1.61662e-05
1.60737e-05
1.63296e-05
1.68283e-05
1.69611e-05
1.63981e-05
1.56796e-05
1.53099e-05
1.52574e-05
1.56198e-05
1.40644e-05
1.43798e-05
1.43635e-05
1.43563e-05
1.45651e-05
1.49721e-05
1.51441e-05
1.47153e-05
1.40811e-05
1.36751e-05
1.35323e-05
1.38368e-05
1.24782e-05
1.26865e-05
1.27133e-05
1.27654e-05
1.29287e-05
1.32512e-05
1.34444e-05
1.3133e-05
1.25865e-05
1.21728e-05
1.1975e-05
1.22221e-05
1.1063e-05
1.11873e-05
1.12402e-05
1.13286e-05
1.14519e-05
1.17006e-05
1.18979e-05
1.16838e-05
1.12241e-05
1.08284e-05
1.06072e-05
1.07995e-05
9.83331e-06
9.89409e-06
9.95771e-06
1.00633e-05
1.01548e-05
1.03423e-05
1.05285e-05
1.03905e-05
1.0014e-05
9.65786e-06
9.44005e-06
9.58113e-06
8.79478e-06
8.80913e-06
8.87003e-06
8.97833e-06
9.04816e-06
9.1871e-06
9.34932e-06
9.26685e-06
8.96816e-06
8.66944e-06
8.47628e-06
8.5699e-06
7.94708e-06
7.92835e-06
7.97504e-06
8.07582e-06
8.13484e-06
8.23706e-06
8.36451e-06
8.31935e-06
8.09222e-06
7.86557e-06
7.71339e-06
7.76288e-06
7.28632e-06
7.24431e-06
7.26694e-06
7.35372e-06
7.41289e-06
7.4888e-06
7.57239e-06
7.54901e-06
7.3874e-06
7.24515e-06
7.14632e-06
7.154e-06
6.80763e-06
6.74897e-06
6.73868e-06
6.80793e-06
6.87802e-06
6.93641e-06
6.968e-06
6.95381e-06
6.85246e-06
6.80564e-06
6.76986e-06
6.73655e-06
6.5071e-06
6.43569e-06
6.38393e-06
6.43437e-06
6.52599e-06
6.57401e-06
6.54557e-06
6.53074e-06
6.4855e-06
6.54452e-06
6.57989e-06
6.50465e-06
6.38062e-06
6.29823e-06
6.19775e-06
6.23002e-06
6.3538e-06
6.39655e-06
6.30007e-06
6.27736e-06
6.28513e-06
6.45598e-06
6.55219e-06
6.44504e-06
6.36213e-06
6.27576e-06
6.15688e-06
6.18069e-06
6.33164e-06
6.36976e-06
6.22194e-06
6.18832e-06
6.23745e-06
6.47138e-06
6.6315e-06
6.49161e-06
6.44751e-06
6.35656e-06
6.21544e-06
6.22932e-06
6.41415e-06
6.4459e-06
6.24141e-06
6.19406e-06
6.28771e-06
6.58458e-06
6.78033e-06
6.62623e-06
6.6099e-06
6.51573e-06
6.36346e-06
6.37016e-06
6.57904e-06
6.60532e-06
6.35663e-06
6.29761e-06
6.42666e-06
6.75024e-06
6.93143e-06
6.79416e-06
6.78686e-06
6.69081e-06
6.55659e-06
6.56596e-06
6.76569e-06
6.78728e-06
6.53588e-06
6.47132e-06
6.61129e-06
6.90352e-06
7.05366e-06
6.93886e-06
6.93727e-06
6.84513e-06
6.73814e-06
6.75501e-06
6.92254e-06
6.94076e-06
6.716e-06
6.65645e-06
6.78127e-06
7.03058e-06
7.15621e-06
7.05891e-06
7.06621e-06
6.98403e-06
6.89839e-06
6.91678e-06
7.05309e-06
7.06956e-06
6.86862e-06
6.81369e-06
6.92299e-06
7.14048e-06
7.24638e-06
7.16321e-06
7.18064e-06
7.11299e-06
7.04481e-06
7.05998e-06
7.16657e-06
7.1825e-06
7.00205e-06
6.94895e-06
7.04579e-06
7.23862e-06
7.32784e-06
7.25672e-06
7.28418e-06
7.23436e-06
7.18148e-06
7.19025e-06
7.26809e-06
7.28441e-06
7.1226e-06
7.06952e-06
7.15552e-06
7.32756e-06
7.402e-06
7.34166e-06
7.37826e-06
7.34846e-06
7.30989e-06
7.31021e-06
7.35998e-06
7.37733e-06
7.23343e-06
7.17939e-06
7.25514e-06
7.40817e-06
7.46904e-06
7.41861e-06
7.46309e-06
7.45454e-06
7.42999e-06
7.42064e-06
7.44301e-06
7.46177e-06
7.33563e-06
7.28035e-06
7.34587e-06
7.48058e-06
7.5287e-06
7.48741e-06
7.53836e-06
7.55148e-06
7.54097e-06
7.52138e-06
7.51725e-06
7.53749e-06
7.42916e-06
7.37292e-06
7.42807e-06
7.54465e-06
7.58067e-06
7.54772e-06
7.60376e-06
7.63823e-06
7.64185e-06
7.61198e-06
7.58257e-06
7.6041e-06
7.51355e-06
7.45705e-06
7.50175e-06
7.60032e-06
7.62482e-06
7.5993e-06
7.65911e-06
7.71406e-06
7.7318e-06
7.69202e-06
7.63887e-06
7.6613e-06
7.58832e-06
7.53254e-06
7.56688e-06
7.6477e-06
7.66121e-06
7.64213e-06
7.70452e-06
7.77862e-06
7.81024e-06
7.76127e-06
7.68626e-06
7.70905e-06
7.65314e-06
7.59921e-06
7.62353e-06
7.68706e-06
7.6901e-06
7.67644e-06
7.74032e-06
7.8319e-06
7.87697e-06
7.81971e-06
7.72496e-06
7.74751e-06
7.70795e-06
7.65705e-06
7.67192e-06
7.71883e-06
7.71193e-06
7.70266e-06
7.76706e-06
7.87421e-06
7.93205e-06
7.86758e-06
7.7554e-06
7.77709e-06
7.75292e-06
7.70618e-06
7.71239e-06
7.74355e-06
7.72729e-06
7.7214e-06
7.78549e-06
7.90613e-06
7.97583e-06
7.9053e-06
7.7781e-06
7.79833e-06
7.78843e-06
7.7469e-06
7.74538e-06
7.76188e-06
7.73687e-06
7.73337e-06
7.79646e-06
7.92841e-06
8.00888e-06
7.93346e-06
7.79373e-06
7.81196e-06
7.81503e-06
7.77962e-06
7.77145e-06
7.77456e-06
7.74145e-06
7.73943e-06
7.80095e-06
7.94199e-06
8.03197e-06
7.95283e-06
7.80303e-06
7.81881e-06
7.83344e-06
7.80486e-06
7.79123e-06
7.7824e-06
7.74194e-06
7.74053e-06
7.80003e-06
7.94796e-06
8.04603e-06
7.96427e-06
7.80689e-06
7.81982e-06
7.84449e-06
7.82325e-06
7.80547e-06
7.7863e-06
7.73932e-06
7.73771e-06
7.79482e-06
7.94749e-06
8.05215e-06
7.96882e-06
7.80626e-06
7.81605e-06
7.84914e-06
7.83554e-06
7.81495e-06
7.78722e-06
7.73463e-06
7.73206e-06
7.78652e-06
7.94185e-06
8.05153e-06
7.96761e-06
7.80217e-06
7.80861e-06
7.84846e-06
7.84257e-06
7.82059e-06
7.78621e-06
7.72899e-06
7.72476e-06
7.77634e-06
7.93238e-06
8.04548e-06
7.96185e-06
7.79573e-06
7.7987e-06
7.84361e-06
7.84531e-06
7.82337e-06
7.78434e-06
7.72354e-06
7.717e-06
7.76549e-06
7.92043e-06
8.03537e-06
7.95283e-06
7.7881e-06
7.78758e-06
7.83586e-06
7.84481e-06
7.82433e-06
7.78273e-06
7.71944e-06
7.70998e-06
7.75514e-06
7.90732e-06
8.0226e-06
7.94186e-06
7.78043e-06
7.7765e-06
7.82652e-06
7.84223e-06
7.8246e-06
7.78249e-06
7.71782e-06
7.70488e-06
7.74641e-06
7.89435e-06
8.00856e-06
7.93026e-06
7.77388e-06
7.76673e-06
7.81698e-06
7.83882e-06
7.82535e-06
7.78473e-06
7.71971e-06
7.70279e-06
7.74034e-06
7.88269e-06
7.99457e-06
7.9193e-06
7.76957e-06
7.7595e-06
7.80864e-06
7.8359e-06
7.82776e-06
7.79046e-06
7.72605e-06
7.7047e-06
7.73782e-06
7.8734e-06
7.98187e-06
7.91019e-06
7.76851e-06
7.75599e-06
7.8029e-06
7.83481e-06
7.83301e-06
7.80057e-06
7.7376e-06
7.71143e-06
7.73961e-06
7.86737e-06
7.97156e-06
7.90399e-06
7.77166e-06
7.75726e-06
7.80113e-06
7.83692e-06
7.84221e-06
7.81583e-06
7.75491e-06
7.72363e-06
7.74632e-06
7.86531e-06
7.96458e-06
7.90166e-06
7.77981e-06
7.76429e-06
7.80462e-06
7.84357e-06
7.85641e-06
7.83677e-06
7.77825e-06
7.74168e-06
7.7584e-06
7.86777e-06
7.96171e-06
7.90399e-06
7.79363e-06
7.77788e-06
7.81456e-06
7.85601e-06
7.87651e-06
7.8637e-06
7.8076e-06
7.7657e-06
7.77611e-06
7.87508e-06
7.96352e-06
7.91159e-06
7.81359e-06
7.79867e-06
7.83198e-06
7.87541e-06
7.90322e-06
7.89664e-06
7.84261e-06
7.79549e-06
2.93129e-07
2.85147e-07
2.85073e-07
2.82251e-07
2.8061e-07
2.8187e-07
2.85244e-07
2.90388e-07
2.9711e-07
3.00805e-07
2.95654e-07
2.88204e-07
5.52191e-08
5.3992e-08
5.37928e-08
5.3086e-08
5.26677e-08
5.2731e-08
5.31243e-08
5.40557e-08
5.54973e-08
5.64924e-08
5.58579e-08
5.43845e-08
8.15867e-08
8.12929e-08
8.00273e-08
7.80378e-08
7.68049e-08
7.59556e-08
7.52276e-08
7.63896e-08
7.94553e-08
8.25397e-08
8.34349e-08
8.08602e-08
2.43112e-07
2.43412e-07
2.38984e-07
2.32367e-07
2.28227e-07
2.25046e-07
2.21937e-07
2.25196e-07
2.34939e-07
2.45273e-07
2.4931e-07
2.41341e-07
5.9701e-07
5.98587e-07
5.87446e-07
5.70807e-07
5.60404e-07
5.52367e-07
5.44253e-07
5.51995e-07
5.76018e-07
6.01917e-07
6.12672e-07
5.92982e-07
1.21817e-06
1.2228e-06
1.19977e-06
1.16532e-06
1.14395e-06
1.12749e-06
1.11035e-06
1.12554e-06
1.17426e-06
1.22756e-06
1.25072e-06
1.2106e-06
2.17613e-06
2.18723e-06
2.14545e-06
2.08308e-06
2.04501e-06
2.01575e-06
1.98407e-06
2.00982e-06
2.0958e-06
2.19151e-06
2.23511e-06
2.16403e-06
3.51911e-06
3.54231e-06
3.47339e-06
3.37128e-06
3.31056e-06
3.26383e-06
3.21069e-06
3.24946e-06
3.38587e-06
3.54094e-06
3.61537e-06
3.50242e-06
5.25888e-06
5.30227e-06
5.19675e-06
5.04242e-06
4.95411e-06
4.88589e-06
4.80336e-06
4.85589e-06
5.05428e-06
5.28549e-06
5.40308e-06
5.23911e-06
7.36106e-06
7.43479e-06
7.28295e-06
7.06475e-06
6.94625e-06
6.85422e-06
6.73418e-06
6.79852e-06
7.06623e-06
7.38767e-06
7.56171e-06
7.3418e-06
9.7453e-06
9.86055e-06
9.65355e-06
9.36204e-06
9.21403e-06
9.09864e-06
8.93379e-06
9.00476e-06
9.34294e-06
9.76364e-06
1.0007e-05
9.73227e-06
1.22954e-05
1.24629e-05
1.2194e-05
1.18232e-05
1.16498e-05
1.15148e-05
1.12999e-05
1.13692e-05
1.17719e-05
1.22942e-05
1.26178e-05
1.2296e-05
1.48755e-05
1.51038e-05
1.47699e-05
1.43178e-05
1.41262e-05
1.39785e-05
1.37113e-05
1.37682e-05
1.42228e-05
1.48419e-05
1.52529e-05
1.48977e-05
1.7386e-05
1.76832e-05
1.72816e-05
1.67463e-05
1.65434e-05
1.63912e-05
1.60705e-05
1.61048e-05
1.65988e-05
1.73108e-05
1.78155e-05
1.74377e-05
1.97714e-05
2.01437e-05
1.96738e-05
1.9055e-05
1.88486e-05
1.87014e-05
1.83277e-05
1.83286e-05
1.88476e-05
1.96461e-05
2.02484e-05
1.98597e-05
2.19864e-05
2.24383e-05
2.19009e-05
2.12005e-05
2.09984e-05
2.08663e-05
2.04418e-05
2.03989e-05
2.09277e-05
2.18042e-05
2.25051e-05
2.2117e-05
2.39969e-05
2.45308e-05
2.39288e-05
2.31502e-05
2.29603e-05
2.28536e-05
2.23817e-05
2.22857e-05
2.28086e-05
2.3753e-05
2.45507e-05
2.41739e-05
2.57797e-05
2.63964e-05
2.57334e-05
2.48819e-05
2.47121e-05
2.46407e-05
2.4126e-05
2.39685e-05
2.44705e-05
2.54714e-05
2.63614e-05
2.60055e-05
2.73208e-05
2.80194e-05
2.72999e-05
2.63826e-05
2.62407e-05
2.62135e-05
2.56612e-05
2.54354e-05
2.59025e-05
2.69473e-05
2.79225e-05
2.75962e-05
2.86141e-05
2.93923e-05
2.86211e-05
2.76467e-05
2.75407e-05
2.75653e-05
2.6981e-05
2.66818e-05
2.7101e-05
2.81763e-05
2.92277e-05
2.89386e-05
2.96599e-05
3.05137e-05
2.96962e-05
2.86751e-05
2.86125e-05
2.86949e-05
2.80847e-05
2.77084e-05
2.80684e-05
2.91598e-05
3.02764e-05
3.00315e-05
3.04628e-05
3.13869e-05
3.05286e-05
2.9473e-05
2.94612e-05
2.96055e-05
2.89754e-05
2.85202e-05
2.8811e-05
2.99034e-05
3.10723e-05
3.08781e-05
3.10299e-05
3.2017e-05
3.11246e-05
3.00482e-05
3.00939e-05
3.03025e-05
2.96584e-05
2.91242e-05
2.93373e-05
3.04147e-05
3.16212e-05
3.14837e-05
3.1368e-05
3.24086e-05
3.14899e-05
3.04084e-05
3.05177e-05
3.07905e-05
3.01384e-05
2.95277e-05
2.9656e-05
3.07012e-05
3.19283e-05
3.18532e-05
3.14818e-05
3.2564e-05
3.16285e-05
3.05597e-05
3.07372e-05
3.10715e-05
3.04179e-05
2.97361e-05
2.97741e-05
3.07685e-05
3.19968e-05
3.19891e-05
3.13727e-05
3.24814e-05
3.15412e-05
3.05047e-05
3.07534e-05
3.11436e-05
3.04955e-05
2.97512e-05
2.96952e-05
3.06193e-05
3.18266e-05
3.18903e-05
3.10391e-05
3.21561e-05
3.12257e-05
3.0243e-05
3.0563e-05
3.10003e-05
3.03656e-05
2.95709e-05
2.94197e-05
3.0253e-05
3.14151e-05
3.15526e-05
3.0475e-05
3.15772e-05
3.06757e-05
2.97698e-05
3.01567e-05
3.06286e-05
3.00178e-05
2.9189e-05
2.89439e-05
2.96661e-05
3.07556e-05
3.09656e-05
2.96633e-05
3.07192e-05
2.98735e-05
2.90702e-05
2.95105e-05
2.99993e-05
2.94292e-05
2.85904e-05
2.82573e-05
2.88466e-05
2.98296e-05
3.01047e-05
2.8584e-05
2.9559e-05
2.8798e-05
2.81212e-05
2.85925e-05
2.90774e-05
2.85695e-05
2.77508e-05
2.73409e-05
2.77781e-05
2.86216e-05
2.89477e-05
2.72459e-05
2.8114e-05
2.74588e-05
2.69222e-05
2.74008e-05
2.78631e-05
2.74334e-05
2.66625e-05
2.61912e-05
2.6467e-05
2.71493e-05
2.75118e-05
2.56972e-05
2.64452e-05
2.59064e-05
2.55151e-05
2.59846e-05
2.64109e-05
2.60657e-05
2.53604e-05
2.48408e-05
2.49539e-05
2.54669e-05
2.58564e-05
2.39648e-05
2.45881e-05
2.41677e-05
2.39152e-05
2.43597e-05
2.47411e-05
2.44805e-05
2.38523e-05
2.33021e-05
2.32642e-05
2.3613e-05
2.40173e-05
2.21028e-05
2.26038e-05
2.22972e-05
2.21688e-05
2.25747e-05
2.29065e-05
2.27271e-05
2.21823e-05
2.16187e-05
2.14497e-05
2.16495e-05
2.20558e-05
2.0174e-05
2.05613e-05
2.0358e-05
2.03339e-05
2.06912e-05
2.09727e-05
2.08678e-05
2.04071e-05
1.98462e-05
1.95717e-05
1.96446e-05
2.00407e-05
1.82414e-05
1.85278e-05
1.84133e-05
1.84706e-05
1.87739e-05
1.90075e-05
1.89671e-05
1.85869e-05
1.80432e-05
1.7692e-05
1.76645e-05
1.80397e-05
1.63626e-05
1.65633e-05
1.65207e-05
1.66359e-05
1.68842e-05
1.70749e-05
1.70867e-05
1.67795e-05
1.62654e-05
1.58677e-05
1.57678e-05
1.61131e-05
1.4586e-05
1.4717e-05
1.47285e-05
1.48798e-05
1.50765e-05
1.52302e-05
1.52803e-05
1.50368e-05
1.45626e-05
1.41473e-05
1.40019e-05
1.43102e-05
1.29492e-05
1.30259e-05
1.30744e-05
1.32433e-05
1.33953e-05
1.35176e-05
1.35916e-05
1.34018e-05
1.29755e-05
1.25688e-05
1.2402e-05
1.2668e-05
1.14787e-05
1.15146e-05
1.1585e-05
1.17571e-05
1.18735e-05
1.19695e-05
1.20531e-05
1.19073e-05
1.15351e-05
1.11592e-05
1.0991e-05
1.12108e-05
1.01908e-05
1.01971e-05
1.02764e-05
1.04417e-05
1.05332e-05
1.06062e-05
1.06863e-05
1.05762e-05
1.02625e-05
9.93494e-06
9.78103e-06
9.95195e-06
9.09304e-06
9.07834e-06
9.15633e-06
9.30893e-06
9.38619e-06
9.43821e-06
9.50306e-06
9.42203e-06
9.16976e-06
8.90411e-06
8.77559e-06
8.89583e-06
8.18641e-06
8.15705e-06
8.22583e-06
8.3632e-06
8.43665e-06
8.46792e-06
8.50744e-06
8.45092e-06
8.26191e-06
8.06818e-06
7.97233e-06
8.04055e-06
7.46759e-06
7.42788e-06
7.48177e-06
7.60385e-06
7.68297e-06
7.6924e-06
7.69825e-06
7.66343e-06
7.5388e-06
7.42435e-06
7.36511e-06
7.38036e-06
6.93078e-06
6.88348e-06
6.91876e-06
7.02706e-06
7.12005e-06
7.10562e-06
7.07114e-06
7.05671e-06
6.9971e-06
6.9675e-06
6.94584e-06
6.90777e-06
6.56908e-06
6.51599e-06
6.53075e-06
6.62747e-06
6.74087e-06
6.70044e-06
6.62071e-06
6.62624e-06
6.63187e-06
6.69131e-06
6.70559e-06
6.61515e-06
6.37519e-06
6.31775e-06
6.3117e-06