-0.0075 	0 	0 	0
-0.0075 	-6.02049e-35 	-2.75868e-36 	-7.42625e-33
-0.00745622 	-7.91272e-05 	-3.62573e-06 	-0.00976032
-0.00745622 	-7.91272e-05 	-3.62573e-06 	-0.00976032
-0.00741165 	-0.000168961 	-6.03558e-06 	-0.0201129
-0.00741165 	-0.000168961 	-6.03558e-06 	-0.0201129
-0.00736628 	-0.000282061 	-7.29159e-06 	-0.0306774
-0.00736628 	-0.000282061 	-7.29159e-06 	-0.0306774
-0.0073201 	-0.000401242 	-6.48472e-06 	-0.0411249
-0.0073201 	-0.000401242 	-6.48472e-06 	-0.0411249
-0.00727309 	-0.00051569 	-4.97419e-06 	-0.0514325
-0.00727309 	-0.00051569 	-4.97419e-06 	-0.0514325
-0.00722524 	-0.000623422 	-2.53239e-06 	-0.061593
-0.00722524 	-0.000623422 	-2.53239e-06 	-0.061593
-0.00717653 	-0.000723381 	7.23593e-07 	-0.0715431
-0.00717653 	-0.000723381 	7.23593e-07 	-0.0715431
-0.00712695 	-0.000815039 	4.8042e-06 	-0.081213
-0.00712695 	-0.000815039 	4.8042e-06 	-0.081213
-0.00707647 	-0.000898243 	9.8448e-06 	-0.0905365
-0.00707647 	-0.000898243 	9.8448e-06 	-0.0905365
-0.0070251 	-0.000973161 	1.58259e-05 	-0.0994581
-0.0070251 	-0.000973161 	1.58259e-05 	-0.0994581
-0.0069728 	-0.00104021 	2.27584e-05 	-0.107941
-0.0069728 	-0.00104021 	2.27584e-05 	-0.107941
-0.00691956 	-0.00110006 	3.07188e-05 	-0.115976
-0.00691956 	-0.00110006 	3.07188e-05 	-0.115976
-0.00686537 	-0.00115365 	3.97658e-05 	-0.123587
-0.00686537 	-0.00115365 	3.97658e-05 	-0.123587
-0.00681021 	-0.00120197 	4.99324e-05 	-0.130805
-0.00681021 	-0.00120197 	4.99324e-05 	-0.130805
-0.00675406 	-0.00124587 	6.10503e-05 	-0.13766
-0.00675406 	-0.00124587 	6.10503e-05 	-0.13766
-0.0066969 	-0.00128581 	7.30212e-05 	-0.144176
-0.0066969 	-0.00128581 	7.30212e-05 	-0.144176
-0.00663871 	-0.00132198 	8.60082e-05 	-0.150377
-0.00663871 	-0.00132198 	8.60082e-05 	-0.150377
-0.00657949 	-0.00135454 	0.000100061 	-0.156282
-0.00657949 	-0.00135454 	0.000100061 	-0.156282
-0.0065192 	-0.0013837 	0.000115066 	-0.161907
-0.0065192 	-0.0013837 	0.000115066 	-0.161907
-0.00645783 	-0.00140969 	0.000130955 	-0.167272
-0.00645783 	-0.00140969 	0.000130955 	-0.167272
-0.00639535 	-0.00143269 	0.000147697 	-0.172394
-0.00639535 	-0.00143269 	0.000147697 	-0.172394
-0.00633176 	-0.00145291 	0.000165258 	-0.177288
-0.00633176 	-0.00145291 	0.000165258 	-0.177288
-0.00626703 	-0.00147061 	0.000183608 	-0.181965
-0.00626703 	-0.00147061 	0.000183608 	-0.181965
-0.00620114 	-0.00148615 	0.000202764 	-0.186433
-0.00620114 	-0.00148615 	0.000202764 	-0.186433
-0.00613406 	-0.00149999 	0.000222545 	-0.190691
-0.00613406 	-0.00149999 	0.000222545 	-0.190691
-0.00606579 	-0.00151247 	0.000242753 	-0.194741
-0.00606579 	-0.00151247 	0.000242753 	-0.194741
-0.00599629 	-0.00152355 	0.00026351 	-0.19859
-0.00599629 	-0.00152355 	0.00026351 	-0.19859
-0.00592554 	-0.00153271 	0.000284482 	-0.202254
-0.00592554 	-0.00153271 	0.000284482 	-0.202254
-0.00585352 	-0.00153895 	0.000305468 	-0.205754
-0.00585352 	-0.00153895 	0.000305468 	-0.205754
-0.00578022 	-0.00154127 	0.000327003 	-0.20912
-0.00578022 	-0.00154127 	0.000327003 	-0.20912
-0.00570559 	-0.00153911 	0.000349346 	-0.212418
-0.00570559 	-0.00153911 	0.000349346 	-0.212418
-0.00562963 	-0.00153274 	0.000372314 	-0.215729
-0.00562963 	-0.00153274 	0.000372314 	-0.215729
-0.00555231 	-0.00152358 	0.000395841 	-0.219072
-0.00555231 	-0.00152358 	0.000395841 	-0.219072
-0.0054736 	-0.00151403 	0.000418872 	-0.222336
-0.0054736 	-0.00151403 	0.000418872 	-0.222336
-0.00539348 	-0.00150614 	0.000440111 	-0.225352
-0.00539348 	-0.00150614 	0.000440111 	-0.225352
-0.00531193 	-0.00149981 	0.000460786 	-0.228069
-0.00531193 	-0.00149981 	0.000460786 	-0.228069
-0.00522891 	-0.00149311 	0.000482299 	-0.230572
-0.00522891 	-0.00149311 	0.000482299 	-0.230572
-0.0051444 	-0.0014847 	0.000505357 	-0.232956
-0.0051444 	-0.0014847 	0.000505357 	-0.232956
-0.00505838 	-0.00147461 	0.000528983 	-0.235262
-0.00505838 	-0.00147461 	0.000528983 	-0.235262
-0.00497081 	-0.00146284 	0.000551295 	-0.237499
-0.00497081 	-0.00146284 	0.000551295 	-0.237499
-0.00488168 	-0.00144916 	0.000571465 	-0.239667
-0.00488168 	-0.00144916 	0.000571465 	-0.239667
-0.00479094 	-0.00143312 	0.000589859 	-0.241775
-0.00479094 	-0.00143312 	0.000589859 	-0.241775
-0.00469858 	-0.00141371 	0.000611192 	-0.243842
-0.00469858 	-0.00141371 	0.000611192 	-0.243842
-0.00460456 	-0.00139024 	0.00063761 	-0.245892
-0.00460456 	-0.00139024 	0.00063761 	-0.245892
-0.00450886 	-0.00136372 	0.000664677 	-0.247916
-0.00450886 	-0.00136372 	0.000664677 	-0.247916
-0.00441144 	-0.00133642 	0.000685956 	-0.24984
-0.00441144 	-0.00133642 	0.000685956 	-0.24984
-0.00431227 	-0.00130886 	0.000701538 	-0.251621
-0.00431227 	-0.00130886 	0.000701538 	-0.251621
-0.00421133 	-0.00127921 	0.000719401 	-0.253299
-0.00421133 	-0.00127921 	0.000719401 	-0.253299
-0.00410857 	-0.00124637 	0.000743737 	-0.254927
-0.00410857 	-0.00124637 	0.000743737 	-0.254927
-0.00400397 	-0.00121076 	0.000769572 	-0.256515
-0.00400397 	-0.00121076 	0.000769572 	-0.256515
-0.0038975 	-0.00117281 	0.000789842 	-0.258064
-0.0038975 	-0.00117281 	0.000789842 	-0.258064
-0.00378912 	-0.00113179 	0.000806761 	-0.259613
-0.00378912 	-0.00113179 	0.000806761 	-0.259613
-0.00367879 	-0.00108599 	0.000828127 	-0.261238
-0.00367879 	-0.00108599 	0.000828127 	-0.261238
-0.00356649 	-0.00103464 	0.000857754 	-0.263022
-0.00356649 	-0.00103464 	0.000857754 	-0.263022
-0.00345217 	-0.000982199 	0.000887209 	-0.264889
-0.00345217 	-0.000982199 	0.000887209 	-0.264889
-0.0033358 	-0.000937641 	0.000900373 	-0.266548
-0.0033358 	-0.000937641 	0.000900373 	-0.266548
-0.00321735 	-0.000900387 	0.000899091 	-0.267877
-0.00321735 	-0.000900387 	0.000899091 	-0.267877
-0.00309677 	-0.000852301 	0.000898181 	-0.269217
-0.00309677 	-0.000852301 	0.000898181 	-0.269217
-0.00297403 	-0.000772313 	0.000916408 	-0.271039
-0.00297403 	-0.000772313 	0.000916408 	-0.271039
-0.00284909 	-0.000676709 	0.000948881 	-0.273104
-0.00284909 	-0.000676709 	0.000948881 	-0.273104
-0.0027219 	-0.000596512 	0.000967057 	-0.274876
-0.0027219 	-0.000596512 	0.000967057 	-0.274876
-0.00259244 	-0.000526577 	0.000971861 	-0.27649
-0.00259244 	-0.000526577 	0.000971861 	-0.27649
-0.00246065 	-0.000444833 	0.000977084 	-0.278446
-0.00246065 	-0.000444833 	0.000977084 	-0.278446
-0.00232651 	-0.000346361 	0.000987361 	-0.28086
-0.00232651 	-0.000346361 	0.000987361 	-0.28086
-0.00218995 	-0.000244658 	0.000998852 	-0.283281
-0.00218995 	-0.000244658 	0.000998852 	-0.283281
-0.00205095 	-0.000153312 	0.000998227 	-0.285211
-0.00205095 	-0.000153312 	0.000998227 	-0.285211
-0.00190946 	-7.37329e-05 	0.000984936 	-0.286582
-0.00190946 	-7.37329e-05 	0.000984936 	-0.286582
-0.00176543 	3.85874e-06 	0.000972543 	-0.287699
-0.00176543 	3.85874e-06 	0.000972543 	-0.287699
-0.00161881 	8.67431e-05 	0.000964555 	-0.288781
-0.00161881 	8.67431e-05 	0.000964555 	-0.288781
-0.00146957 	0.000176073 	0.000954289 	-0.289841
-0.00146957 	0.000176073 	0.000954289 	-0.289841
-0.00131765 	0.000271078 	0.000939793 	-0.290835
-0.00131765 	0.000271078 	0.000939793 	-0.290835
-0.001163 	0.000371654 	0.000922487 	-0.291732
-0.001163 	0.000371654 	0.000922487 	-0.291732
-0.00100559 	0.000478007 	0.000902669 	-0.292513
-0.00100559 	0.000478007 	0.000902669 	-0.292513
-0.000845345 	0.000590229 	0.000883623 	-0.293158
-0.000845345 	0.000590229 	0.000883623 	-0.293158
-0.000682232 	0.000708307 	0.000863241 	-0.293648
-0.000682232 	0.000708307 	0.000863241 	-0.293648
-0.000516194 	0.000831979 	0.000838233 	-0.293963
-0.000516194 	0.000831979 	0.000838233 	-0.293963
-0.000347178 	0.00096071 	0.000813553 	-0.294087
-0.000347178 	0.00096071 	0.000813553 	-0.294087
-0.000175132 	0.00109436 	0.000780438 	-0.294018
-0.000175132 	0.00109436 	0.000780438 	-0.294018
0 	0.00123306 	0.000744692 	-0.293775
0 	0.00123306 	0.000744692 	-0.293775
0 	0.00123306 	0.000744692 	-0.293775
0 	0.00123306 	0.000744692 	-0.293775
0.000175132 	0.0013747 	0.000716665 	-0.293375
0.000175132 	-0.00253205 	0.00247109 	-0.312259
0.000347178 	0.00151477 	0.000687802 	-0.292825
0.000347178 	-0.00193449 	0.00238543 	-0.312446
0.000516194 	0.00165003 	0.000666573 	-0.29212
0.000516194 	-0.00135015 	0.00231324 	-0.312516
0.000682232 	0.00177928 	0.000651751 	-0.291266
0.000682232 	-0.000779767 	0.00225012 	-0.31245
0.000845345 	0.00190127 	0.000636031 	-0.290282
0.000845345 	-0.00022311 	0.00218792 	-0.31227
0.00100559 	0.00201394 	0.000622839 	-0.289189
0.00100559 	0.000320113 	0.00212898 	-0.311995
0.001163 	0.0021154 	0.000611904 	-0.288006
0.001163 	0.00085002 	0.00207365 	-0.311636
0.00131765 	0.00220474 	0.000603376 	-0.286749
0.00131765 	0.00136644 	0.00202183 	-0.311202
0.00146957 	0.00228231 	0.000596152 	-0.285426
0.00146957 	0.00186889 	0.00197312 	-0.310699
0.00161881 	0.00234994 	0.000590185 	-0.284058
0.00161881 	0.00235667 	0.00192616 	-0.310133
0.00176543 	0.00240652 	0.000592497 	-0.282616
0.00176543 	0.00282901 	0.00188019 	-0.309508
0.00190946 	0.00244226 	0.000601955 	-0.280933
0.00190946 	0.00328565 	0.00184618 	-0.308834
0.00205095 	0.00245275 	0.000595717 	-0.27879
0.00205095 	0.00372764 	0.00181136 	-0.308154
0.00218995 	0.00245379 	0.000567986 	-0.276173
0.00218995 	0.00415726 	0.00172847 	-0.307335
0.00232651 	0.00247626 	0.000561469 	-0.273735
0.00232651 	0.00457068 	0.00165554 	-0.305725
0.00246065 	0.0025241 	0.000590211 	-0.271821
0.00246065 	0.00497694 	0.00170624 	-0.302553
0.00259244 	0.00257475 	0.000616898 	-0.270004
0.00259244 	0.00540727 	0.00181622 	-0.298176
0.0027219 	0.00261461 	0.000610001 	-0.268272
0.0027219 	0.0058411 	0.00177158 	-0.294959
0.00284909 	0.00263852 	0.000586062 	-0.266759
0.00284909 	0.00621664 	0.00160398 	-0.293968
0.00297403 	0.00264983 	0.000585594 	-0.265303
0.00297403 	0.00652308 	0.00151693 	-0.293582
0.00309677 	0.00265136 	0.000606788 	-0.263784
0.00309677 	0.0067874 	0.00154172 	-0.292665
0.00321735 	0.00264111 	0.00061575 	-0.262226
0.00321735 	0.00702335 	0.0015566 	-0.291372
0.0033358 	0.00262098 	0.000587136 	-0.260575
0.0033358 	0.00722551 	0.00147173 	-0.289991
0.00345217 	0.00260605 	0.000554764 	-0.258574
0.00345217 	0.00738305 	0.0014172 	-0.288092
0.00356649 	0.00261334 	0.000572771 	-0.256011
0.00356649 	0.00750252 	0.00150176 	-0.284737
0.00367879 	0.00263599 	0.000625899 	-0.253113
0.00367879 	0.00761692 	0.00164873 	-0.279525
0.00378912 	0.00775272 	0.00165956 	-0.274701
0.00378912 	0.00265374 	0.000650333 	-0.250492
0.0038975 	0.00265633 	0.000628607 	-0.248418
0.0038975 	0.00789676 	0.00150959 	-0.272334
0.00400397 	0.00264506 	0.000603114 	-0.24661
0.00400397 	0.00802048 	0.00140665 	-0.271347
0.00410857 	0.00262735 	0.000601082 	-0.244784
0.00410857 	0.00811538 	0.00141636 	-0.270206
0.00421133 	0.00260831 	0.000609519 	-0.24287
0.00421133 	0.00818736 	0.00146117 	-0.268496
0.00431227 	0.00258935 	0.000611929 	-0.2409
0.00431227 	0.00824212 	0.00147539 	-0.266479
0.00441144 	0.00257059 	0.000609764 	-0.2389
0.00441144 	0.00828165 	0.00146784 	-0.264407
0.00450886 	0.00255183 	0.000605249 	-0.236871
0.00450886 	0.0083065 	0.00144745 	-0.262342
0.00460456 	0.00253266 	0.000595954 	-0.234799
0.00460456 	0.00831591 	0.00139829 	-0.26021
0.00469858 	0.00251243 	0.000588785 	-0.232647
0.00469858 	0.0083056 	0.00137083 	-0.25776
0.00479094 	0.00249047 	0.000587973 	-0.230355
0.00479094 	0.00827009 	0.00139516 	-0.254625
0.00488168 	0.00246704 	0.00058987 	-0.227907
0.00488168 	0.00821057 	0.00144604 	-0.250731
0.00497081 	0.0024441 	0.000585224 	-0.225407
0.00497081 	0.00814232 	0.00145859 	-0.246844
0.00505838 	0.00242351 	0.000566656 	-0.222981
0.00505838 	0.00808084 	0.00138455 	-0.243807
0.0051444 	0.00240462 	0.000544201 	-0.22062
0.0051444 	0.00802428 	0.00129341 	-0.241538
0.00522891 	0.00238572 	0.000527965 	-0.218243
0.00522891 	0.00796176 	0.00124747 	-0.239473
0.00531193 	0.00788662 	0.00123064 	-0.237256
0.00531193 	0.00236594 	0.000516078 	-0.215796
0.00539348 	0.00234533 	0.0005038 	-0.213262
0.00539348 	0.00779831 	0.00121318 	-0.23484
0.0054736 	0.00232419 	0.0004888 	-0.210641
0.0054736 	0.00769885 	0.0011801 	-0.232314
0.00555231 	0.00230259 	0.000471768 	-0.207932
0.00555231 	0.00758978 	0.00113569 	-0.229748
0.00562963 	0.00228037 	0.000453706 	-0.205127
0.00562963 	0.00747154 	0.00108842 	-0.227157
0.00570559 	0.00225723 	0.000434807 	-0.202214
0.00570559 	0.00734396 	0.00104095 	-0.224527
0.00578022 	0.00223282 	0.000415275 	-0.199182
0.00578022 	0.00720667 	0.000992465 	-0.221834
0.00585352 	0.00220677 	0.00039534 	-0.196014
0.00585352 	0.00705939 	0.000942056 	-0.219064
0.00592554 	0.0021785 	0.000374917 	-0.192693
0.00592554 	0.00690182 	0.000889317 	-0.216203
0.00599629 	0.00214728 	0.000353772 	-0.189202
0.00599629 	0.00673364 	0.000834809 	-0.213235
0.00606579 	0.00655443 	0.000779048 	-0.210145
0.00606579 	0.00211248 	0.000331783 	-0.185518
0.00613406 	0.0020738 	0.000309257 	-0.181619
0.00613406 	0.00636371 	0.000722161 	-0.20691
0.00620114 	0.00203116 	0.000286619 	-0.177481
0.00620114 	0.00616093 	0.000664431 	-0.203497
0.00626703 	0.00198455 	0.000264026 	-0.173078
0.00626703 	0.00594549 	0.000606266 	-0.199864
0.00633176 	0.00193392 	0.000241577 	-0.168382
0.00633176 	0.00571677 	0.00054813 	-0.195959
0.00639535 	0.00187919 	0.000219463 	-0.163363
0.00639535 	0.00547411 	0.000490508 	-0.191725
0.00645783 	0.00182012 	0.000197873 	-0.157992
0.00645783 	0.00521692 	0.000433957 	-0.1871
0.0065192 	0.00175628 	0.00017698 	-0.152242
0.0065192 	0.00494495 	0.000378962 	-0.182022
0.00657949 	0.00168696 	0.000156881 	-0.146093
0.00657949 	0.00465853 	0.000325967 	-0.176426
0.00663871 	0.00161129 	0.00013757 	-0.139527
0.00663871 	0.00435878 	0.000275475 	-0.170252
0.0066969 	0.00152865 	0.000119119 	-0.132525
0.0066969 	0.00404763 	0.000227809 	-0.16345
0.00675406 	0.00143899 	0.00010166 	-0.125065
0.00675406 	0.00372763 	0.00018333 	-0.155976
0.00681021 	0.00134273 	8.54004e-05 	-0.11713
0.00681021 	0.00340192 	0.000142471 	-0.147779
0.00686537 	0.00124086 	7.04383e-05 	-0.108734
0.00686537 	0.00307456 	0.000105461 	-0.138818
0.00691956 	0.00113489 	5.67677e-05 	-0.0999303
0.00691956 	0.0027507 	7.26599e-05 	-0.129098
0.0069728 	0.00102678 	4.45494e-05 	-0.0908152
0.0069728 	0.00243631 	4.43529e-05 	-0.118692
0.0070251 	0.000918896 	3.3911e-05 	-0.0815203
0.0070251 	0.00213739 	2.05965e-05 	-0.107747
0.00707647 	0.000813688 	2.49175e-05 	-0.0722002
0.00707647 	0.00185888 	1.48909e-06 	-0.0964785
0.00712695 	0.000713079 	1.76179e-05 	-0.0630059
0.00712695 	0.00160356 	-1.29973e-05 	-0.0851235
0.00717653 	0.00061776 	1.19852e-05 	-0.0540581
0.00717653 	0.0013712 	-2.29599e-05 	-0.0738891
0.00722524 	0.000526598 	7.97268e-06 	-0.04543
0.00722524 	0.00115818 	-2.80658e-05 	-0.0628961
0.00727309 	0.000436136 	5.42143e-06 	-0.0371456
0.00727309 	0.000957312 	-2.88711e-05 	-0.0521495
0.0073201 	0.000339887 	3.89794e-06 	-0.029189
0.0073201 	0.000757315 	-2.84253e-05 	-0.0415261
0.00736628 	0.000226899 	3.65089e-06 	-0.0214942
0.00736628 	0.000541119 	-1.47903e-05 	-0.030738
0.00741165 	0.000104932 	2.50465e-06 	-0.0140091
0.00741165 	0.000311444 	-1.24973e-05 	-0.0197157
0.00745622 	1.85116e-05 	1.21737e-06 	-0.00681793
0.00745622 	0.000116363 	-7.54237e-06 	-0.00916882
0.0075 	0 	0 	0
0.0075 	0 	0 	0
