/*--------------------------------*- C++ -*----------------------------------*\
| =========                 |                                                 |
| \\      /  F ield         | OpenFOAM: The Open Source CFD Toolbox           |
|  \\    /   O peration     | Version:  v1912                                 |
|   \\  /    A nd           | Website:  www.openfoam.com                      |
|    \\/     M anipulation  |                                                 |
\*---------------------------------------------------------------------------*/
FoamFile
{
    version     2.0;
    format      ascii;
    class       volVectorField;
    location    "100";
    object      U;
}
// * * * * * * * * * * * * * * * * * * * * * * * * * * * * * * * * * * * * * //

dimensions      [0 1 -1 0 0 0 0];


internalField   nonuniform List<vector> 
10077
(
(-0.00291222 -0.000563755 0.309043)
(-0.00293215 -0.000594328 0.308969)
(-0.00300606 -0.000581539 0.308517)
(-0.00313525 -0.000527124 0.307681)
(-0.00380679 -0.00130181 0.282659)
(-0.00392059 -0.00123168 0.281679)
(-0.00395446 -0.00118208 0.280701)
(-0.00390973 -0.00115107 0.279686)
(-0.00253391 0.00162406 0.271647)
(-0.00243905 0.0016485 0.271244)
(-0.00233723 0.00168332 0.271189)
(-0.00222444 0.0017299 0.271481)
(-0.00033056 0.000780383 0.280226)
(-0.000265189 0.00081135 0.280739)
(-0.000203367 0.000809911 0.281135)
(-0.000141408 0.000773996 0.281431)
(-0.00275676 -0.000484831 0.308738)
(-0.00278314 -0.000515701 0.308653)
(-0.00287179 -0.000504408 0.308181)
(-0.00302441 -0.000452706 0.307317)
(-0.00423335 -0.00140685 0.280913)
(-0.00436248 -0.00133807 0.279905)
(-0.00440208 -0.00129021 0.278897)
(-0.00435371 -0.00126138 0.277849)
(-0.00261606 0.00163747 0.270188)
(-0.00250467 0.00166161 0.269793)
(-0.00238882 0.00169612 0.269765)
(-0.00226393 0.00174236 0.270101)
(-0.000173976 0.00075358 0.280092)
(-0.000103054 0.00078371 0.280656)
(-3.79418e-05 0.000781563 0.281087)
(2.51188e-05 0.000745033 0.281406)
(-0.00259331 -0.000413506 0.308286)
(-0.00262535 -0.000444569 0.30819)
(-0.002727 -0.000434935 0.307701)
(-0.0029003 -0.000386375 0.306813)
(-0.00454598 -0.00138872 0.279424)
(-0.00468917 -0.00132278 0.278387)
(-0.00473388 -0.00127678 0.277351)
(-0.00468188 -0.00124891 0.276275)
(-0.00267196 0.00164836 0.268568)
(-0.00254611 0.0016724 0.268179)
(-0.002418 0.00170674 0.268172)
(-0.00228258 0.00175272 0.268546)
(-1.91662e-05 0.000761871 0.279771)
(5.66394e-05 0.000791232 0.280382)
(0.00012457 0.000789109 0.280848)
(0.000188437 0.000753448 0.281188)
(-0.00242027 -0.000341921 0.307718)
(-0.00245707 -0.000373144 0.307613)
(-0.00256993 -0.000365172 0.30711)
(-0.00276121 -0.000319786 0.306203)
(-0.00475924 -0.00134698 0.278098)
(-0.00491523 -0.00128425 0.277034)
(-0.00496485 -0.00124018 0.275972)
(-0.00491005 -0.00121302 0.274867)
(-0.00270898 0.00164921 0.266825)
(-0.002571 0.00167336 0.266438)
(-0.00243253 0.00170747 0.266447)
(-0.00228812 0.00175287 0.266853)
(0.000129164 0.000753765 0.27929)
(0.000209471 0.000782305 0.279944)
(0.000279958 0.00077997 0.280442)
(0.000344479 0.000744727 0.280806)
(-0.0022352 -0.000271638 0.307053)
(-0.00227587 -0.000303013 0.306939)
(-0.00239832 -0.000296711 0.306425)
(-0.00260513 -0.000254525 0.305503)
(-0.00490259 -0.00133583 0.276825)
(-0.00507005 -0.00127597 0.275736)
(-0.00512454 -0.00123375 0.274647)
(-0.00506819 -0.0012075 0.273515)
(-0.00273619 0.00161167 0.264945)
(-0.00258835 0.00163632 0.264555)
(-0.00244135 0.00167018 0.264577)
(-0.00228939 0.00171456 0.265012)
(0.00027334 0.000740086 0.278648)
(0.000357893 0.000767638 0.279343)
(0.000430853 0.000764913 0.279872)
(0.00049612 0.000729891 0.280258)
(-0.00203491 -0.000202486 0.306299)
(-0.00207873 -0.000233968 0.306177)
(-0.00220932 -0.000229276 0.305654)
(-0.00242947 -0.000190212 0.30472)
(-0.00499365 -0.00133782 0.275524)
(-0.00517124 -0.00128063 0.27441)
(-0.00523051 -0.0012402 0.273292)
(-0.00517383 -0.00121495 0.272126)
(-0.0027453 0.00154323 0.262858)
(-0.00258977 0.0015683 0.26246)
(-0.00243597 0.00160182 0.262492)
(-0.00227783 0.0016451 0.262955)
(0.000412777 0.000726367 0.277834)
(0.000501151 0.000752813 0.278572)
(0.000576375 0.000749652 0.279134)
(0.000642399 0.000714876 0.279544)
(-0.00181683 -0.000134734 0.305461)
(-0.00186319 -0.000166288 0.305333)
(-0.00200067 -0.000163145 0.304801)
(-0.00223221 -0.000127115 0.303859)
(-0.00503655 -0.00133479 0.274173)
(-0.00522291 -0.00128037 0.273033)
(-0.00528675 -0.00124189 0.271883)
(-0.00523059 -0.00121783 0.270677)
(-0.00270971 0.00150779 0.260339)
(-0.00254859 0.00153276 0.259928)
(-0.00238962 0.00156588 0.259967)
(-0.00222652 0.00160844 0.260459)
(0.00054964 0.000709671 0.27685)
(0.000641088 0.000735224 0.277636)
(0.00071817 0.000731785 0.278235)
(0.000784875 0.000697368 0.278671)
(-0.00158027 -6.89469e-05 0.304542)
(-0.00162867 -0.000100547 0.304408)
(-0.00177195 -9.89024e-05 0.303871)
(-0.00201318 -6.58301e-05 0.302922)
(-0.00503502 -0.00133013 0.272789)
(-0.00522894 -0.00127861 0.271623)
(-0.00529709 -0.00124231 0.270438)
(-0.00524215 -0.00121981 0.269189)
(-0.00264016 0.00155886 0.257639)
(-0.00247523 0.00158275 0.25721)
(-0.00231259 0.00161543 0.257255)
(-0.00214582 0.00165818 0.257773)
(0.000684682 0.000689864 0.275738)
(0.00077836 0.000714907 0.276573)
(0.000856841 0.000711471 0.277209)
(0.000924155 0.000677601 0.277673)
(-0.00132616 -5.27288e-06 0.303544)
(-0.00137617 -3.69005e-05 0.303404)
(-0.0015243 -3.67041e-05 0.302862)
(-0.00177372 -6.50401e-06 0.30191)
(-0.00499454 -0.00132407 0.271395)
(-0.00519508 -0.00127559 0.270206)
(-0.0052675 -0.00124164 0.26899)
(-0.00521465 -0.00122087 0.2677)
(-0.00258446 0.00157036 0.255175)
(-0.00241705 0.00159329 0.254727)
(-0.00225212 0.00162551 0.254774)
(-0.00208315 0.00166829 0.255319)
(0.000814719 0.000668133 0.274549)
(0.000910077 0.000692958 0.27543)
(0.000989698 0.00068974 0.276101)
(0.00105765 0.000656562 0.276591)
(-0.00105639 5.61137e-05 0.302468)
(-0.00110764 2.4464e-05 0.302322)
(-0.00125979 2.32517e-05 0.301778)
(-0.00151607 5.06527e-05 0.300824)
(-0.00492035 -0.00132323 0.270007)
(-0.00512684 -0.00127766 0.268799)
(-0.00520375 -0.00124613 0.267556)
(-0.00515411 -0.00122741 0.266229)
(-0.00255288 0.00150763 0.252957)
(-0.00238434 0.00153013 0.252488)
(-0.00221838 0.0015619 0.252537)
(-0.00204843 0.00160419 0.253105)
(0.000934633 0.000645052 0.273313)
(0.00103148 0.000669867 0.274232)
(0.0011122 0.000667016 0.274934)
(0.0011809 0.000634627 0.275448)
(-0.000773899 0.000115395 0.301313)
(-0.000826062 8.37577e-05 0.301164)
(-0.000981464 8.12284e-05 0.300617)
(-0.00124341 0.000105981 0.299665)
(-0.00481526 -0.00132878 0.268612)
(-0.00502723 -0.00128584 0.267389)
(-0.00510895 -0.00125673 0.266124)
(-0.00506364 -0.00124028 0.264766)
(-0.00253864 0.00144222 0.25091)
(-0.00237039 0.00146417 0.250422)
(-0.00220454 0.00149543 0.25047)
(-0.00203455 0.00153724 0.251057)
(0.00104066 0.000621645 0.272035)
(0.00113897 0.000646507 0.272986)
(0.00122082 0.000644066 0.273714)
(0.00129037 0.000612501 0.27425)
(-0.000483026 0.000172379 0.300082)
(-0.000535763 0.000140795 0.299929)
(-0.000693739 0.000137048 0.299382)
(-0.000960301 0.000159313 0.298432)
(-0.00468055 -0.00131925 0.26718)
(-0.00489767 -0.00127917 0.265947)
(-0.00498447 -0.0012524 0.264664)
(-0.00494439 -0.0012379 0.263278)
(-0.00253062 0.00140001 0.248955)
(-0.00236406 0.00142109 0.248447)
(-0.00219935 0.00145179 0.248493)
(-0.00203001 0.00149333 0.249095)
(0.00113155 0.000598206 0.270711)
(0.0012313 0.000623121 0.271688)
(0.00131431 0.000621099 0.272438)
(0.00138477 0.000590366 0.272994)
(-0.000188635 0.000226817 0.298774)
(-0.000241603 0.000195327 0.298618)
(-0.000401521 0.000190459 0.298072)
(-0.000671752 0.000210389 0.297128)
(-0.00452017 -0.00129198 0.265675)
(-0.0047421 -0.00125503 0.264437)
(-0.00483417 -0.00123057 0.263139)
(-0.0048 -0.00121762 0.261728)
(-0.00252536 0.00136152 0.247043)
(-0.00236172 0.00138163 0.246517)
(-0.00219905 0.00141173 0.24656)
(-0.00203094 0.001453 0.247173)
(0.00120768 0.0005746 0.269337)
(0.00130878 0.000599593 0.270335)
(0.0013929 0.000598009 0.271104)
(0.00146433 0.000568124 0.271678)
(0.000105231 0.000278961 0.297387)
(5.23597e-05 0.000247633 0.297228)
(-0.00010889 0.000241783 0.296685)
(-0.000381879 0.000259597 0.295747)
(-0.00434185 -0.00126202 0.26411)
(-0.00456808 -0.00122799 0.262871)
(-0.00466546 -0.00120577 0.261561)
(-0.00463782 -0.00119447 0.260126)
(-0.00252263 0.00131904 0.245157)
(-0.00236295 0.00133812 0.244614)
(-0.00220312 0.00136752 0.244652)
(-0.00203683 0.00140842 0.245274)
(0.00127012 0.000551021 0.267907)
(0.00137239 0.000576096 0.268922)
(0.00145754 0.000574955 0.269707)
(0.00152993 0.000545924 0.270298)
(0.000395565 0.000329826 0.295918)
(0.00034307 0.00029878 0.295757)
(0.000181092 0.000292198 0.295216)
(-9.37079e-05 0.000308281 0.294285)
(-0.00415765 -0.00126092 0.262612)
(-0.00438739 -0.00122878 0.261371)
(-0.00449 -0.00120871 0.260051)
(-0.00446953 -0.00119994 0.258599)
(-0.00252212 0.00127811 0.24328)
(-0.0023673 0.00129589 0.242722)
(-0.00221104 0.0013244 0.242755)
(-0.00204717 0.00136478 0.243383)
(0.00132006 0.000527594 0.266418)
(0.00142323 0.000552742 0.267447)
(0.00150929 0.00055204 0.268246)
(0.00158262 0.000523863 0.268852)
(0.000679087 0.000377827 0.294369)
(0.000627166 0.000347072 0.294206)
(0.000465018 0.000339814 0.293668)
(0.000189335 0.000354268 0.292745)
(-0.0039652 -0.00125591 0.261137)
(-0.00419771 -0.00122555 0.259893)
(-0.00430535 -0.00120757 0.258565)
(-0.00429238 -0.00120126 0.2571)
(-0.00252409 0.00123741 0.241407)
(-0.00237481 0.0012539 0.240834)
(-0.00222273 0.00128151 0.240863)
(-0.00206187 0.00132136 0.241494)
(0.00135851 0.00050487 0.264869)
(0.00146229 0.000530087 0.265908)
(0.00154908 0.000529825 0.266719)
(0.00162331 0.000502512 0.267339)
(0.000951889 0.000422239 0.292745)
(0.000900712 0.00039177 0.29258)
(0.000738932 0.000383849 0.292046)
(0.000463283 0.000396706 0.291131)
(-0.00376221 -0.00123492 0.259618)
(-0.00399687 -0.00120668 0.258375)
(-0.00410925 -0.00119069 0.257041)
(-0.00410379 -0.00118633 0.255565)
(-0.00252873 0.00119627 0.239536)
(-0.00238551 0.00121157 0.23895)
(-0.00223815 0.00123835 0.238972)
(-0.00208086 0.00127769 0.239605)
(0.00138605 0.000482663 0.263259)
(0.00149009 0.000507935 0.264305)
(0.00157741 0.000508105 0.265126)
(0.0016525 0.000481651 0.265759)
(0.00121004 0.000463194 0.291051)
(0.00115979 0.000433027 0.290885)
(0.000998912 0.000424512 0.290354)
(0.000724186 0.000435894 0.289449)
(-0.00355136 -0.00120551 0.258047)
(-0.00378752 -0.00117949 0.256805)
(-0.00390425 -0.00116541 0.255468)
(-0.00390616 -0.00116269 0.253982)
(-0.00253649 0.00115764 0.237665)
(-0.00239976 0.00117172 0.237066)
(-0.00225761 0.00119768 0.237082)
(-0.00210444 0.00123654 0.237715)
(0.00140292 0.000462291 0.261576)
(0.00150683 0.00048759 0.262627)
(0.00159446 0.000488202 0.263455)
(0.00167035 0.000462659 0.264099)
(0.00145074 0.000497485 0.289297)
(0.00140167 0.000467771 0.28913)
(0.00124221 0.000458825 0.288604)
(0.00096921 0.000468917 0.287709)
(-0.00333634 -0.00117974 0.256438)
(-0.00357333 -0.00115568 0.255199)
(-0.00369401 -0.00114336 0.25386)
(-0.00370314 -0.00114231 0.252367)
(-0.00254957 0.00112104 0.235781)
(-0.00241961 0.00113382 0.235169)
(-0.0022831 0.00115889 0.235177)
(-0.00213464 0.00119722 0.235807)
(0.00140962 0.000438197 0.259795)
(0.00151301 0.000463464 0.260847)
(0.00160073 0.000464419 0.26168)
(0.00167738 0.000439636 0.262334)
(0.00167312 0.000535062 0.287481)
(0.00162551 0.000505612 0.287314)
(0.00146793 0.000496184 0.286793)
(0.00119733 0.000505066 0.285909)
(-0.00311899 -0.00115811 0.254802)
(-0.00335626 -0.0011357 0.253567)
(-0.00348054 -0.00112501 0.252227)
(-0.00349673 -0.00112565 0.250728)
(-0.00257017 0.00107917 0.23386)
(-0.00244715 0.00109087 0.233236)
(-0.00231661 0.00111503 0.233234)
(-0.00217341 0.00115258 0.233855)
(0.00140592 0.000393399 0.25789)
(0.00150843 0.000418493 0.258938)
(0.00159603 0.000419327 0.259773)
(0.00167336 0.000394472 0.260436)
(0.00188389 0.000598532 0.285568)
(0.00183776 0.000568403 0.2854)
(0.00168235 0.000558026 0.284886)
(0.0014147 0.000565645 0.284015)
(-0.00289979 -0.00113254 0.253128)
(-0.00313696 -0.0011118 0.251899)
(-0.00326459 -0.00110268 0.25056)
(-0.00328772 -0.00110484 0.249057)
(-0.00259661 0.00103428 0.231884)
(-0.00248062 0.0010451 0.231246)
(-0.00235631 0.00106834 0.231231)
(-0.00221877 0.00110492 0.231839)
(0.00138834 0.000355177 0.255853)
(0.00148967 0.000380003 0.25689)
(0.00157688 0.00038074 0.257724)
(0.00165462 0.000355962 0.258395)
(0.00209855 0.000661063 0.283491)
(0.00205316 0.000630329 0.283323)
(0.00189988 0.000619024 0.282817)
(0.0016358 0.000625357 0.281964)
(-0.00268111 -0.0011045 0.251381)
(-0.00291771 -0.00108546 0.250163)
(-0.00304834 -0.00107789 0.248828)
(-0.00307815 -0.00108148 0.247324)
(-0.00262196 0.000998681 0.229866)
(-0.00251318 0.00100852 0.229213)
(-0.00239528 0.00103087 0.229181)
(-0.00226361 0.00106662 0.229769)
(0.00135779 0.000379575 0.253658)
(0.00145766 0.000404237 0.25468)
(0.00154419 0.00040601 0.25551)
(0.00162206 0.000383608 0.256189)
(0.00230984 0.000662128 0.281165)
(0.00226424 0.000632911 0.280995)
(0.00211316 0.000621819 0.280503)
(0.00185368 0.00062715 0.279676)
(-0.00246853 -0.00107483 0.249521)
(-0.00270347 -0.00105739 0.248322)
(-0.00283626 -0.00105124 0.246998)
(-0.00287212 -0.00105614 0.245496)
(-0.0026388 0.000973896 0.227822)
(-0.00253741 0.000982594 0.227149)
(-0.00242604 0.0010041 0.227097)
(-0.00230031 0.00103925 0.227665)
(0.00133179 0.000420304 0.251212)
(0.00142988 0.000444773 0.252216)
(0.00151572 0.00044784 0.253039)
(0.00159401 0.00042839 0.253721)
(0.00245628 0.000599596 0.278493)
(0.00241124 0.000573958 0.278326)
(0.00226353 0.00056426 0.277852)
(0.00201028 0.000569006 0.277061)
(-0.0022671 -0.00104512 0.247538)
(-0.00249866 -0.00102906 0.246369)
(-0.00263221 -0.00102415 0.245062)
(-0.00267302 -0.00103019 0.243564)
(-0.00264739 0.000946466 0.225724)
(-0.00255335 0.000954094 0.22503)
(-0.00244859 0.000974671 0.224956)
(-0.00232898 0.00100901 0.225501)
(0.00132983 0.000366903 0.248485)
(0.00142574 0.000390824 0.249469)
(0.00151113 0.000393289 0.250281)
(0.00159076 0.000373143 0.250961)
(0.00246432 0.000597298 0.275453)
(0.00242323 0.000572945 0.275297)
(0.00228139 0.00056352 0.274848)
(0.00203617 0.000567603 0.274095)
(-0.00207712 -0.0010089 0.245478)
(-0.0023035 -0.000994067 0.244342)
(-0.00243635 -0.000990207 0.243054)
(-0.00248091 -0.000997167 0.241563)
(-0.00265092 0.00091329 0.22357)
(-0.00256403 0.000920036 0.222853)
(-0.00246595 0.00093967 0.222758)
(-0.00235279 0.000972965 0.223282)
(0.00131848 0.000291054 0.245739)
(0.00141164 0.000314301 0.246705)
(0.00149612 0.000315697 0.247507)
(0.00157671 0.000293996 0.248185)
(0.0023901 0.000697809 0.272345)
(0.00235495 0.000671037 0.272208)
(0.0022204 0.000659975 0.271784)
(0.00198416 0.000663062 0.271064)
(-0.00189214 -0.000988194 0.243418)
(-0.00211255 -0.00097429 0.242309)
(-0.00224395 -0.000971342 0.241035)
(-0.00229151 -0.000979234 0.239547)
(-0.00265136 0.000880066 0.221384)
(-0.0025714 0.000886014 0.220647)
(-0.00248004 0.000904742 0.220533)
(-0.00237367 0.00093699 0.221037)
(0.00127523 0.000264457 0.24312)
(0.00136509 0.000287154 0.244071)
(0.00144782 0.000288427 0.244866)
(0.0015282 0.000267047 0.245548)
(0.00235713 0.00074833 0.269542)
(0.00232632 0.000720937 0.269422)
(0.00219813 0.000709125 0.269017)
(0.00197053 0.000711293 0.268319)
(-0.00170504 -0.00099374 0.241405)
(-0.00191997 -0.000980458 0.240312)
(-0.00205011 -0.000978343 0.239045)
(-0.0021006 -0.00098731 0.237555)
(-0.00264909 0.000849791 0.219187)
(-0.0025759 0.000854962 0.218432)
(-0.00249128 0.000872822 0.218301)
(-0.00239189 0.000904072 0.21879)
(0.00120392 0.000277852 0.240636)
(0.00129007 0.000300087 0.241574)
(0.00137041 0.00030198 0.242366)
(0.00144964 0.00028241 0.243053)
(0.00238058 0.000758951 0.267124)
(0.00235276 0.000732039 0.267012)
(0.00222968 0.000720197 0.266617)
(0.0020095 0.000721853 0.265933)
(-0.00151277 -0.000981484 0.239435)
(-0.00172316 -0.000969015 0.238348)
(-0.00185255 -0.00096771 0.237082)
(-0.00190606 -0.000977517 0.235587)
(-0.00264217 0.000818555 0.216965)
(-0.00257556 0.000823032 0.216193)
(-0.00249765 0.000840046 0.216049)
(-0.00240536 0.000870268 0.216527)
(0.00111732 0.000267579 0.238232)
(0.00119946 0.000289221 0.239161)
(0.00127703 0.000291207 0.239952)
(0.00135467 0.00027246 0.240645)
(0.00244794 0.000752605 0.264962)
(0.00242223 0.000726638 0.26485)
(0.00230322 0.000715127 0.26446)
(0.00208919 0.000716553 0.263786)
(-0.00131396 -0.000918431 0.237454)
(-0.00152053 -0.000907188 0.23637)
(-0.00164945 -0.000906619 0.235102)
(-0.00170582 -0.000916703 0.233598)
(-0.00262588 0.00080139 0.214673)
(-0.00256558 0.000805088 0.213884)
(-0.00249431 0.000821244 0.213728)
(-0.00240928 0.000850497 0.214199)
(0.00102204 0.000243255 0.235853)
(0.00109977 0.000264203 0.236778)
(0.00117425 0.000265936 0.23757)
(0.00124997 0.000247391 0.23827)
(0.00252885 0.000759595 0.262865)
(0.002505 0.000734215 0.262751)
(0.00238956 0.000722805 0.262365)
(0.00218095 0.000723883 0.2617)
(-0.00111482 -0.000821173 0.235359)
(-0.0013178 -0.000811282 0.234274)
(-0.00144609 -0.000811333 0.232998)
(-0.00150474 -0.000821327 0.23148)
(-0.00260366 0.000799908 0.212258)
(-0.00254911 0.000802735 0.211451)
(-0.00248439 0.00081803 0.211285)
(-0.00240694 0.000846398 0.211753)
(0.000923154 0.000229598 0.233455)
(0.000995832 0.000249819 0.234383)
(0.00106672 0.000251437 0.23518)
(0.0011402 0.000233417 0.235888)
(0.00260904 0.000776558 0.260722)
(0.00258692 0.000751406 0.260606)
(0.00247485 0.000739823 0.260223)
(0.00227132 0.000740337 0.259567)
(-0.000931032 -0.000786755 0.233036)
(-0.0011302 -0.000777584 0.23195)
(-0.00125735 -0.000778173 0.230661)
(-0.00131748 -0.000788547 0.229121)
(-0.00258417 0.000782509 0.209686)
(-0.00253451 0.00078478 0.208857)
(-0.00247621 0.000799308 0.208682)
(-0.00240696 0.000826667 0.209153)
(0.000824623 0.000216888 0.230997)
(0.000891324 0.00023634 0.231937)
(0.000957965 0.000237805 0.232745)
(0.00102875 0.000220276 0.233464)
(0.00269203 0.00077645 0.258499)
(0.00267126 0.000752048 0.258381)
(0.00256228 0.000740497 0.258003)
(0.00236366 0.000740369 0.257356)
(-0.000762189 -0.000824172 0.230548)
(-0.000957174 -0.000815211 0.229459)
(-0.00108249 -0.000816294 0.228155)
(-0.00114308 -0.000827466 0.226584)
(-0.00256158 0.000733765 0.206929)
(-0.00251589 0.000735954 0.206075)
(-0.00246386 0.000749834 0.205891)
(-0.00240343 0.000775952 0.20637)
(0.000729234 0.000203887 0.228458)
(0.000788912 0.000222581 0.229417)
(0.000850554 0.000223872 0.230241)
(0.000918174 0.000206777 0.230973)
(0.00277438 0.000778371 0.256203)
(0.00275471 0.000754493 0.256084)
(0.00264862 0.00074292 0.255711)
(0.00245476 0.000742256 0.255074)
(-0.000592011 -0.00083204 0.228025)
(-0.000782519 -0.000823599 0.226933)
(-0.000905288 -0.000825084 0.22561)
(-0.000965162 -0.000836554 0.224004)
(-0.00250517 0.000661169 0.203952)
(-0.00246287 0.000663565 0.20307)
(-0.00241695 0.000676841 0.202878)
(-0.00236559 0.000701521 0.203367)
(0.000638912 0.00019188 0.225836)
(0.000690636 0.00020983 0.226821)
(0.00074663 0.000210946 0.227664)
(0.000810693 0.00019427 0.228412)
(0.00285341 0.000782164 0.253858)
(0.00283471 0.000758657 0.253738)
(0.00273137 0.000747087 0.253369)
(0.00254211 0.00074608 0.252744)
(-0.000417641 -0.000789422 0.225502)
(-0.000603506 -0.000781886 0.224406)
(-0.000723207 -0.000783695 0.223063)
(-0.000781464 -0.000794921 0.22142)
(-0.00237016 0.000634488 0.200769)
(-0.0023313 0.000636622 0.19986)
(-0.00229129 0.000649274 0.199658)
(-0.00224855 0.000672943 0.200157)
(0.000554673 0.00018235 0.223149)
(0.000597857 0.000199572 0.224161)
(0.000647818 0.000200547 0.225025)
(0.000708128 0.000184345 0.225788)
(0.00293032 0.000783584 0.251485)
(0.00291246 0.000760535 0.251364)
(0.00281171 0.00074907 0.251)
(0.00262686 0.000747839 0.250386)
(-0.000247586 -0.000738691 0.223033)
(-0.000428809 -0.000731802 0.221932)
(-0.000545294 -0.000733908 0.22057)
(-0.000601635 -0.000745092 0.218893)
(-0.00217908 0.000662492 0.197527)
(-0.00214383 0.000663791 0.196591)
(-0.00210952 0.000675798 0.196381)
(-0.00207479 0.000698985 0.196888)
(0.000476229 0.000171241 0.220421)
(0.000510797 0.000187839 0.221458)
(0.000554718 0.000188661 0.222341)
(0.000611338 0.000172796 0.223119)
(0.0030074 0.000783275 0.249098)
(0.00299023 0.000760711 0.248976)
(0.00289189 0.00074939 0.248616)
(0.00271121 0.00074799 0.248011)
(-8.82215e-05 -0.000719063 0.220623)
(-0.000265031 -0.000712343 0.219516)
(-0.000378529 -0.00071475 0.218137)
(-0.000433194 -0.00072638 0.216432)
(-0.00200221 0.000672272 0.194409)
(-0.00197037 0.000672899 0.193449)
(-0.00194153 0.000684287 0.19323)
(-0.00191456 0.000706883 0.193743)
(0.000401648 0.000159147 0.217666)
(0.000428017 0.000175239 0.218722)
(0.000466231 0.000175929 0.219621)
(0.000519427 0.000160317 0.220411)
(0.00308672 0.000781671 0.246692)
(0.00307007 0.000759603 0.246569)
(0.00297395 0.00074844 0.246212)
(0.00279721 0.000746891 0.245613)
(6.13298e-05 -0.000707073 0.218226)
(-0.000111469 -0.000700578 0.217114)
(-0.000222405 -0.000703292 0.215722)
(-0.000275855 -0.000715322 0.213995)
(-0.00187162 0.000653461 0.191447)
(-0.00184291 0.000653707 0.190466)
(-0.00181934 0.000664514 0.190238)
(-0.00179998 0.000686308 0.190755)
(0.000328395 0.00015208 0.214874)
(0.000347252 0.000167684 0.215943)
(0.000380239 0.000168367 0.216853)
(0.000430305 0.00015326 0.217652)
(0.00316862 0.000778862 0.24425)
(0.00315231 0.000757289 0.244124)
(0.00305821 0.000746286 0.243769)
(0.00288521 0.000744589 0.243177)
(0.000203763 -0.000680234 0.2158)
(3.45446e-05 -0.000674186 0.214683)
(-7.42641e-05 -0.000677168 0.213281)
(-0.000126955 -0.000689296 0.211538)
(-0.0017902 0.000616835 0.18859)
(-0.00176437 0.00061693 0.187591)
(-0.00174585 0.000627208 0.187354)
(-0.00173393 0.000648075 0.187872)
(0.000254662 0.000153817 0.212017)
(0.000266734 0.000168909 0.213094)
(0.000294963 0.000169733 0.21401)
(0.00034212 0.000155469 0.214813)
(0.00325192 0.000774376 0.241749)
(0.00323577 0.00075332 0.241622)
(0.00314354 0.000742499 0.241269)
(0.00297411 0.000740679 0.24068)
(0.000340414 -0.000651414 0.213316)
(0.000174428 -0.000645836 0.212195)
(6.74052e-05 -0.000649026 0.210786)
(1.51223e-05 -0.000661109 0.209031)
(-0.00173463 0.000591919 0.185773)
(-0.0017116 0.000591826 0.184758)
(-0.00169795 0.000601628 0.184513)
(-0.00169313 0.000621711 0.185029)
(0.000181267 0.000151224 0.209077)
(0.000187183 0.000165773 0.210158)
(0.000211066 0.000166612 0.211076)
(0.000255522 0.000152955 0.211879)
(0.00333521 0.000769282 0.239174)
(0.00331908 0.000748724 0.239045)
(0.00322858 0.000738094 0.238692)
(0.00306261 0.000736187 0.238108)
(0.000471723 -0.000625455 0.210758)
(0.000308746 -0.00062024 0.209635)
(0.000203293 -0.000623585 0.20822)
(0.000151203 -0.000635622 0.206456)
(-0.00168676 0.000581693 0.182939)
(-0.00166655 0.000581341 0.18191)
(-0.00165757 0.000590712 0.181656)
(-0.00165945 0.000610175 0.182167)
(0.000109418 0.000133925 0.206082)
(0.000109639 0.000148036 0.207161)
(0.000129505 0.000148577 0.208079)
(0.000171471 0.000134754 0.208884)
(0.00341827 0.000762974 0.236515)
(0.003402 0.000742911 0.236384)
(0.00331312 0.00073249 0.236031)
(0.00315053 0.000730536 0.23545)
(0.000598189 -0.000602418 0.208114)
(0.000438099 -0.00059744 0.206989)
(0.000334117 -0.000600886 0.205569)
(0.000282141 -0.000612894 0.203798)
(-0.00164453 0.000569801 0.180045)
(-0.00162709 0.000569258 0.179004)
(-0.00162259 0.00057823 0.178741)
(-0.00163085 0.000597072 0.179246)
(3.70415e-05 0.000121458 0.203039)
(3.1881e-05 0.000135249 0.204114)
(4.79076e-05 0.000135565 0.205032)
(8.74282e-05 0.000121602 0.20584)
(0.00350192 0.000754131 0.233773)
(0.00348532 0.000734608 0.233639)
(0.00339794 0.000724441 0.233286)
(0.00323866 0.000722485 0.232707)
(0.000720417 -0.000579088 0.205375)
(0.000563151 -0.000574299 0.204247)
(0.000460622 -0.000577796 0.202822)
(0.000408785 -0.000589718 0.201045)
(-0.00160876 0.00055889 0.177066)
(-0.00159394 0.000558189 0.176013)
(-0.00159373 0.00056679 0.17574)
(-0.00160814 0.000585033 0.176237)
(-3.64635e-05 0.000128291 0.199902)
(-4.67778e-05 0.000141759 0.200971)
(-3.45139e-05 0.000142205 0.201888)
(2.48234e-06 0.00012886 0.202701)
(0.00358691 0.000743749 0.23095)
(0.00356977 0.000724782 0.230813)
(0.00348374 0.000714894 0.230459)
(0.00332768 0.000712975 0.229881)
(0.000838933 -0.000555275 0.202534)
(0.000684441 -0.000550643 0.201401)
(0.000583381 -0.000554147 0.199971)
(0.000531766 -0.000565927 0.198188)
(-0.00158012 0.000547565 0.173983)
(-0.0015677 0.000546736 0.172918)
(-0.00157159 0.000554976 0.172635)
(-0.00159196 0.00057261 0.173124)
(-0.000104747 0.000154329 0.196598)
(-0.000120015 0.000167458 0.19766)
(-0.000111368 0.000168392 0.198576)
(-7.67983e-05 0.000156445 0.199392)
(0.00367332 0.000731599 0.228045)
(0.00365545 0.000713219 0.227905)
(0.00357064 0.00070364 0.227549)
(0.00341769 0.000701787 0.22697)
(0.000954049 -0.000531228 0.199587)
(0.00080227 -0.000526724 0.198449)
(0.000702697 -0.000530203 0.197013)
(0.000651401 -0.000541801 0.195222)
(-0.00155727 0.000533095 0.170786)
(-0.00154702 0.000532177 0.169708)
(-0.00155481 0.000540045 0.169414)
(-0.00158094 0.000557011 0.169895)
(-0.000155839 0.000164234 0.19309)
(-0.000175847 0.000176926 0.194146)
(-0.000170458 0.000178019 0.195057)
(-0.00013778 0.000166872 0.195874)
(0.00376025 0.000719134 0.225049)
(0.00374151 0.000701326 0.224904)
(0.00365778 0.000692058 0.224546)
(0.00350783 0.000690286 0.223966)
(0.00106576 -0.000506945 0.19653)
(0.000916621 -0.000502554 0.195385)
(0.00081854 -0.000505984 0.193942)
(0.000767651 -0.00051737 0.192144)
(-0.00153517 0.000516622 0.167465)
(-0.0015269 0.000515635 0.166375)
(-0.00153838 0.000523115 0.166071)
(-0.00157007 0.000539358 0.166544)
(-0.000188245 0.000143974 0.189425)
(-0.000212781 0.000156123 0.190472)
(-0.000210262 0.000156772 0.191379)
(-0.000178877 0.000145259 0.192195)
(0.00384666 0.000706527 0.221941)
(0.00382694 0.000689273 0.221793)
(0.00374419 0.000680311 0.221432)
(0.00359712 0.000678629 0.220849)
(0.00117366 -0.000482402 0.193355)
(0.00102708 -0.000478116 0.192202)
(0.000930483 -0.000481481 0.190752)
(0.000880069 -0.000492629 0.188948)
(-0.00150712 0.000501703 0.164017)
(-0.00150073 0.000500635 0.162916)
(-0.00151572 0.000507717 0.162603)
(-0.00155267 0.000523229 0.163067)
(-0.000214669 0.000124214 0.18569)
(-0.000243552 0.000135819 0.186729)
(-0.000243748 0.000136028 0.187632)
(-0.000213519 0.000124161 0.188448)
(0.0039315 0.000692437 0.218695)
(0.0039107 0.000675768 0.218543)
(0.00382885 0.000667132 0.21818)
(0.00368459 0.000665551 0.217594)
(0.00127694 -0.000457934 0.190052)
(0.00113286 -0.000453746 0.188892)
(0.00103776 -0.000457035 0.187436)
(0.000987875 -0.00046793 0.185627)
(-0.00146939 0.000490004 0.160448)
(-0.00146484 0.000488829 0.159337)
(-0.00148315 0.000495515 0.159016)
(-0.00152504 0.000510324 0.159472)
(-0.000246343 0.000116032 0.18192)
(-0.000279412 0.000127121 0.182952)
(-0.000282369 0.000127119 0.183852)
(-0.00025356 0.00011535 0.184669)
(0.00401315 0.00067727 0.215281)
(0.00399118 0.000661195 0.215127)
(0.00391016 0.000652896 0.21476)
(0.00376867 0.000651431 0.214173)
(0.00137476 -0.000433888 0.186611)
(0.00123317 -0.000429788 0.185445)
(0.00113958 -0.00043299 0.183985)
(0.00109027 -0.000443621 0.182172)
(-0.00142387 0.000480701 0.156771)
(-0.00142115 0.000479399 0.155652)
(-0.00144261 0.000485694 0.155324)
(-0.00148911 0.000499833 0.155772)
(-0.000286828 0.000119807 0.178102)
(-0.000323912 0.000130418 0.179126)
(-0.000329718 0.000130447 0.180023)
(-0.000302703 0.000119251 0.180844)
(0.00408975 0.000660982 0.211679)
(0.00406654 0.000645506 0.211521)
(0.00398634 0.000637555 0.211153)
(0.00384764 0.000636223 0.210565)
(0.00146651 -0.000410123 0.183022)
(0.00132744 -0.000406097 0.181853)
(0.00123538 -0.0004092 0.180391)
(0.00118669 -0.000419556 0.178578)
(-0.00137669 0.000471552 0.153)
(-0.00137571 0.000470123 0.151876)
(-0.00140015 0.000476034 0.15154)
(-0.00145099 0.00048952 0.151981)
(-0.00033286 0.000123 0.174213)
(-0.000373758 0.000133144 0.175228)
(-0.00038242 0.000133204 0.176123)
(-0.000357425 0.000122566 0.176947)
(0.00415965 0.000643649 0.207877)
(0.00413518 0.000628772 0.207717)
(0.00405579 0.000621181 0.207348)
(0.00391992 0.000620005 0.20676)
(0.00155176 -0.000386478 0.179278)
(0.00141526 -0.000382512 0.178107)
(0.00132478 -0.000385504 0.176646)
(0.00127676 -0.000395571 0.174835)
(-0.001334 0.000460922 0.149141)
(-0.00133464 0.00045938 0.148013)
(-0.0013619 0.00046492 0.147672)
(-0.00141683 0.00047776 0.148106)
(-0.000380391 0.000118592 0.170233)
(-0.000424874 0.000128269 0.17124)
(-0.000436304 0.000128222 0.172132)
(-0.000413384 0.000117856 0.172958)
(0.00422192 0.000625369 0.203874)
(0.00419617 0.000611087 0.203711)
(0.00411762 0.000603865 0.203342)
(0.00398463 0.000602865 0.202756)
(0.00163013 -0.000362964 0.175371)
(0.00149625 -0.000359048 0.174201)
(0.0014074 -0.000361915 0.172742)
(0.00136008 -0.000371678 0.170937)
(-0.00129898 0.000448189 0.145189)
(-0.00130111 0.000446556 0.144058)
(-0.001331 0.000451734 0.143713)
(-0.00138982 0.000463926 0.144141)
(-0.000428398 0.000114872 0.166147)
(-0.000476225 0.000124099 0.167144)
(-0.000490308 0.000123971 0.168032)
(-0.000469477 0.000113908 0.168861)
(0.0042765 0.000606083 0.199673)
(0.00424947 0.000592394 0.199507)
(0.00417178 0.000585545 0.199138)
(0.00404172 0.000584735 0.198554)
(0.00170109 -0.000339976 0.171292)
(0.00156989 -0.000336098 0.170123)
(0.00148272 -0.000338827 0.168669)
(0.00143614 -0.000348272 0.166871)
(-0.00127121 0.000433971 0.141126)
(-0.00127468 0.000432267 0.139995)
(-0.00130703 0.000437095 0.139648)
(-0.00136953 0.000448645 0.140069)
(-0.00047638 0.000111258 0.161941)
(-0.000527307 0.000120051 0.162928)
(-0.00054392 0.000119854 0.163811)
(-0.000525174 0.000110104 0.164641)
(0.00432388 0.000585797 0.195272)
(0.00429553 0.000572699 0.195105)
(0.00421871 0.000566227 0.194735)
(0.00409165 0.000565613 0.194154)
(0.00176393 -0.000317652 0.167027)
(0.00163548 -0.000313805 0.165862)
(0.00155003 -0.000316387 0.164414)
(0.00150421 -0.000325501 0.162626)
(-0.00124808 0.000419377 0.136937)
(-0.00125277 0.000417613 0.135808)
(-0.0012874 0.000422106 0.135459)