/*--------------------------------*- C++ -*----------------------------------*\
| =========                 |                                                 |
| \\      /  F ield         | OpenFOAM: The Open Source CFD Toolbox           |
|  \\    /   O peration     | Version:  v1912                                 |
|   \\  /    A nd           | Website:  www.openfoam.com                      |
|    \\/     M anipulation  |                                                 |
\*---------------------------------------------------------------------------*/
FoamFile
{
    version     2.0;
    format      ascii;
    class       volSymmTensorField;
    location    "100";
    object      UPrime2Mean;
}
// * * * * * * * * * * * * * * * * * * * * * * * * * * * * * * * * * * * * * //

dimensions      [0 2 -2 0 0 0 0];


internalField   nonuniform List<symmTensor> 
10077
(
(3.07221e-05 8.36364e-07 -1.70456e-06 3.13798e-05 1.25033e-05 0.000403234)
(3.08914e-05 8.3315e-07 -1.5681e-06 3.13802e-05 1.24083e-05 0.000403869)
(3.11362e-05 8.13073e-07 -1.26249e-06 3.14197e-05 1.22243e-05 0.000404364)
(3.14667e-05 7.7591e-07 -7.79279e-07 3.14985e-05 1.19456e-05 0.000404757)
(3.6018e-05 -2.28521e-07 4.19232e-06 3.23167e-05 6.20684e-06 0.000417942)
(3.61878e-05 -2.70678e-07 4.42219e-06 3.23862e-05 6.03432e-06 0.000418022)
(3.61101e-05 -3.10744e-07 4.30461e-06 3.2421e-05 5.99894e-06 0.000417744)
(3.57819e-05 -3.50299e-07 3.83494e-06 3.24226e-05 6.09932e-06 0.000417096)
(3.19989e-05 -2.98633e-09 2.40846e-07 3.21868e-05 9.74908e-06 0.000400917)
(3.18957e-05 2.159e-08 -6.02154e-09 3.21664e-05 9.80673e-06 0.000400007)
(3.2088e-05 8.4787e-08 2.044e-07 3.21473e-05 9.73425e-06 0.000399295)
(3.25832e-05 1.89097e-07 8.8041e-07 3.21287e-05 9.5288e-06 0.000398753)
(4.42267e-05 1.96855e-06 1.53487e-05 3.23673e-05 3.60862e-06 0.000405265)
(4.49683e-05 2.08253e-06 1.63191e-05 3.23673e-05 3.26764e-06 0.000404992)
(4.53526e-05 2.14436e-06 1.68797e-05 3.2368e-05 3.09431e-06 0.000405171)
(4.5382e-05 2.15478e-06 1.70409e-05 3.23696e-05 3.08794e-06 0.000405841)
(3.10984e-05 7.22085e-07 -2.10561e-06 3.1362e-05 1.43091e-05 0.000416226)
(3.12551e-05 7.19817e-07 -1.96196e-06 3.13566e-05 1.42062e-05 0.00041676)
(3.14801e-05 7.05541e-07 -1.64662e-06 3.13985e-05 1.40105e-05 0.000417102)
(3.17829e-05 6.79098e-07 -1.1507e-06 3.14874e-05 1.37158e-05 0.000417282)
(3.57578e-05 -1.99526e-07 3.99265e-06 3.23657e-05 7.57241e-06 0.000427574)
(3.59129e-05 -2.32175e-07 4.23073e-06 3.24345e-05 7.39304e-06 0.000427474)
(3.58369e-05 -2.67194e-07 4.10921e-06 3.24721e-05 7.36053e-06 0.000427165)
(3.5527e-05 -3.05965e-07 3.62331e-06 3.24799e-05 7.4736e-06 0.000426636)
(3.23408e-05 5.235e-08 9.66393e-08 3.22662e-05 1.15385e-05 0.00041216)
(3.22511e-05 7.41077e-08 -1.54335e-07 3.22405e-05 1.16077e-05 0.000411278)
(3.24427e-05 1.34848e-07 6.99811e-08 3.22221e-05 1.15368e-05 0.000410515)
(3.29234e-05 2.36966e-07 7.78434e-07 3.22104e-05 1.1323e-05 0.000409841)
(4.37956e-05 2.03317e-06 1.59133e-05 3.24379e-05 4.97983e-06 0.000411616)
(4.45047e-05 2.14689e-06 1.69217e-05 3.2434e-05 4.6204e-06 0.000411075)
(4.48681e-05 2.20883e-06 1.75073e-05 3.24351e-05 4.43416e-06 0.00041113)
(4.48877e-05 2.21976e-06 1.7681e-05 3.24416e-05 4.41992e-06 0.000411822)
(3.15681e-05 5.8666e-07 -2.46086e-06 3.1234e-05 1.60144e-05 0.000428108)
(3.17129e-05 5.85422e-07 -2.31321e-06 3.12225e-05 1.59062e-05 0.000428539)
(3.1918e-05 5.77032e-07 -1.99002e-06 3.1262e-05 1.56995e-05 0.000428717)
(3.21921e-05 5.61401e-07 -1.48215e-06 3.13518e-05 1.53878e-05 0.000428666)
(3.55825e-05 -1.87272e-07 3.80819e-06 3.21934e-05 8.86535e-06 0.000434752)
(3.57237e-05 -2.09996e-07 4.05106e-06 3.22637e-05 8.67952e-06 0.000434487)
(3.56504e-05 -2.39599e-07 3.92483e-06 3.23025e-05 8.64989e-06 0.000434147)
(3.53598e-05 -2.7725e-07 3.42453e-06 3.23112e-05 8.77527e-06 0.000433717)
(3.28266e-05 1.01819e-07 -1.09081e-07 3.21126e-05 1.31898e-05 0.00042077)
(3.27519e-05 1.2066e-07 -3.58808e-07 3.2086e-05 1.32717e-05 0.000419947)
(3.29442e-05 1.79011e-07 -1.15895e-07 3.20681e-05 1.3202e-05 0.000419137)
(3.34112e-05 2.79173e-07 6.2924e-07 3.20581e-05 1.29778e-05 0.00041831)
(4.35131e-05 2.0821e-06 1.66615e-05 3.2307e-05 6.27312e-06 0.000415823)
(4.41899e-05 2.19553e-06 1.7715e-05 3.23053e-05 5.89444e-06 0.000415019)
(4.45323e-05 2.25751e-06 1.83292e-05 3.23094e-05 5.69453e-06 0.000414935)
(4.45415e-05 2.2688e-06 1.85162e-05 3.23199e-05 5.67168e-06 0.00041561)
(3.21328e-05 4.45856e-07 -2.80561e-06 3.09113e-05 1.75626e-05 0.000439)
(3.22666e-05 4.44971e-07 -2.65492e-06 3.08959e-05 1.74523e-05 0.000439329)
(3.24518e-05 4.41778e-07 -2.32555e-06 3.09332e-05 1.72374e-05 0.000439333)
(3.26966e-05 4.36218e-07 -1.80819e-06 3.10223e-05 1.6911e-05 0.000439031)
(3.54936e-05 -1.91973e-07 3.61232e-06 3.18259e-05 1.00894e-05 0.000440003)
(3.56206e-05 -2.05207e-07 3.8566e-06 3.18951e-05 9.89915e-06 0.000439583)
(3.55499e-05 -2.29366e-07 3.7246e-06 3.1933e-05 9.87295e-06 0.000439208)
(3.52786e-05 -2.65402e-07 3.21111e-06 3.1941e-05 1.00098e-05 0.000438865)
(3.34027e-05 1.43791e-07 -3.3477e-07 3.1755e-05 1.47587e-05 0.000427758)
(3.33446e-05 1.60564e-07 -5.79478e-07 3.17277e-05 1.48524e-05 0.000427017)
(3.35383e-05 2.17383e-07 -3.1362e-07 3.171e-05 1.47831e-05 0.00042617)
(3.39914e-05 3.16488e-07 4.73288e-07 3.1701e-05 1.45478e-05 0.000425183)
(4.33706e-05 2.13178e-06 1.75465e-05 3.19512e-05 7.5141e-06 0.000418665)
(4.40157e-05 2.24529e-06 1.86508e-05 3.19513e-05 7.11707e-06 0.000417614)
(4.43373e-05 2.30752e-06 1.92971e-05 3.19576e-05 6.90422e-06 0.000417388)
(4.43359e-05 2.31926e-06 1.94981e-05 3.19709e-05 6.87336e-06 0.000418024)
(3.27969e-05 3.12995e-07 -3.19683e-06 3.05125e-05 1.90219e-05 0.000449705)
(3.29204e-05 3.11827e-07 -3.04412e-06 3.04938e-05 1.89096e-05 0.000449927)
(3.3086e-05 3.12957e-07 -2.70912e-06 3.05293e-05 1.86875e-05 0.000449749)
(3.33009e-05 3.16321e-07 -2.1824e-06 3.06182e-05 1.83487e-05 0.000449182)
(3.54985e-05 -2.07688e-07 3.3401e-06 3.14023e-05 1.12515e-05 0.00044459)
(3.56111e-05 -2.12455e-07 3.58662e-06 3.14698e-05 1.10584e-05 0.000444004)
(3.55425e-05 -2.31535e-07 3.45009e-06 3.15072e-05 1.10359e-05 0.000443589)
(3.529e-05 -2.6568e-07 2.92512e-06 3.1516e-05 1.11832e-05 0.00044333)
(3.40648e-05 1.67038e-07 -5.41582e-07 3.1311e-05 1.62224e-05 0.000434104)
(3.40243e-05 1.82787e-07 -7.78704e-07 3.12831e-05 1.63271e-05 0.000433463)
(3.42201e-05 2.38805e-07 -4.85507e-07 3.12655e-05 1.62576e-05 0.000432591)
(3.466e-05 3.37303e-07 3.49572e-07 3.12575e-05 1.6011e-05 0.000431454)
(4.33627e-05 2.16577e-06 1.85346e-05 3.15067e-05 8.64051e-06 0.000421273)
(4.39776e-05 2.27953e-06 1.96951e-05 3.15065e-05 8.22609e-06 0.000419988)
(4.42792e-05 2.34178e-06 2.0376e-05 3.15135e-05 8e-06 0.000419623)
(4.42672e-05 2.35332e-06 2.05912e-05 3.15286e-05 7.95946e-06 0.000420213)
(3.35682e-05 1.87095e-07 -3.67657e-06 3.00717e-05 2.04633e-05 0.000460944)
(3.36821e-05 1.85652e-07 -3.52319e-06 3.00491e-05 2.03465e-05 0.000461049)
(3.38279e-05 1.90538e-07 -3.18197e-06 3.00829e-05 2.01169e-05 0.000460677)
(3.40126e-05 2.0168e-07 -2.6434e-06 3.01717e-05 1.97672e-05 0.000459834)
(3.56087e-05 -2.28677e-07 3.00932e-06 3.09223e-05 1.23496e-05 0.000449254)
(3.57063e-05 -2.26083e-07 3.26079e-06 3.09891e-05 1.21547e-05 0.000448491)
(3.56392e-05 -2.40691e-07 3.12213e-06 3.10269e-05 1.21361e-05 0.000448032)
(3.54047e-05 -2.73076e-07 2.58786e-06 3.10371e-05 1.22931e-05 0.000447858)
(3.48225e-05 1.77152e-07 -7.25211e-07 3.08314e-05 1.76144e-05 0.00044051)
(3.47998e-05 1.92471e-07 -9.52086e-07 3.08032e-05 1.77286e-05 0.000439983)
(3.49987e-05 2.48058e-07 -6.27403e-07 3.07857e-05 1.76585e-05 0.000439101)
(3.5427e-05 3.46107e-07 2.61644e-07 3.0778e-05 1.74016e-05 0.00043783)
(4.34977e-05 2.19834e-06 1.95855e-05 3.1015e-05 9.6802e-06 0.00042377)
(4.40844e-05 2.31249e-06 2.0807e-05 3.1014e-05 9.24943e-06 0.000422262)
(4.43671e-05 2.37493e-06 2.15245e-05 3.10212e-05 9.01037e-06 0.000421754)
(4.43451e-05 2.38645e-06 2.17524e-05 3.10378e-05 8.95964e-06 0.000422275)
(3.44542e-05 7.09057e-08 -4.23363e-06 2.95848e-05 2.17676e-05 0.00047213)
(3.45588e-05 6.94105e-08 -4.08116e-06 2.95587e-05 2.1648e-05 0.000472135)
(3.46848e-05 7.77183e-08 -3.73272e-06 2.95907e-05 2.14124e-05 0.000471576)
(3.48385e-05 9.57595e-08 -3.17884e-06 2.96794e-05 2.10533e-05 0.000470451)
(3.58348e-05 -2.46188e-07 2.66013e-06 3.0386e-05 1.33955e-05 0.000454277)
(3.59164e-05 -2.37165e-07 2.91983e-06 3.04529e-05 1.31992e-05 0.000453331)
(3.58499e-05 -2.478e-07 2.78187e-06 3.04915e-05 1.31843e-05 0.000452823)
(3.56328e-05 -2.78513e-07 2.2408e-06 3.05033e-05 1.33503e-05 0.000452734)
(3.56773e-05 1.89493e-07 -8.91163e-07 3.0342e-05 1.89284e-05 0.000447477)
(3.56732e-05 2.04352e-07 -1.10549e-06 3.03134e-05 1.90512e-05 0.000447068)
(3.58763e-05 2.59398e-07 -7.46032e-07 3.02959e-05 1.89808e-05 0.000446188)
(3.62947e-05 3.56803e-07 2.01385e-07 3.0289e-05 1.87145e-05 0.0004448)
(4.37785e-05 2.23803e-06 2.0724e-05 3.05151e-05 1.06549e-05 0.000426389)
(4.43393e-05 2.35236e-06 2.20112e-05 3.05135e-05 1.02095e-05 0.00042467)
(4.46045e-05 2.41516e-06 2.2767e-05 3.05216e-05 9.95847e-06 0.000424014)
(4.45727e-05 2.42727e-06 2.30067e-05 3.05405e-05 9.89779e-06 0.000424444)
(3.54569e-05 -2.92704e-08 -4.85682e-06 2.90554e-05 2.29401e-05 0.000483617)
(3.55527e-05 -3.09518e-08 -4.70568e-06 2.90263e-05 2.28194e-05 0.000483529)
(3.56584e-05 -1.96093e-08 -4.34844e-06 2.90567e-05 2.25791e-05 0.000482786)
(3.57796e-05 4.68264e-09 -3.77568e-06 2.9145e-05 2.2212e-05 0.000481382)
(3.61759e-05 -2.55447e-07 2.3382e-06 2.98094e-05 1.44049e-05 0.000459925)
(3.62402e-05 -2.40581e-07 2.60871e-06 2.9876e-05 1.42069e-05 0.000458792)
(3.61738e-05 -2.47427e-07 2.47368e-06 2.99151e-05 1.41953e-05 0.000458236)
(3.59738e-05 -2.76255e-07 1.92778e-06 2.99281e-05 1.43698e-05 0.000458235)
(3.66239e-05 2.02599e-07 -1.03596e-06 2.9823e-05 2.01456e-05 0.000455236)
(3.66395e-05 2.1696e-07 -1.23608e-06 2.97946e-05 2.02767e-05 0.000454948)
(3.68484e-05 2.71161e-07 -8.39454e-07 2.9778e-05 2.02065e-05 0.000454078)
(3.72588e-05 3.6734e-07 1.69558e-07 2.97726e-05 1.9932e-05 0.00045259)
(4.4212e-05 2.27203e-06 2.1937e-05 2.99969e-05 1.15592e-05 0.00042996)
(4.47489e-05 2.38588e-06 2.32936e-05 2.99956e-05 1.11009e-05 0.000428041)
(4.49974e-05 2.44867e-06 2.4089e-05 3.0005e-05 1.0839e-05 0.000427245)
(4.49556e-05 2.46126e-06 2.43392e-05 3.00263e-05 1.07688e-05 0.00042759)
(3.65711e-05 -1.11875e-07 -5.47685e-06 2.84906e-05 2.40084e-05 0.000495328)
(3.66591e-05 -1.14113e-07 -5.32752e-06 2.84596e-05 2.38871e-05 0.000495158)
(3.6744e-05 -1.00176e-07 -4.96076e-06 2.84887e-05 2.36431e-05 0.000494238)
(3.6831e-05 -7.01663e-08 -4.36724e-06 2.85761e-05 2.32689e-05 0.000492558)
(3.66161e-05 -2.6239e-07 2.04392e-06 2.92171e-05 1.53543e-05 0.000466494)
(3.66616e-05 -2.42048e-07 2.32716e-06 2.92825e-05 1.5155e-05 0.000465173)
(3.65939e-05 -2.45156e-07 2.1963e-06 2.93215e-05 1.51468e-05 0.00046457)
(3.64104e-05 -2.71838e-07 1.64618e-06 2.93356e-05 1.53296e-05 0.000464661)
(3.76545e-05 2.11628e-07 -1.17371e-06 2.92475e-05 2.12569e-05 0.000463646)
(3.76912e-05 2.25774e-07 -1.35833e-06 2.922e-05 2.1396e-05 0.000463484)
(3.79076e-05 2.79141e-07 -9.22616e-07 2.92047e-05 2.13259e-05 0.000462634)
(3.83122e-05 3.73834e-07 1.50627e-07 2.92008e-05 2.10437e-05 0.000461061)
(4.48033e-05 2.29249e-06 2.31996e-05 2.94557e-05 1.24247e-05 0.000434888)
(4.53184e-05 2.40532e-06 2.46286e-05 2.94549e-05 1.19548e-05 0.000432781)
(4.55515e-05 2.46757e-06 2.54645e-05 2.94654e-05 1.16832e-05 0.000431861)
(4.54999e-05 2.48009e-06 2.57237e-05 2.94886e-05 1.1605e-05 0.00043214)
(3.77611e-05 -1.75136e-07 -5.97889e-06 2.79095e-05 2.49663e-05 0.000507323)
(3.78422e-05 -1.78408e-07 -5.83375e-06 2.78766e-05 2.48453e-05 0.000507076)
(3.79063e-05 -1.62485e-07 -5.45934e-06 2.79042e-05 2.45985e-05 0.000505986)
(3.79582e-05 -1.27525e-07 -4.84657e-06 2.79903e-05 2.42185e-05 0.000504037)
(3.71474e-05 -2.79125e-07 1.79037e-06 2.86126e-05 1.62289e-05 0.000474027)
(3.71721e-05 -2.53833e-07 2.08489e-06 2.8676e-05 1.60287e-05 0.000472519)
(3.71015e-05 -2.53535e-07 1.95701e-06 2.87145e-05 1.60239e-05 0.000471875)
(3.69328e-05 -2.78221e-07 1.40167e-06 2.87295e-05 1.62141e-05 0.000472067)
(3.87476e-05 2.19863e-07 -1.28185e-06 2.86369e-05 2.22851e-05 0.000472739)
(3.88063e-05 2.34067e-07 -1.4501e-06 2.86102e-05 2.24313e-05 0.000472708)
(3.90321e-05 2.86807e-07 -9.73509e-07 2.85958e-05 2.23614e-05 0.000471886)
(3.94339e-05 3.80163e-07 1.66722e-07 2.85932e-05 2.20726e-05 0.00047024)
(4.55343e-05 2.3033e-06 2.45137e-05 2.88867e-05 1.32182e-05 0.000441004)
(4.60311e-05 2.41509e-06 2.60172e-05 2.8886e-05 1.27387e-05 0.000438723)
(4.62507e-05 2.47675e-06 2.68944e-05 2.88976e-05 1.24583e-05 0.000437688)
(4.619e-05 2.4891e-06 2.71626e-05 2.8923e-05 1.23714e-05 0.00043791)
(3.90017e-05 -2.35127e-07 -6.39901e-06 2.73307e-05 2.5794e-05 0.000519792)
(3.90765e-05 -2.39435e-07 -6.2575e-06 2.72946e-05 2.56754e-05 0.000519467)
(3.91203e-05 -2.22082e-07 -5.87751e-06 2.73199e-05 2.54273e-05 0.000518213)
(3.91375e-05 -1.83281e-07 -5.25014e-06 2.74045e-05 2.50425e-05 0.000516008)
(3.77593e-05 -3.08844e-07 1.52438e-06 2.79913e-05 1.70146e-05 0.000482193)
(3.77633e-05 -2.79596e-07 1.82589e-06 2.80524e-05 1.68144e-05 0.000480508)
(3.76892e-05 -2.76527e-07 1.69753e-06 2.80901e-05 1.68126e-05 0.000479831)
(3.75342e-05 -2.99516e-07 1.1342e-06 2.81058e-05 1.70089e-05 0.000480135)
(3.9868e-05 2.26983e-07 -1.38861e-06 2.8013e-05 2.32816e-05 0.000482687)
(3.9949e-05 2.41417e-07 -1.53962e-06 2.7986e-05 2.34334e-05 0.000482788)
(4.01855e-05 2.93735e-07 -1.02111e-06 2.79722e-05 2.33643e-05 0.000481999)
(4.05866e-05 3.86001e-07 1.87365e-07 2.7971e-05 2.30716e-05 0.000480289)
(4.63723e-05 2.30568e-06 2.58364e-05 2.82484e-05 1.393e-05 0.00044797)
(4.68543e-05 2.41651e-06 2.74153e-05 2.82479e-05 1.34431e-05 0.000445525)
(4.70626e-05 2.47768e-06 2.8334e-05 2.82602e-05 1.31545e-05 0.000444379)
(4.69937e-05 2.49e-06 2.86102e-05 2.82868e-05 1.30579e-05 0.000444541)
(4.02673e-05 -2.86247e-07 -6.63636e-06 2.67441e-05 2.65026e-05 0.000532691)
(4.03366e-05 -2.91777e-07 -6.50198e-06 2.67042e-05 2.63886e-05 0.000532295)
(4.03612e-05 -2.73585e-07 -6.12085e-06 2.67268e-05 2.61407e-05 0.000530885)
(4.03451e-05 -2.31954e-07 -5.48448e-06 2.68096e-05 2.57518e-05 0.000528437)
(3.84352e-05 -3.34227e-07 1.16244e-06 2.733e-05 1.7747e-05 0.000491139)
(3.84189e-05 -3.01989e-07 1.46773e-06 2.7389e-05 1.7547e-05 0.000489281)
(3.83412e-05 -2.9653e-07 1.33611e-06 2.74258e-05 1.75477e-05 0.000488578)
(3.81989e-05 -3.17634e-07 7.62395e-07 2.74417e-05 1.77493e-05 0.000489002)
(4.10106e-05 2.12788e-07 -1.52379e-06 2.73589e-05 2.42008e-05 0.000493248)
(4.11135e-05 2.27843e-07 -1.65653e-06 2.7331e-05 2.43573e-05 0.000493481)
(4.13608e-05 2.79711e-07 -1.09558e-06 2.73173e-05 2.42892e-05 0.000492724)
(4.17623e-05 3.70437e-07 1.81198e-07 2.73173e-05 2.39937e-05 0.000490947)
(4.72943e-05 2.2931e-06 2.71501e-05 2.75488e-05 1.45975e-05 0.000455578)
(4.77643e-05 2.40259e-06 2.88052e-05 2.75486e-05 1.41048e-05 0.00045297)
(4.79629e-05 2.46295e-06 2.97654e-05 2.75613e-05 1.38091e-05 0.000451711)
(4.78861e-05 2.47497e-06 3.0049e-05 2.75884e-05 1.37037e-05 0.000451805)
(4.15705e-05 -3.34611e-07 -6.80975e-06 2.6101e-05 2.7164e-05 0.000545883)
(4.1635e-05 -3.41128e-07 -6.68355e-06 2.60591e-05 2.70547e-05 0.00054543)
(4.16412e-05 -3.22266e-07 -6.30386e-06 2.60795e-05 2.68071e-05 0.000543876)
(4.15929e-05 -2.78363e-07 -5.66267e-06 2.61599e-05 2.64144e-05 0.000541193)
(3.91685e-05 -3.554e-07 7.38517e-07 2.66377e-05 1.8444e-05 0.000500594)
(3.91326e-05 -3.20524e-07 1.04377e-06 2.66943e-05 1.82436e-05 0.000498577)
(3.90508e-05 -3.12762e-07 9.06522e-07 2.67297e-05 1.82463e-05 0.000497853)
(3.89199e-05 -3.31805e-07 3.21364e-07 2.67454e-05 1.84521e-05 0.000498391)
(4.21785e-05 1.97124e-07 -1.67056e-06 2.66729e-05 2.50127e-05 0.000504392)
(4.23024e-05 2.12842e-07 -1.78366e-06 2.66448e-05 2.51742e-05 0.000504757)
(4.25609e-05 2.64159e-07 -1.17922e-06 2.66312e-05 2.51071e-05 0.000504029)
(4.29644e-05 3.53097e-07 1.6662e-07 2.66317e-05 2.48086e-05 0.000502178)
(4.83064e-05 2.27736e-06 2.84662e-05 2.68486e-05 1.52891e-05 0.000463865)
(4.87669e-05 2.38508e-06 3.01972e-05 2.68485e-05 1.47913e-05 0.00046109)
(4.89575e-05 2.44445e-06 3.11993e-05 2.68619e-05 1.44908e-05 0.000459715)
(4.88739e-05 2.45626e-06 3.14911e-05 2.68907e-05 1.43806e-05 0.000459739)
(4.29259e-05 -3.75288e-07 -6.88003e-06 2.53998e-05 2.7799e-05 0.000559385)
(4.29858e-05 -3.8265e-07 -6.76568e-06 2.53583e-05 2.76931e-05 0.000558886)
(4.29742e-05 -3.63225e-07 -6.39046e-06 2.53777e-05 2.74454e-05 0.000557199)
(4.28946e-05 -3.174e-07 -5.74706e-06 2.54556e-05 2.70494e-05 0.000554291)
(3.9971e-05 -3.7951e-07 2.66693e-07 2.59343e-05 1.91039e-05 0.000510688)
(3.99145e-05 -3.42195e-07 5.69659e-07 2.59883e-05 1.89029e-05 0.000508529)
(3.98272e-05 -3.32322e-07 4.25444e-07 2.60224e-05 1.89073e-05 0.000507791)
(3.97056e-05 -3.49501e-07 -1.7164e-07 2.6038e-05 1.91173e-05 0.000508446)
(4.33682e-05 1.90184e-07 -1.84119e-06 2.59662e-05 2.57424e-05 0.000516512)
(4.35118e-05 2.06481e-07 -1.93307e-06 2.59385e-05 2.59088e-05 0.000517005)
(4.37823e-05 2.57302e-07 -1.28398e-06 2.59252e-05 2.58427e-05 0.000516302)
(4.41901e-05 3.4465e-07 1.31659e-07 2.59258e-05 2.55414e-05 0.000514373)
(4.94092e-05 2.26701e-06 2.97957e-05 2.6166e-05 1.59631e-05 0.000472622)
(4.98634e-05 2.37285e-06 3.16023e-05 2.61652e-05 1.54606e-05 0.000469678)
(5.00485e-05 2.43137e-06 3.26465e-05 2.61795e-05 1.51561e-05 0.000468179)
(4.99598e-05 2.44337e-06 3.29478e-05 2.62107e-05 1.50425e-05 0.000468117)
(4.43424e-05 -4.05288e-07 -6.82461e-06 2.47183e-05 2.84357e-05 0.000573566)
(4.43977e-05 -4.136e-07 -6.72733e-06 2.46757e-05 2.83303e-05 0.000573009)
(4.43686e-05 -3.93944e-07 -6.35931e-06 2.46937e-05 2.80818e-05 0.000571192)
(4.4258e-05 -3.46758e-07 -5.71421e-06 2.47699e-05 2.76837e-05 0.00056808)
(4.08428e-05 -4.04743e-07 -2.50264e-07 2.52226e-05 1.97326e-05 0.000521194)
(4.07644e-05 -3.65381e-07 4.99695e-08 2.52747e-05 1.95312e-05 0.000518913)
(4.06697e-05 -3.53679e-07 -1.01437e-07 2.53083e-05 1.95373e-05 0.000518174)
(4.05547e-05 -3.69175e-07 -7.10456e-07 2.53246e-05 1.97512e-05 0.000518949)
(4.45743e-05 1.83886e-07 -2.03809e-06 2.52566e-05 2.64413e-05 0.000529761)
(4.47363e-05 2.00857e-07 -2.1079e-06 2.52296e-05 2.66112e-05 0.000530376)
(4.50188e-05 2.51329e-07 -1.41399e-06 2.52168e-05 2.65461e-05 0.000529696)
(4.5433e-05 3.37292e-07 7.10228e-08 2.52177e-05 2.62436e-05 0.000527695)
(5.05761e-05 2.25195e-06 3.1108e-05 2.54823e-05 1.65915e-05 0.000482341)
(5.10273e-05 2.35592e-06 3.29892e-05 2.54805e-05 1.60853e-05 0.000479229)
(5.12091e-05 2.4135e-06 3.40751e-05 2.54953e-05 1.57774e-05 0.000477607)
(5.11167e-05 2.4255e-06 3.43858e-05 2.55286e-05 1.56605e-05 0.000477463)
(4.57764e-05 -4.36566e-07 -6.86898e-06 2.40447e-05 2.90345e-05 0.00058821)
(4.58291e-05 -4.45473e-07 -6.78423e-06 2.40001e-05 2.89283e-05 0.000587587)
(4.57834e-05 -4.25663e-07 -6.42182e-06 2.40164e-05 2.86792e-05 0.000585645)
(4.56422e-05 -3.77609e-07 -5.77614e-06 2.4091e-05 2.82804e-05 0.000582347)
(4.179e-05 -4.30603e-07 -7.96017e-07 2.45083e-05 2.03304e-05 0.000532038)
(4.16893e-05 -3.89741e-07 -4.9835e-07 2.45589e-05 2.0129e-05 0.000529652)
(4.15861e-05 -3.76563e-07 -6.56744e-07 2.45924e-05 2.01368e-05 0.000528922)
(4.14763e-05 -3.90549e-07 -1.27745e-06 2.46101e-05 2.03538e-05 0.00052982)
(4.57992e-05 1.69846e-07 -2.21246e-06 2.45529e-05 2.7096e-05 0.000544035)
(4.59783e-05 1.87573e-07 -2.26095e-06 2.45266e-05 2.72677e-05 0.000544769)
(4.62726e-05 2.37688e-07 -1.5231e-06 2.45143e-05 2.72035e-05 0.000544115)
(4.66938e-05 3.22168e-07 3.0208e-08 2.45155e-05 2.69007e-05 0.000542047)
(5.17917e-05 2.22566e-06 3.23228e-05 2.4774e-05 1.71698e-05 0.000493243)
(5.22418e-05 2.3278e-06 3.42773e-05 2.47712e-05 1.66616e-05 0.000489961)
(5.24215e-05 2.38427e-06 3.54028e-05 2.47859e-05 1.63515e-05 0.000488224)
(5.23259e-05 2.39585e-06 3.57197e-05 2.48203e-05 1.6232e-05 0.000488013)
(4.72196e-05 -4.62658e-07 -6.99937e-06 2.33491e-05 2.95074e-05 0.00060329)
(4.7271e-05 -4.71859e-07 -6.92345e-06 2.3303e-05 2.94021e-05 0.000602594)
(4.72099e-05 -4.51973e-07 -6.56535e-06 2.33177e-05 2.91538e-05 0.000600531)
(4.70392e-05 -4.03491e-07 -5.91998e-06 2.33904e-05 2.87559e-05 0.000597056)
(4.28045e-05 -4.48741e-07 -1.31279e-06 2.37835e-05 2.0835e-05 0.000543316)
(4.26826e-05 -4.07109e-07 -1.01806e-06 2.38326e-05 2.0635e-05 0.000540838)
(4.25715e-05 -3.92944e-07 -1.18284e-06 2.38661e-05 2.06444e-05 0.000540125)
(4.24669e-05 -4.05686e-07 -1.81362e-06 2.38852e-05 2.08635e-05 0.00054115)
(4.70519e-05 1.49625e-07 -2.3564e-06 2.38354e-05 2.76546e-05 0.000558512)
(4.72479e-05 1.68016e-07 -2.3846e-06 2.38096e-05 2.78276e-05 0.000559375)
(4.75537e-05 2.17664e-07 -1.60439e-06 2.37975e-05 2.7764e-05 0.000558749)
(4.79815e-05 3.00528e-07 1.49996e-08 2.37988e-05 2.74614e-05 0.000556611)
(5.30624e-05 2.19652e-06 3.34665e-05 2.40436e-05 1.76659e-05 0.000504335)
(5.35115e-05 2.29693e-06 3.54921e-05 2.40398e-05 1.71571e-05 0.000500881)
(5.36893e-05 2.35239e-06 3.66553e-05 2.40544e-05 1.68454e-05 0.000499018)
(5.35905e-05 2.36367e-06 3.69769e-05 2.40894e-05 1.67233e-05 0.000498724)
(4.86722e-05 -4.84956e-07 -7.17814e-06 2.26416e-05 2.98755e-05 0.000618223)
(4.87232e-05 -4.94094e-07 -7.10876e-06 2.25943e-05 2.97718e-05 0.000617473)
(4.8648e-05 -4.74272e-07 -6.7543e-06 2.26073e-05 2.95253e-05 0.000615299)
(4.84496e-05 -4.25975e-07 -6.11007e-06 2.26778e-05 2.91296e-05 0.000611654)
(4.38877e-05 -4.61578e-07 -1.7895e-06 2.30299e-05 2.12561e-05 0.000555051)
(4.37466e-05 -4.19777e-07 -1.49785e-06 2.30774e-05 2.10589e-05 0.000552493)
(4.36293e-05 -4.04969e-07 -1.66785e-06 2.31104e-05 2.10703e-05 0.000551805)
(4.35311e-05 -4.16572e-07 -2.30619e-06 2.31302e-05 2.12909e-05 0.00055296)
(4.83578e-05 1.18074e-07 -2.49337e-06 2.30961e-05 2.8088e-05 0.000572906)
(4.85711e-05 1.37183e-07 -2.50092e-06 2.30706e-05 2.82621e-05 0.000573913)
(4.88879e-05 1.86291e-07 -1.68007e-06 2.30587e-05 2.81994e-05 0.000573319)
(4.93208e-05 2.67335e-07 1.56039e-09 2.30599e-05 2.78974e-05 0.000571101)
(5.43888e-05 2.17268e-06 3.45538e-05 2.3296e-05 1.80883e-05 0.000515625)
(5.48357e-05 2.27114e-06 3.66461e-05 2.32914e-05 1.758e-05 0.000512001)
(5.50108e-05 2.32571e-06 3.78444e-05 2.33059e-05 1.72673e-05 0.000510004)
(5.49083e-05 2.33716e-06 3.81696e-05 2.33414e-05 1.71425e-05 0.000509606)
(5.01202e-05 -4.98474e-07 -7.33179e-06 2.19315e-05 3.01954e-05 0.000633022)
(5.01717e-05 -5.07612e-07 -7.2695e-06 2.18829e-05 3.00919e-05 0.000632232)
(5.00842e-05 -4.88226e-07 -6.91936e-06 2.1894e-05 2.98471e-05 0.000629958)
(4.98604e-05 -4.40803e-07 -6.2771e-06 2.19621e-05 2.94546e-05 0.00062615)
(4.50563e-05 -4.72084e-07 -2.2455e-06 2.22626e-05 2.16186e-05 0.000567253)
(4.48991e-05 -4.30591e-07 -1.95661e-06 2.23079e-05 2.14245e-05 0.000564623)
(4.47786e-05 -4.15384e-07 -2.13016e-06 2.23397e-05 2.14377e-05 0.000563966)
(4.46899e-05 -4.25863e-07 -2.77301e-06 2.23592e-05 2.16587e-05 0.000565256)
(4.97207e-05 8.46198e-08 -2.63121e-06 2.23428e-05 2.84353e-05 0.000587797)
(4.99514e-05 1.04497e-07 -2.61654e-06 2.2318e-05 2.86101e-05 0.000588953)
(5.02785e-05 1.53114e-07 -1.75663e-06 2.23066e-05 2.85483e-05 0.000588395)
(5.07151e-05 2.32386e-07 -1.75651e-08 2.23082e-05 2.82476e-05 0.000586102)
(5.57842e-05 2.1449e-06 3.55505e-05 2.25319e-05 1.84857e-05 0.000527782)
(5.62262e-05 2.24113e-06 3.77034e-05 2.25274e-05 1.79796e-05 0.000523995)
(5.63965e-05 2.29467e-06 3.89321e-05 2.2542e-05 1.76675e-05 0.000521872)
(5.62892e-05 2.3063e-06 3.92577e-05 2.25777e-05 1.75417e-05 0.000521381)
(5.15488e-05 -4.95132e-07 -7.42905e-06 2.12183e-05 3.04415e-05 0.000647737)
(5.16023e-05 -5.04743e-07 -7.37562e-06 2.11686e-05 3.03385e-05 0.000646923)
(5.15045e-05 -4.86141e-07 -7.0314e-06 2.11777e-05 3.00961e-05 0.000644558)
(5.12584e-05 -4.39843e-07 -6.39264e-06 2.12429e-05 2.97077e-05 0.000640591)
(4.6303e-05 -4.84049e-07 -2.69295e-06 2.14965e-05 2.19476e-05 0.000579974)
(4.61312e-05 -4.43167e-07 -2.40752e-06 2.15393e-05 2.17562e-05 0.000577272)
(4.60077e-05 -4.27917e-07 -2.58411e-06 2.15697e-05 2.17705e-05 0.000576651)
(4.59277e-05 -4.37699e-07 -3.22969e-06 2.15889e-05 2.19911e-05 0.000578087)
(5.10808e-05 6.39741e-08 -2.75278e-06 2.15908e-05 2.87314e-05 0.00060337)
(5.1326e-05 8.41645e-08 -2.71509e-06 2.15668e-05 2.89058e-05 0.000604674)
(5.16625e-05 1.3218e-07 -1.81761e-06 2.15564e-05 2.88449e-05 0.000604157)
(5.21038e-05 2.09914e-07 -2.49594e-08 2.1559e-05 2.85462e-05 0.000601801)
(5.72177e-05 2.08954e-06 3.64483e-05 2.17714e-05 1.88821e-05 0.000540805)
(5.76559e-05 2.18364e-06 3.86568e-05 2.17674e-05 1.83799e-05 0.000536867)
(5.78224e-05 2.23583e-06 3.99123e-05 2.17823e-05 1.80705e-05 0.000534629)
(5.77111e-05 2.24686e-06 4.02357e-05 2.18184e-05 1.7946e-05 0.000534052)
(5.29523e-05 -4.85456e-07 -7.51077e-06 2.04939e-05 3.06035e-05 0.000662518)
(5.30093e-05 -4.95485e-07 -7.46665e-06 2.04437e-05 3.05019e-05 0.000661692)
(5.29035e-05 -4.77547e-07 -7.12969e-06 2.04511e-05 3.02627e-05 0.000659243)
(5.2638e-05 -4.32183e-07 -6.4967e-06 2.05133e-05 2.98798e-05 0.00065512)
(4.758e-05 -4.91092e-07 -3.1357e-06 2.07432e-05 2.22089e-05 0.000593324)
(4.73915e-05 -4.51091e-07 -2.85548e-06 2.07835e-05 2.20209e-05 0.000590551)
(4.72599e-05 -4.36261e-07 -3.0359e-06 2.08128e-05 2.20363e-05 0.00058997)
(4.71799e-05 -4.46016e-07 -3.68408e-06 2.08322e-05 2.22556e-05 0.000591557)
(5.23496e-05 4.48771e-08 -2.87598e-06 2.08368e-05 2.8932e-05 0.000619471)
(5.26042e-05 6.46996e-08 -2.81474e-06 2.0814e-05 2.91055e-05 0.000620927)
(5.29492e-05 1.11793e-07 -1.88076e-06 2.08045e-05 2.90452e-05 0.000620457)
(5.33981e-05 1.88014e-07 -3.71829e-08 2.08078e-05 2.87487e-05 0.000618043)
(5.86147e-05 2.02452e-06 3.72946e-05 2.10242e-05 1.92139e-05 0.000554275)
(5.90585e-05 2.11694e-06 3.95564e-05 2.10198e-05 1.87166e-05 0.000550193)
(5.92276e-05 2.16809e-06 4.0838e-05 2.1035e-05 1.84101e-05 0.000547838)
(5.91159e-05 2.17868e-06 4.11604e-05 2.10718e-05 1.82867e-05 0.000547166)
(5.43468e-05 -4.7084e-07 -7.55616e-06 1.97749e-05 3.06756e-05 0.000677294)
(5.44079e-05 -4.81292e-07 -7.52241e-06 1.97247e-05 3.05757e-05 0.000676468)
(5.42956e-05 -4.63913e-07 -7.19426e-06 1.97308e-05 3.03405e-05 0.000673948)
(5.40133e-05 -4.1927e-07 -6.56914e-06 1.97901e-05 2.99636e-05 0.00066968)
(4.88856e-05 -4.94337e-07 -3.56336e-06 2.00029e-05 2.24215e-05 0.000607197)
(4.86792e-05 -4.55306e-07 -3.28871e-06 2.00409e-05 2.22374e-05 0.000604365)
(4.85355e-05 -4.41049e-07 -3.47274e-06 2.00692e-05 2.22542e-05 0.00060383)
(4.84489e-05 -4.51004e-07 -4.12269e-06 2.0089e-05 2.24725e-05 0.000605571)
(5.34928e-05 1.81956e-08 -2.99401e-06 2.00845e-05 2.90446e-05 0.000636045)
(5.37514e-05 3.72844e-08 -2.90885e-06 2.00624e-05 2.92171e-05 0.000637654)
(5.41041e-05 8.31816e-08 -1.93907e-06 2.00532e-05 2.91576e-05 0.00063723)
(5.45645e-05 1.57698e-07 -4.64155e-08 2.00563e-05 2.88637e-05 0.000634756)
(5.9989e-05 1.98322e-06 3.81252e-05 2.0277e-05 1.94487e-05 0.00056825)
(6.04454e-05 2.07399e-06 4.04369e-05 2.02718e-05 1.89572e-05 0.000564023)
(6.0622e-05 2.1247e-06 4.17436e-05 2.02868e-05 1.86535e-05 0.00056155)
(6.0513e-05 2.13611e-06 4.20665e-05 2.03244e-05 1.85299e-05 0.000560781)
(5.57376e-05 -4.54762e-07 -7.52198e-06 1.90637e-05 3.06693e-05 0.000692034)
(5.58033e-05 -4.65812e-07 -7.49924e-06 1.9014e-05 3.05712e-05 0.000691225)
(5.56853e-05 -4.493e-07 -7.1803e-06 1.90189e-05 3.03397e-05 0.000688649)
(5.53872e-05 -4.0583e-07 -6.56321e-06 1.90757e-05 2.99688e-05 0.000684256)
(5.02006e-05 -5.03573e-07 -3.96675e-06 1.92663e-05 2.25732e-05 0.000621339)
(4.99751e-05 -4.6569e-07 -3.6975e-06 1.9302e-05 2.2393e-05 0.000618471)
(4.98169e-05 -4.52004e-07 -3.88492e-06 1.9329e-05 2.2411e-05 0.000617993)
(4.97196e-05 -4.61974e-07 -4.53642e-06 1.93485e-05 2.2628e-05 0.000619885)
(5.45548e-05 -1.43775e-08 -3.07245e-06 1.93348e-05 2.90942e-05 0.00065298)
(5.48138e-05 4.3047e-09 -2.96409e-06 1.93129e-05 2.9266e-05 0.000654739)
(5.51737e-05 4.92312e-08 -1.96053e-06 1.93033e-05 2.92083e-05 0.000654355)
(5.56484e-05 1.22174e-07 -2.21994e-08 1.93057e-05 2.89185e-05 0.000651811)
(6.13519e-05 1.94592e-06 3.89747e-05 1.95204e-05 1.96283e-05 0.000582531)
(6.18249e-05 2.03486e-06 4.13322e-05 1.95142e-05 1.91439e-05 0.000578154)
(6.2012e-05 2.0851e-06 4.26627e-05 1.95289e-05 1.88438e-05 0.000575558)
(6.19075e-05 2.09745e-06 4.29877e-05 1.95667e-05 1.87203e-05 0.000574687)
(5.71078e-05 -4.44016e-07 -7.38667e-06 1.83498e-05 3.05814e-05 0.000706838)
(5.71789e-05 -4.55789e-07 -7.37501e-06 1.83008e-05 3.04859e-05 0.000706053)
(5.70557e-05 -4.40674e-07 -7.0648e-06 1.83049e-05 3.02586e-05 0.000703435)
(5.67421e-05 -3.99316e-07 -6.45477e-06 1.83594e-05 2.98935e-05 0.000698934)
(5.15077e-05 -5.24126e-07 -4.32026e-06 1.85343e-05 2.26888e-05 0.000635967)
(5.12619e-05 -4.87956e-07 -4.05609e-06 1.85678e-05 2.25109e-05 0.000633081)
(5.10869e-05 -4.75096e-07 -4.24661e-06 1.85935e-05 2.25294e-05 0.000632671)
(5.0976e-05 -4.85037e-07 -4.89933e-06 1.86125e-05 2.27448e-05 0.000634719)
(5.55552e-05 -4.78651e-08 -3.06797e-06 1.85894e-05 2.90897e-05 0.000670167)
(5.5812e-05 -2.89621e-08 -2.93799e-06 1.85676e-05 2.92606e-05 0.000672075)
(5.61788e-05 1.56102e-08 -1.90405e-06 1.85577e-05 2.92051e-05 0.000671726)
(5.66701e-05 8.76102e-08 7.46597e-08 1.85596e-05 2.8921e-05 0.000669105)
(6.27106e-05 1.88549e-06 3.98289e-05 1.87774e-05 1.97453e-05 0.000597088)
(6.3203e-05 1.9729e-06 4.22269e-05 1.87707e-05 1.92691e-05 0.00059256)
(6.34027e-05 2.02235e-06 4.35786e-05 1.87854e-05 1.8973e-05 0.000589835)
(6.33044e-05 2.03464e-06 4.39056e-05 1.88237e-05 1.88492e-05 0.000588852)
(5.84478e-05 -4.32626e-07 -7.17588e-06 1.76256e-05 3.04217e-05 0.000721729)
(5.85249e-05 -4.45255e-07 -7.17495e-06 1.75773e-05 3.03293e-05 0.000720972)
(5.83969e-05 -4.31843e-07 -6.87347e-06 1.75808e-05 3.01069e-05 0.00071832)
(5.8068e-05 -3.93091e-07 -6.27081e-06 1.76334e-05 2.97486e-05 0.000713723)
(5.28187e-05 -5.56331e-07 -4.61837e-06 1.77994e-05 2.27555e-05 0.000651274)
(5.25505e-05 -5.22343e-07 -4.35766e-06 1.78314e-05 2.25803e-05 0.000648376)
(5.23563e-05 -5.10533e-07 -4.54962e-06 1.78563e-05 2.25991e-05 0.000648041)
(5.22284e-05 -5.20433e-07 -5.20181e-06 1.7875e-05 2.28128e-05 0.000650255)