0 	0 	0 	0
5.01672e-05 	-0.0019123 	-4.62179e-06 	0.0175325
0.000100334 	-0.00245558 	-1.05772e-05 	0.0334114
0.000150502 	-0.00247939 	-1.8296e-05 	0.0482278
0.000200669 	-0.00256107 	-2.61485e-05 	0.0621099
0.000250836 	-0.00271942 	-3.49251e-05 	0.0750243
0.000301003 	-0.00287861 	-4.42827e-05 	0.086993
0.000351171 	-0.00301295 	-5.4223e-05 	0.0980645
0.000401338 	-0.00311469 	-6.45572e-05 	0.10828
0.000451505 	-0.0031837 	-7.49379e-05 	0.117675
0.000501672 	-0.00322376 	-8.53799e-05 	0.126289
0.000551839 	-0.0032401 	-9.63103e-05 	0.134177
0.000602007 	-0.00323811 	-0.000107814 	0.141403
0.000652174 	-0.00322289 	-0.000119451 	0.148038
0.000702341 	-0.00319888 	-0.000130792 	0.154144
0.000752508 	-0.00316974 	-0.000141738 	0.159778
0.000802676 	-0.00313845 	-0.00015238 	0.164984
0.000852843 	-0.00310713 	-0.000162716 	0.169747
0.00090301 	-0.00307659 	-0.000172785 	0.174172
0.000953177 	-0.0030468 	-0.000182626 	0.178296
0.00100334 	-0.00301745 	-0.000192257 	0.18215
0.00105351 	-0.00298811 	-0.000201683 	0.185761
0.00110368 	-0.00295829 	-0.000210894 	0.18915
0.00115385 	-0.00292681 	-0.000219775 	0.192287
0.00120401 	-0.00289343 	-0.000228346 	0.195257
0.00125418 	-0.00285798 	-0.000236605 	0.198075
0.00130435 	-0.0028204 	-0.000244572 	0.200757
0.00135452 	-0.00278008 	-0.000252277 	0.203278
0.00140468 	-0.00273772 	-0.000259923 	0.205676
0.00145485 	-0.00269393 	-0.000267552 	0.207979
0.00150502 	-0.00264891 	-0.000275176 	0.210196
0.00155518 	-0.00260249 	-0.000282577 	0.212288
0.00160535 	-0.00255549 	-0.000289551 	0.214308
0.00165552 	-0.00250806 	-0.000296143 	0.216263
0.00170569 	-0.00246026 	-0.000302201 	0.218132
0.00175585 	-0.00241244 	-0.000308175 	0.21993
0.00180602 	-0.00236466 	-0.000314127 	0.221681
0.00185619 	-0.00231706 	-0.000320116 	0.223364
0.00190635 	-0.00226973 	-0.000325883 	0.224989
0.00195652 	-0.0022226 	-0.000331426 	0.226579
0.00200669 	-0.00217588 	-0.000336326 	0.228107
0.00205686 	-0.00212953 	-0.000340743 	0.229594
0.00210702 	-0.00208342 	-0.000344842 	0.231053
0.00215719 	-0.00203813 	-0.000348497 	0.23245
0.00220736 	-0.00199324 	-0.000352041 	0.233824
0.00225753 	-0.001949 	-0.000355406 	0.235163
0.00230769 	-0.00190571 	-0.000358568 	0.236462
0.00235786 	-0.00186283 	-0.000361643 	0.237745
0.00240803 	-0.00182146 	-0.000364456 	0.238978
0.00245819 	-0.0017807 	-0.000367153 	0.240196
0.00250836 	-0.00174121 	-0.000369615 	0.24138
0.00255853 	-0.00170303 	-0.000371524 	0.242535
0.0026087 	-0.00166578 	-0.000373041 	0.243671
0.00265886 	-0.00163062 	-0.000374511 	0.244766
0.00270903 	-0.00159595 	-0.00037597 	0.245851
0.0027592 	-0.00156322 	-0.000379576 	0.246899
0.00280936 	-0.00153041 	-0.000383232 	0.247948
0.00285953 	-0.00149716 	-0.000387146 	0.249004
0.0029097 	-0.00146332 	-0.00038976 	0.250084
0.00295987 	-0.00142794 	-0.000389101 	0.251222
0.00301003 	-0.00139231 	-0.000386063 	0.252406
0.0030602 	-0.00135624 	-0.000379085 	0.253666
0.00311037 	-0.00132198 	-0.000372608 	0.254923
0.00316054 	-0.00129008 	-0.000366779 	0.256178
0.0032107 	-0.00126202 	-0.000365218 	0.257334
0.00326087 	-0.00123852 	-0.00036871 	0.258372
0.00331104 	-0.00121784 	-0.000373468 	0.259311
0.0033612 	-0.00120066 	-0.0003798 	0.260126
0.00341137 	-0.00118435 	-0.000383664 	0.26091
0.00346154 	-0.00116935 	-0.000383785 	0.261648
0.00351171 	-0.00115455 	-0.00038231 	0.262386
0.00356187 	-0.00114017 	-0.000377323 	0.263127
0.00361204 	-0.00112592 	-0.000372332 	0.263867
0.00366221 	-0.00111222 	-0.000367321 	0.264603
0.00371237 	-0.00109856 	-0.000362376 	0.265339
0.00376254 	-0.00108622 	-0.000359587 	0.266048
0.00381271 	-0.00107387 	-0.000356798 	0.266756
0.00386288 	-0.00106278 	-0.000354502 	0.267437
0.00391304 	-0.00105194 	-0.000352306 	0.268112
0.00396321 	-0.00104185 	-0.000349708 	0.268769
0.00401338 	-0.00103227 	-0.000346832 	0.269414
0.00406355 	-0.001023 	-0.000343816 	0.27005
0.00411371 	-0.0010144 	-0.000340492 	0.270666
0.00416388 	-0.0010058 	-0.000337167 	0.271283
0.00421405 	-0.000997889 	-0.000333939 	0.271873
0.00426421 	-0.000989983 	-0.000330712 	0.272463
0.00431438 	-0.000982495 	-0.000327749 	0.273036
0.00436455 	-0.000975249 	-0.000324939 	0.2736
0.00441472 	-0.000968179 	-0.00032212 	0.274158
0.00446488 	-0.000961703 	-0.000319271 	0.274696
0.00451505 	-0.000955227 	-0.000316422 	0.275235
0.00456522 	-0.000949292 	-0.000313065 	0.275755
0.00461538 	-0.000943508 	-0.000309567 	0.276271
0.00466555 	-0.000937845 	-0.000306181 	0.27678
0.00471572 	-0.000932477 	-0.000303068 	0.277276
0.00476589 	-0.000927109 	-0.000299955 	0.277771
0.00481605 	-0.000922204 	-0.000298512 	0.278249
0.00486622 	-0.000917449 	-0.000297607 	0.278722
0.00491639 	-0.00091301 	-0.000296861 	0.279189
0.00496656 	-0.00091005 	-0.000296856 	0.279634
0.00501672 	-0.000907091 	-0.000296852 	0.280078
0.00506689 	-0.000905906 	-0.000295348 	0.280506
0.00511706 	-0.000906179 	-0.000292611 	0.280919
0.00516722 	-0.000906453 	-0.000289874 	0.281332
0.00521739 	-0.000909814 	-0.000284583 	0.281719
0.00526756 	-0.000913617 	-0.000278928 	0.282101
0.00531773 	-0.000917854 	-0.000273339 	0.282479
0.00536789 	-0.000924499 	-0.000268115 	0.282829
0.00541806 	-0.000931143 	-0.000262891 	0.28318
0.00546823 	-0.00093875 	-0.000258228 	0.283518
0.00551839 	-0.000947911 	-0.000254471 	0.283834
0.00556856 	-0.000957072 	-0.000250714 	0.284151
0.00561873 	-0.000967698 	-0.000246981 	0.284447
0.0056689 	-0.000979466 	-0.000243266 	0.284726
0.00571906 	-0.000991234 	-0.000239552 	0.285006
0.00576923 	-0.00100471 	-0.000235636 	0.28526
0.0058194 	-0.00101894 	-0.00023163 	0.285502
0.00586957 	-0.00103318 	-0.000227624 	0.285745
0.00591973 	-0.00104905 	-0.000223617 	0.285958
0.0059699 	-0.00106541 	-0.00021961 	0.286164
0.00602007 	-0.00108177 	-0.000215603 	0.286369
0.00607023 	-0.00109959 	-0.000211592 	0.286545
0.0061204 	-0.00111778 	-0.00020758 	0.286713
0.00617057 	-0.00113598 	-0.000203567 	0.286881
0.00622074 	-0.00115543 	-0.000199544 	0.287021
0.0062709 	-0.00117528 	-0.000195517 	0.287153
0.00632107 	-0.00119512 	-0.00019149 	0.287284
0.00637124 	-0.00121601 	-0.000187467 	0.28739
0.0064214 	-0.00123739 	-0.000183445 	0.287485
0.00647157 	-0.00125876 	-0.000179423 	0.287579
0.00652174 	-0.00128092 	-0.000175428 	0.287653
0.00657191 	-0.00130373 	-0.000171454 	0.287711
0.00662207 	-0.00132654 	-0.00016748 	0.287769
0.00667224 	-0.00134981 	-0.000163543 	0.287813
0.00672241 	-0.00137395 	-0.000159675 	0.287834
0.00677258 	-0.0013981 	-0.000155808 	0.287855
0.00682274 	-0.00142236 	-0.000151943 	0.287873
0.00687291 	-0.00144772 	-0.000148108 	0.287858
0.00692308 	-0.00147309 	-0.000144272 	0.287843
0.00697324 	-0.00149845 	-0.000140437 	0.287829
0.00702341 	-0.00152474 	-0.000137159 	0.287787
0.00707358 	-0.00155128 	-0.00013403 	0.287737
0.00712375 	-0.00157781 	-0.000130901 	0.287688
0.00717391 	-0.0016049 	-0.000128059 	0.287624
0.00722408 	-0.00163276 	-0.000125614 	0.287538
0.00727425 	-0.00166061 	-0.000123168 	0.287453
0.00732441 	-0.00168847 	-0.000120723 	0.287368
0.00737458 	-0.00171681 	-0.000117287 	0.287241
0.00742475 	-0.00174517 	-0.000113843 	0.287115
0.00747492 	-0.00177352 	-0.000110398 	0.286988
0.00752508 	-0.00180157 	-0.000106655 	0.28684
0.00757525 	-0.00182931 	-0.000102614 	0.28667
0.00762542 	-0.00185706 	-9.85726e-05 	0.2865
0.00767559 	-0.0018848 	-9.45351e-05 	0.286329
0.00772575 	-0.00191238 	-9.0928e-05 	0.28612
0.00777592 	-0.00193995 	-8.73208e-05 	0.285911
0.00782609 	-0.00196753 	-8.37137e-05 	0.285702
0.00787625 	-0.00199544 	-8.01114e-05 	0.285476
0.00792642 	-0.0020236 	-7.65127e-05 	0.285237
0.00797659 	-0.00205177 	-7.2914e-05 	0.284999
0.00802676 	-0.00207998 	-6.86673e-05 	0.284754
0.00807692 	-0.00210836 	-6.19908e-05 	0.284489
0.00812709 	-0.00213674 	-5.53142e-05 	0.284224
0.00817726 	-0.00216513 	-4.86377e-05 	0.283959
0.00822742 	-0.00219193 	-3.91353e-05 	0.283671
0.00827759 	-0.00221856 	-2.93219e-05 	0.283381
0.00832776 	-0.00224519 	-1.95085e-05 	0.283091
0.00837793 	-0.00226829 	-1.19882e-05 	0.282791
0.00842809 	-0.0022895 	-5.7056e-06 	0.282486
0.00847826 	-0.0023107 	5.76993e-07 	0.282181
0.00852843 	-0.00232762 	3.6113e-06 	0.281878
0.0085786 	-0.0023394 	2.75997e-06 	0.281578
0.00862876 	-0.00235118 	1.90864e-06 	0.281278
0.00867893 	-0.00235983 	-8.28669e-07 	0.280972
0.0087291 	-0.00236174 	-7.62045e-06 	0.280654
0.00877926 	-0.00236366 	-1.44122e-05 	0.280336
0.00882943 	-0.00236535 	-2.11128e-05 	0.279981
0.0088796 	-0.00236628 	-2.75165e-05 	0.279505
0.00892977 	-0.00236722 	-3.39202e-05 	0.279029
0.00897993 	-0.0023703 	-3.75527e-05 	0.278497
0.0090301 	-0.00238165 	-3.05454e-05 	0.277751
0.00908027 	-0.00239299 	-2.35382e-05 	0.277004
0.00913043 	-0.00240473 	-1.47975e-05 	0.276245
0.0091806 	-0.00241775 	-3.09166e-07 	0.275448
0.00923077 	-0.00243077 	1.41791e-05 	0.274651
0.00928094 	-0.00243989 	2.54628e-05 	0.273907
0.0093311 	-0.00244031 	2.95866e-05 	0.273279
0.00938127 	-0.00244072 	3.37105e-05 	0.272651
0.00943144 	-0.00243602 	3.48973e-05 	0.272073
0.00948161 	-0.00242475 	3.23183e-05 	0.271558
0.00953177 	-0.00241349 	2.97392e-05 	0.271044
0.00958194 	-0.00239851 	2.89067e-05 	0.270545
0.00963211 	-0.00238123 	2.9155e-05 	0.270057
0.00968227 	-0.00236395 	2.94034e-05 	0.269568
0.00973244 	-0.00234482 	3.26161e-05 	0.269056
0.00978261 	-0.00232536 	3.63645e-05 	0.268541
0.00983278 	-0.00230568 	4.05738e-05 	0.268022
0.00988294 	-0.00228442 	4.80102e-05 	0.267479
0.00993311 	-0.00226316 	5.54466e-05 	0.266936
0.00998328 	-0.00224038 	6.32524e-05 	0.266398
0.0100334 	-0.00221574 	7.15082e-05 	0.265865
0.0100836 	-0.00219111 	7.9764e-05 	0.265332
0.0101338 	-0.00216143 	8.05713e-05 	0.264815
0.0101839 	-0.00213067 	7.97881e-05 	0.264302
0.0102341 	-0.00209892 	7.67007e-05 	0.263762
0.0102843 	-0.00206409 	6.64512e-05 	0.263138
0.0103344 	-0.00202926 	5.62016e-05 	0.262514
0.0103846 	-0.00200006 	5.70163e-05 	0.261658
0.0104348 	-0.00197318 	6.2389e-05 	0.260707
0.0104849 	-0.00194812 	7.12772e-05 	0.259719
0.0105351 	-0.00192961 	9.27966e-05 	0.2586
0.0105853 	-0.0019111 	0.000114316 	0.25748
0.0106355 	-0.00188805 	0.000126469 	0.256475
0.0106856 	-0.00186365 	0.00013584 	0.255503
0.0107358 	-0.00183583 	0.000140427 	0.25459
0.010786 	-0.00180211 	0.000136779 	0.253777
0.0108361 	-0.00176837 	0.000133138 	0.252963
0.0108863 	-0.00173127 	0.000130551 	0.252207
0.0109365 	-0.00169417 	0.000127965 	0.25145
0.0109866 	-0.00165715 	0.000129149 	0.250677
0.0110368 	-0.00162018 	0.000132055 	0.249897
0.011087 	-0.00158325 	0.000135292 	0.249098
0.0111371 	-0.00154637 	0.00013901 	0.248271
0.0111873 	-0.00150948 	0.000142544 	0.247437
0.0112375 	-0.00147252 	0.000145171 	0.246568
0.0112876 	-0.00143555 	0.000147797 	0.245698
0.0113378 	-0.0013984 	0.000150307 	0.244788
0.011388 	-0.00136123 	0.000152813 	0.243876
0.0114381 	-0.0013238 	0.00015531 	0.242931
0.0114883 	-0.0012863 	0.000157804 	0.241977
0.0115385 	-0.00124849 	0.000160352 	0.240994
0.0115886 	-0.00121054 	0.000162924 	0.239998
0.0116388 	-0.0011723 	0.000165743 	0.238976
0.011689 	-0.00113388 	0.000168725 	0.237937
0.0117391 	-0.00109522 	0.00017201 	0.236874
0.0117893 	-0.00105638 	0.000175538 	0.23579
0.0118395 	-0.00101745 	0.000179172 	0.234681
0.0118896 	-0.000978438 	0.000182893 	0.23355
0.0119398 	-0.00093958 	0.000186604 	0.232391
0.01199 	-0.000900838 	0.000190306 	0.23121
0.0120401 	-0.000862563 	0.00019357 	0.229996
0.0120903 	-0.00082457 	0.00019657 	0.228763
0.0121405 	-0.000787608 	0.000198534 	0.227489
0.0121906 	-0.000751056 	0.000200087 	0.226199
0.0122408 	-0.000716676 	0.000201327 	0.22486
0.012291 	-0.000682707 	0.000202509 	0.22351
0.0123411 	-0.000652452 	0.000204521 	0.222099
0.0123913 	-0.000622979 	0.000206769 	0.220675
0.0124415 	-0.000596795 	0.000210013 	0.219197
0.0124916 	-0.000572002 	0.000213352 	0.217691
0.0125418 	-0.00054917 	0.000216826 	0.216145
0.012592 	-0.000528223 	0.000219193 	0.214552
0.0126421 	-0.000508205 	0.000221015 	0.212936
0.0126923 	-0.000491712 	0.000220967 	0.211261
0.0127425 	-0.000476645 	0.000220547 	0.209567
0.0127926 	-0.000464975 	0.000219359 	0.207826
0.0128428 	-0.000455993 	0.000218782 	0.206024
0.012893 	-0.000448692 	0.000218586 	0.204182
0.0129431 	-0.000444283 	0.000221638 	0.202184
0.0129933 	-0.000440064 	0.000225623 	0.200117
0.0130435 	-0.000436092 	0.000231 	0.197944
0.0130936 	-0.000430135 	0.000234768 	0.195665
0.0131438 	-0.00042282 	0.000237061 	0.193337
0.013194 	-0.000413134 	0.000236486 	0.190942
0.0132441 	-0.000402164 	0.000234415 	0.188471
0.0132943 	-0.000390754 	0.00023201 	0.18594
0.0133445 	-0.00037921 	0.000229905 	0.183317
0.0133946 	-0.000367826 	0.000228137 	0.18057
0.0134448 	-0.000356835 	0.000226161 	0.177731
0.013495 	-0.000346418 	0.000223733 	0.174788
0.0135452 	-0.000337856 	0.00022116 	0.171671
0.0135953 	-0.000330714 	0.000219071 	0.168433
0.0136455 	-0.000324991 	0.00021724 	0.165062
0.0136957 	-0.000320827 	0.000215126 	0.16152
0.0137458 	-0.000317681 	0.000211609 	0.157754
0.013796 	-0.000314871 	0.000206821 	0.153799
0.0138462 	-0.000312269 	0.00020081 	0.149641
0.0138963 	-0.000309813 	0.000193757 	0.145265
0.0139465 	-0.000307913 	0.000186652 	0.140584
0.0139967 	-0.000306923 	0.000179317 	0.13565
0.0140468 	-0.000307203 	0.00017117 	0.13045
0.014097 	-0.000309148 	0.000161908 	0.124962
0.0141472 	-0.000313315 	0.000151427 	0.119162
0.0141973 	-0.000320721 	0.000139588 	0.113025
0.0142475 	-0.000335607 	0.000126412 	0.10647
0.0142977 	-0.000360626 	0.000113172 	0.0995356
0.0143478 	-0.000395858 	0.000100751 	0.092214
0.014398 	-0.000436659 	8.92577e-05 	0.0845094
0.0144482 	-0.00047282 	7.81812e-05 	0.0764592
0.0144983 	-0.000491089 	6.72463e-05 	0.0681443
0.0145485 	-0.000480484 	5.68123e-05 	0.0596914
0.0145987 	-0.000437367 	4.73641e-05 	0.0512629
0.0146488 	-0.000368331 	3.91242e-05 	0.0430338
0.014699 	-0.000291513 	3.21664e-05 	0.0351621
0.0147492 	-0.000237225 	2.63979e-05 	0.0277677
0.0147993 	-0.000251243 	2.16974e-05 	0.0209329
0.0148495 	-0.000406269 	1.65801e-05 	0.0147334
0.0148997 	-0.000665896 	1.09233e-05 	0.00924385
0.0149498 	-0.000651281 	5.83087e-06 	0.0044127
0.015 	0 	0 	0
