/*--------------------------------*- C++ -*----------------------------------*\
| =========                 |                                                 |
| \\      /  F ield         | OpenFOAM: The Open Source CFD Toolbox           |
|  \\    /   O peration     | Version:  v1912                                 |
|   \\  /    A nd           | Website:  www.openfoam.com                      |
|    \\/     M anipulation  |                                                 |
\*---------------------------------------------------------------------------*/
FoamFile
{
    version     2.0;
    format      ascii;
    class       volScalarField;
    location    "200";
    object      k;
}
// * * * * * * * * * * * * * * * * * * * * * * * * * * * * * * * * * * * * * //

dimensions      [0 2 -2 0 0 0 0];


internalField   nonuniform List<scalar> 
10147
(
0.000325772
0.000277167
0.00023817
0.000232981
0.000235943
0.00023761
0.000238176
0.000238293
0.0002384
0.000238277
0.000238157
0.000237611
0.000235996
0.000233117
0.000238311
0.000277103
0.00024157
0.000239878
0.000239763
0.000240135
0.000240248
0.000240156
0.0002398
0.000239911
0.000241586
0.00024527
0.000249755
0.000245269
0.000242169
0.000241561
0.000239536
0.000236187
0.000240716
0.000280681
0.000243809
0.000316587
0.000273416
0.000240059
0.000236001
0.000238607
0.000239468
0.00023942
0.000239108
0.000239127
0.00023911
0.000239434
0.000239507
0.000238698
0.000236174
0.000240242
0.000273394
0.000308499
0.000270617
0.000242729
0.000239889
0.000242231
0.000242358
0.000241736
0.000241016
0.000240953
0.000241036
0.000241781
0.000242434
0.000242356
0.000240098
0.000242952
0.000270637
0.000301593
0.000268816
0.000246156
0.000244581
0.000246742
0.000246216
0.000245063
0.000243964
0.000243825
0.000244
0.000245136
0.000246324
0.000246899
0.000244822
0.000246418
0.000268877
0.00029587
0.000268019
0.00025033
0.000250035
0.00025209
0.000250984
0.000249348
0.000247898
0.000247692
0.000247949
0.000249447
0.000251123
0.000252276
0.000250306
0.000250626
0.000268121
0.000291331
0.000268227
0.000255233
0.000256212
0.000258223
0.000256609
0.000254534
0.000252764
0.000252498
0.000252829
0.000254658
0.000256775
0.000258435
0.000256509
0.000255563
0.000268367
0.000287974
0.000269431
0.000260847
0.000263072
0.000265091
0.000263034
0.000260565
0.000258505
0.000258188
0.000258583
0.000260711
0.000263226
0.000265326
0.000263393
0.000261207
0.000269609
0.000285794
0.000271619
0.000267148
0.000270575
0.000272646
0.000270206
0.000267385
0.000265064
0.000264703
0.000265155
0.000267551
0.00027042
0.000272901
0.000270917
0.000267537
0.000271834
0.000284782
0.000274771
0.000274112
0.000278667
0.000280824
0.000278064
0.000274937
0.000272385
0.000271989
0.000272487
0.000275122
0.000278297
0.000281096
0.000279028
0.000274526
0.000275019
0.000284923
0.000278858
0.000281704
0.000287286
0.000289552
0.000286534
0.000283149
0.000280399
0.000279975
0.00028051
0.000283348
0.000286783
0.000289839
0.000287662
0.000282141
0.000279138
0.000286195
0.000283847
0.000289876
0.000296379
0.000298771
0.000295542
0.00029194
0.000289023
0.000288579
0.000289143
0.000292153
0.000295806
0.00029907
0.000296769
0.000290332
0.000284158
0.000288572
0.000289702
0.000298577
0.000305908
0.000308437
0.000305036
0.000301249
0.000298191
0.000297733
0.000298317
0.000301474
0.000305311
0.000308747
0.00030631
0.00029905
0.00029004
0.000292016
0.00029638
0.000307767
0.000315842
0.000318514
0.000314972
0.00031103
0.00030785
0.000307384
0.000307983
0.000311265
0.000315258
0.000318834
0.000316253
0.000308255
0.000296743
0.000296489
0.000303834
0.000317412
0.00032615
0.00032897
0.000325314
0.000321243
0.000317961
0.000317492
0.0003181
0.000321487
0.00032561
0.000329297
0.00032657
0.000317913
0.00030422
0.000301945
0.000312008
0.000327481
0.000336806
0.000339773
0.00033603
0.000331853
0.000328487
0.000328019
0.00032863
0.000332105
0.000336334
0.000340108
0.000337234
0.000327994
0.000312414
0.000308335
0.00032084
0.000337947
0.000347785
0.000350898
0.000347089
0.000342828
0.000339394
0.000338933
0.000339542
0.000343087
0.0003474
0.000351238
0.000348218
0.000338469
0.000321262
0.000315608
0.000330271
0.000348782
0.00035906
0.000362317
0.000358462
0.000354139
0.000350651
0.000350201
0.000350804
0.000354405
0.00035878
0.000362661
0.000359499
0.000349312
0.000330708
0.000323705
0.000340253
0.000359959
0.00037061
0.000374005
0.000370123
0.000365759
0.000362232
0.000361797
0.000362388
0.00036603
0.000370446
0.000374354
0.000371052
0.000360494
0.000340702
0.000332559
0.00035074
0.000371451
0.000382409
0.000385939
0.000382046
0.000377659
0.000374106
0.00037369
0.000374266
0.000377936
0.000382374
0.000386291
0.000382853
0.00037199
0.0003512
0.000342099
0.00036169
0.00038323
0.000394433
0.000398094
0.000394205
0.000389813
0.000386248
0.000385855
0.00038641
0.000390095
0.000394537
0.000398447
0.000394879
0.000383772
0.000362159
0.00035226
0.000373059
0.000395268
0.000406656
0.000410442
0.000406571
0.000402192
0.000398626
0.000398259
0.000398791
0.000402478
0.000406907
0.000410798
0.000407104
0.000395811
0.000373535
0.000362977
0.000384801
0.00040753
0.000419049
0.000422971
0.000419111
0.000414761
0.000411205
0.000410867
0.000411373
0.00041505
0.00041945
0.000423328
0.000419497
0.000408073
0.000385282
0.000374185
0.000396862
0.000419977
0.000431617
0.000435704
0.000431838
0.000427512
0.000423965
0.000423656
0.000424136
0.000427805
0.000432181
0.000436062
0.000432064
0.000420519
0.000397346
0.000385814
0.000409182
0.000432599
0.000444379
0.00044864
0.000444776
0.000440463
0.000436921
0.000436639
0.000437094
0.00044076
0.000445122
0.000448999
0.000444825
0.000433139
0.000409668
0.000397793
0.000421696
0.000445401
0.00045728
0.000461694
0.000457852
0.000453569
0.000450046
0.000449794
0.000450222
0.000453869
0.0004582
0.000462053
0.000457724
0.00044594
0.000422183
0.000410044
0.000434332
0.000458323
0.000470216
0.000474752
0.000470951
0.000466722
0.000463237
0.000463019
0.000463415
0.000467025
0.000471301
0.00047511
0.000470657
0.000458858
0.000434818
0.000422487
0.000447013
0.000471254
0.000483074
0.0004877
0.000483956
0.000479804
0.000476375
0.000476194
0.000476554
0.000480109
0.000484307
0.000488058
0.000483513
0.000471786
0.000447496
0.000435036
0.000459651
0.000484062
0.00049573
0.000500416
0.00049674
0.000492682
0.000489323
0.000489181
0.000489503
0.000492989
0.000497092
0.000500774
0.000496166
0.000484588
0.00046013
0.000447606
0.000472169
0.000496615
0.000508067
0.000512786
0.000509188
0.000505238
0.00050196
0.000501856
0.00050214
0.000505546
0.000509541
0.000513145
0.0005085
0.000497135
0.000472644
0.000460118
0.000484516
0.000508813
0.000519984
0.000524715
0.000521202
0.000517371
0.000514189
0.000514122
0.000514369
0.00051768
0.000521557
0.000525075
0.000520415
0.000509325
0.000484986
0.000472512
0.000496637
0.000520602
0.000531435
0.000536155
0.000532741
0.000529045
0.000525969
0.000525938
0.00052615
0.000529354
0.000533098
0.000536517
0.000531864
0.000521107
0.0004971
0.000484742
0.00050846
0.000531951
0.000542403
0.000547092
0.00054379
0.000540238
0.000537281
0.000537283
0.000537462
0.000540548
0.000544149
0.000547456
0.00054283
0.000532447
0.000508915
0.000496744
0.00051991
0.000542831
0.00055287
0.000557513
0.000554332
0.000550935
0.000548102
0.000548136
0.000548283
0.000551245
0.000554693
0.00055788
0.000553296
0.000543319
0.000520356
0.000508436
0.00053092
0.000553206
0.000562812
0.000567397
0.000564344
0.000561106
0.000558404
0.000558467
0.000558585
0.000561418
0.000564707
0.000567766
0.000563235
0.000553686
0.000531356
0.000519734
0.000541425
0.000563033
0.000572192
0.00057671
0.000573792
0.000570717
0.000568149
0.000568239
0.00056833
0.000571029
0.000574157
0.000577082
0.000572614
0.000563503
0.00054185
0.000530556
0.000551365
0.00057226
0.000580976
0.000585422
0.000582641
0.000579732
0.000577298
0.000577414
0.000577479
0.000580045
0.000583009
0.000585797
0.000581396
0.000572722
0.000551779
0.00054082
0.000560687
0.000580839
0.000589122
0.00059349
0.00059085
0.00058811
0.000585811
0.00058595
0.000585992
0.000588424
0.000591221
0.000593869
0.000589541
0.000581292
0.000561088
0.000550451
0.000569335
0.000588721
0.000596571
0.00060085
0.000598358
0.00059579
0.000593632
0.000593791
0.000593812
0.000596104
0.000598732
0.000601232
0.000596989
0.000589166
0.000569724
0.00055938
0.000577242
0.000595851
0.000603252
0.000607429
0.000605094
0.0006027
0.000600688
0.000600865
0.000600867
0.000603015
0.00060547
0.000607815
0.000603669
0.000596286
0.000577619
0.000567544
0.00058433
0.000602148
0.000609089
0.000613153
0.000610981
0.000608764
0.000606902
0.000607094
0.000607081
0.000609079
0.00061136
0.000613543
0.000609505
0.000602573
0.000584693
0.000574872
0.000590517
0.00060753
0.000614004
0.000617944
0.000615943
0.000613903
0.000612196
0.000612399
0.000612374
0.000614218
0.000616323
0.000618338
0.000614418
0.000607945
0.000590866
0.000581272
0.000595718
0.000611912
0.000617916
0.000621722
0.000619898
0.000618037
0.000616487
0.000616698
0.000616664
0.000618352
0.00062028
0.000622119
0.000618328
0.000612317
0.000596052
0.000586651
0.000599845
0.000615209
0.000620743
0.000624403
0.000622764
0.000621081
0.000619691
0.000619907
0.000619868
0.000621396
0.000623148
0.000624804
0.000621153
0.000615604
0.000600164
0.000590915
0.000602812
0.000617334
0.000622401
0.000625907
0.000624458
0.000622954
0.000621726
0.000621943
0.000621902
0.000623268
0.000624845
0.000626311
0.000622809
0.000617719
0.000603115
0.00059397
0.000604532
0.000618205
0.000622809
0.000626152
0.000624901
0.000623572
0.000622508
0.000622722
0.000622682
0.000623885
0.000625288
0.000626559
0.000623215
0.000618578
0.00060482
0.000595725
0.000604923
0.000617738
0.000621889
0.00062506
0.000624011
0.000622857
0.000621956
0.000622164
0.000622129
0.000623169
0.0006244
0.000625471
0.000622293
0.000618101
0.000605194
0.000596092
0.000603904
0.000615857
0.000619565
0.000622556
0.000621716
0.000620731
0.000619995
0.000620193
0.000620167
0.000621042
0.000622106
0.00062297
0.000619967
0.000616208
0.000604159
0.000594986
0.0006014
0.000612488
0.000615767
0.000618571
0.000617943
0.000617124
0.000616552
0.000616736
0.000616722
0.000617433
0.000618334
0.000618987
0.000616166
0.000612828
0.000601638
0.000592328
0.00059734
0.000607565
0.000610429
0.00061304
0.000612628
0.00061197
0.00061156
0.000611728
0.000611729
0.000612277
0.000613019
0.000613459
0.000610825
0.000607894
0.000597561
0.000588047
0.000591661
0.000601027
0.000603494
0.000605907
0.000605712
0.000605208
0.00060496
0.000605107
0.000605127
0.000605513
0.000606103
0.000606328
0.000603886
0.000601344
0.000591866
0.000582074
0.000584307
0.000592822
0.000594909
0.000597122
0.000597144
0.000596789
0.000596698
0.000596822
0.000596863
0.000597091
0.000597535
0.000597544
0.000595298
0.000593128
0.000584495
0.000574353
0.000575228
0.000582905
0.000584633
0.000586642
0.000586881
0.000586666
0.00058673
0.000586828
0.000586893
0.000586966
0.00058727
0.000587065
0.000585018
0.000583199
0.0005754
0.000564831
0.000564384
0.00057124
0.000572629
0.000574434
0.000574887
0.000574804
0.000575019
0.000575088
0.000575179
0.000575101
0.000575276
0.000574858
0.00057301
0.000571522
0.000564539
0.000553464
0.000551741
0.000557799
0.000558872
0.000560475
0.000561136
0.000561177
0.000561536
0.000561575
0.000561694
0.000561471
0.000561523
0.000560898
0.000559247
0.00055807
0.00055188
0.000540218
0.000537275
0.000542563
0.000543343
0.000544749
0.000545611
0.000545765
0.000546262
0.000546269
0.000546417
0.000546055
0.000545995
0.000545171
0.000543713
0.000542823
0.000537399
0.000525065
0.000520968
0.000525523
0.000526032
0.000527248
0.000528301
0.000528558
0.000529185
0.00052916
0.000529337
0.000528843
0.000528682
0.000527668
0.000526396
0.00052577
0.000521077
0.00050798
0.000502809
0.000506673
0.000506936
0.000507972
0.000509202
0.000509551
0.000510301
0.000510243
0.000510449
0.000509831
0.000509579
0.000508388
0.000507293
0.000506909
0.000502903
0.000488945
0.000482787
0.00048601
0.00048605
0.00048692
0.000488312
0.000488741
0.000489603
0.000489513
0.000489747
0.000489016
0.000488682
0.000487331
0.000486399
0.000486235
0.000482868
0.000467933
0.000460883
0.000463525
0.000463363
0.000464083
0.000465617
0.000466116
0.000467079
0.000466958
0.000467219
0.000466384
0.000465981
0.000464488
0.000463703
0.000463738
0.000460952
0.000444902
0.000437064
0.00043919
0.000438845
0.000439435
0.000441089
0.000441647
0.000442697
0.000442548
0.000442832
0.000441907
0.000441444
0.000439831
0.000439176
0.000439392
0.00043712
0.000419789
0.000411272
0.000412956
0.000412446
0.000412926
0.000414675
0.000415281
0.000416404
0.00041623
0.000416534
0.000415533
0.00041502
0.000413312
0.000412765
0.000413146
0.000411317
0.000392505
0.000383428
0.000384749
0.000384089
0.000384483
0.000386299
0.000386943
0.00038812
0.000387925
0.000388244
0.000387184
0.000386631
0.000384856
0.000384395
0.000384927
0.000383463
0.000362939
0.000353437
0.000354478
0.000353684
0.000354015
0.000355864
0.000356536
0.000357745
0.000357536
0.000357862
0.000356766
0.000356182
0.000354373
0.000353975
0.000354643
0.000353464
0.000330984
0.000321212
0.000322054
0.000321145
0.000321435
0.00032328
0.000323969
0.000325184
0.000324967
0.000325294
0.000324186
0.000323581
0.000321774
0.000321418
0.000322207
0.000321232
0.000296559
0.000286694
0.000287419
0.000286417
0.000286679
0.000288483
0.000289176
0.000290366
0.000290148
0.000290467
0.000289377
0.000288764
0.000286996
0.000286671
0.000287559
0.000286707
0.000259737
0.000250014
0.000250683
0.000249619
0.000249864
0.000251584
0.000252264
0.000253395
0.000253185
0.000253486
0.000252447
0.000251841
0.000250155
0.000249851
0.000250809
0.000250021
0.000220959
0.000211677
0.000212324
0.000211245
0.000211479
0.000213064
0.000213712
0.000214748
0.000214555
0.000214829
0.000213875
0.000213294
0.000211739
0.000211451
0.000212435
0.000211681
0.000181192
0.000172702
0.000173334
0.000172297
0.00017252
0.000173921
0.000174514
0.000175421
0.000175253
0.000175489
0.000174654
0.000174118
0.000172744
0.000172473
0.000173429
0.000172703
0.000141995
0.000134647
0.000135249
0.000134314
0.000134523
0.000135696
0.000136211
0.000136962
0.000136826
0.000137018
0.000136326
0.000135859
0.000134707
0.000134458
0.000135326
0.000134647
0.000105378
9.94428e-05
9.99821e-05
9.92037e-05
9.93896e-05
0.00010031
0.000100729
0.00010131
0.000101208
0.000101353
0.000100818
0.000100436
9.95326e-05
9.93155e-05
0.000100042
9.94418e-05
7.33942e-05
6.89792e-05
6.94243e-05
6.88331e-05
6.89862e-05
6.96554e-05
6.99702e-05
7.03859e-05
7.03154e-05
7.0417e-05
7.00347e-05
6.97467e-05
6.90897e-05
6.89139e-05
6.9468e-05
6.89783e-05
4.75741e-05
4.45852e-05
4.49172e-05
4.45121e-05
4.46267e-05
4.50735e-05
4.5289e-05
4.5562e-05
4.55177e-05
4.55827e-05
4.53321e-05
4.51345e-05
4.46959e-05
4.45662e-05
4.49467e-05
4.45848e-05
2.84702e-05
2.66448e-05
2.68653e-05
2.66172e-05
2.66939e-05
2.69658e-05
2.70991e-05
2.72626e-05
2.72371e-05
2.72752e-05
2.71254e-05
2.70031e-05
2.67362e-05
2.66503e-05
2.68835e-05
2.66448e-05
1.5575e-05
1.45764e-05
1.47054e-05
1.45707e-05
1.4616e-05
1.47658e-05
1.48396e-05
1.49285e-05
1.49151e-05
1.49355e-05
1.48543e-05
1.47865e-05
1.46395e-05
1.45891e-05
1.47157e-05
1.45766e-05
7.66031e-06
7.17665e-06
7.24235e-06
7.17824e-06
7.20159e-06
7.27535e-06
7.31152e-06
7.3548e-06
7.34841e-06
7.35831e-06
7.31878e-06
7.28559e-06
7.21318e-06
7.18737e-06
7.24751e-06
7.17684e-06
3.28383e-06
3.08189e-06
3.11034e-06
3.0843e-06
3.09455e-06
3.12608e-06
3.14134e-06
3.15971e-06
3.15701e-06
3.16122e-06
3.14447e-06
3.13048e-06
3.09952e-06
3.08824e-06
3.11258e-06
3.08201e-06
1.16412e-06
1.09537e-06
1.10536e-06
1.09679e-06
1.10048e-06
1.11147e-06
1.11675e-06
1.12313e-06
1.1222e-06
1.12366e-06
1.11785e-06
1.11301e-06
1.10222e-06
1.09817e-06
1.10615e-06
1.09542e-06
3.38834e-07
3.21078e-07
3.23871e-07
3.21628e-07
3.22802e-07
3.25551e-07
3.27044e-07
3.28622e-07
3.28455e-07
3.28761e-07
3.27329e-07
3.25949e-07
3.23249e-07
3.21982e-07
3.24073e-07
3.21092e-07
2.22177e-07
2.15406e-07
2.17048e-07
2.1572e-07
2.16821e-07
2.17229e-07
2.182e-07
2.18378e-07
2.18613e-07
2.18413e-07
2.18272e-07
2.17324e-07
2.16924e-07
2.15794e-07
2.17081e-07
2.15393e-07
1.24427e-06
1.21187e-06
1.22095e-06
1.21335e-06
1.21997e-06
1.22036e-06
1.22587e-06
1.22567e-06
1.22749e-06
1.2258e-06
1.22612e-06
1.22066e-06
1.22029e-06
1.21354e-06
1.221e-06
1.21176e-06
0.000259021
0.000250365
0.000252079
0.000247614
0.000244327
0.000243051
0.00024314
0.000243618
0.00024375
0.00024365
0.000243196
0.000243107
0.000244363
0.000247624
0.000252039
0.00025028
0.000265853
0.000256093
0.000255397
0.000251004
0.000248121
0.000247246
0.00024753
0.000248107
0.000248257
0.00024815
0.000247604
0.000247323
0.000248175
0.000251025
0.000255359
0.000256007
0.000273106
0.000262446
0.000259667
0.000255364
0.000252869
0.000252375
0.000252843
0.00025351
0.000253677
0.000253563
0.000252933
0.000252472
0.00025294
0.000255395
0.000259631
0.000262358
0.000280753
0.000269376
0.000264826
0.000260638
0.000258514
0.000258379
0.000259016
0.000259766
0.000259948
0.000259828
0.000259122
0.000258493
0.000258601
0.000260678
0.000264793
0.000269288
0.000288772
0.000276845
0.000270816
0.000266769
0.000264999
0.000265199
0.000265991
0.000266814
0.000267008
0.000266884
0.00026611
0.000265329
0.0002651
0.000266817
0.000270785
0.000276755
0.000297145
0.000284816
0.000277578
0.0002737
0.000272268
0.000272779
0.00027371
0.000274597
0.000274801
0.000274674
0.000273842
0.000272924
0.000272382
0.000273756
0.000277548
0.000284725
0.000305858
0.000293256
0.000285057
0.000281375
0.00028026
0.000281053
0.000282107
0.000283049
0.000283262
0.000283134
0.00028225
0.00028121
0.000280384
0.000281437
0.000285029
0.000293165
0.000314897
0.000302135
0.00029319
0.000289718
0.00028889
0.000289934
0.000291097
0.000292088
0.000292308
0.000292179
0.000291249
0.000290102
0.000289023
0.000289786
0.000293164
0.000302043
0.000324247
0.000311412
0.000301904
0.000298645
0.000298076
0.000299346
0.000300604
0.000301638
0.000301864
0.000301733
0.000300764
0.000299523
0.000298218
0.000298718
0.000301879
0.00031132
0.000333892
0.000321048
0.00031113
0.000308091
0.000307762
0.000309234
0.000310576
0.000311647
0.000311876
0.000311747
0.000310743
0.000309419
0.00030791
0.000308168
0.000311107
0.000320955
0.000343815
0.000331008
0.000320815
0.000318005
0.000317899
0.000319557
0.000320971
0.000322073
0.000322305
0.000322177
0.000321145
0.000319749
0.000318054
0.000318086
0.000320793
0.000330915
0.000353993
0.000341265
0.000330915
0.000328342
0.000328447
0.000330272
0.000331749
0.000332878
0.000333112
0.000332985
0.000331929
0.000330471
0.000328607
0.000328427
0.000330894
0.000341172
0.000364405
0.000351794
0.000341387
0.00033906
0.000339363
0.000341341
0.000342873
0.000344023
0.000344258
0.000344134
0.000343058
0.000341546
0.000339529
0.000339149
0.000341368
0.000351702
0.00037503
0.000362571
0.000352191
0.000350117
0.000350608
0.000352724
0.000354302
0.000355471
0.000355706
0.000355585
0.000354493
0.000352935
0.000350779
0.00035021
0.000352173
0.00036248
0.000385845
0.000373569
0.000363286
0.000361472
0.00036214
0.000364382
0.000365999
0.000367182
0.000367417
0.000367299
0.000366194
0.000364597
0.000362315
0.000361568
0.000363271
0.000373478
0.000396825
0.000384755
0.000374632
0.000373082
0.000373918
0.000376272
0.000377921
0.000379116
0.000379349
0.000379235
0.000378121
0.000376492
0.000374098
0.000373182
0.000374618
0.000384666
0.000407941
0.000396097
0.000386184
0.000384904
0.000385899
0.000388353
0.000390027
0.00039123
0.000391462
0.000391352
0.000390231
0.000388578
0.000386083
0.000385007
0.000386173
0.00039601
0.000419157
0.000407553
0.000397899
0.000396892
0.000398038
0.00040058
0.000402272
0.00040348
0.000403709
0.000403604
0.00040248
0.000400808
0.000398226
0.000396999
0.000397891
0.000407468
0.000430436
0.000419081
0.000409727
0.000408997
0.000410286
0.000412904
0.000414608
0.000415817
0.000416043
0.000415943
0.000414819
0.000413136
0.000410479
0.000409109
0.000409722
0.000418998
0.000441731
0.000430631
0.000421617
0.000421167
0.000422591
0.000425272
0.000426982
0.000428188
0.000428411
0.000428317
0.000427196
0.000425508
0.000422788
0.000421284
0.000421616
0.000430551
0.000452996
0.000442152
0.000433512
0.000433344
0.000434894
0.000437625
0.000439334
0.000440536
0.000440754
0.000440666
0.000439552
0.000437865
0.000435096
0.000433466
0.000433516
0.000442075
0.000464181
0.00045359
0.000445353
0.000445464
0.000447131
0.000449901
0.000451604
0.000452798
0.000453012
0.000452931
0.000451824
0.000450145
0.000447337
0.000445592
0.000445362
0.000453517
0.000475236
0.000464892
0.00045708
0.000457462
0.000459233
0.000462034
0.000463727
0.000464913
0.000465121
0.000465047
0.00046395
0.000462281
0.000459445
0.000457596
0.000457095
0.000464823
0.000486109
0.000476007
0.000468631
0.000469273
0.000471132
0.000473958
0.00047564
0.000476817
0.00047702
0.000476952
0.000475865
0.000474209
0.00047135
0.000469413
0.000468653
0.000475942
0.000496748
0.000486881
0.000479948
0.00048083
0.000482764
0.00048561
0.000487279
0.000488448
0.000488646
0.000488585
0.000487507
0.000485865
0.000482988
0.000480979
0.000479977
0.000486822
0.0005071
0.000497462
0.000490967
0.000492072
0.000494065
0.000496927
0.000498583
0.000499746
0.000499938
0.000499884
0.000498814
0.000497186
0.000494295
0.000492229
0.000491004
0.000497408
0.000517105
0.000507687
0.000501615
0.000502923
0.00050496
0.000507834
0.000509478
0.000510635
0.000510821
0.000510774
0.000509711
0.000508098
0.000505197
0.000503088
0.000501661
0.000507638
0.000526697
0.000517487
0.000511812
0.000513302
0.000515367
0.000518253
0.000519884
0.000521037
0.000521217
0.000521177
0.00052012
0.000518522
0.000515612
0.000513476
0.000511866
0.000517444
0.000535814
0.000526805
0.000521498
0.000523144
0.000525224
0.000528115
0.000529733
0.000530882
0.000531055
0.000531023
0.000529972
0.000528389
0.000525477
0.000523328
0.000521562
0.000526767
0.000544413
0.000535598
0.000530633
0.000532415
0.000534495
0.000537387
0.000538992
0.000540135
0.000540302
0.000540278
0.000539233
0.000537666
0.000534756
0.000532609
0.000530706
0.000535567
0.000552451
0.000543829
0.000539182
0.000541085
0.000543157
0.000546046
0.000547635
0.000548773
0.000548933
0.000548917
0.000547878
0.00054633
0.000543427
0.000541289
0.000539265
0.000543804
0.000559886
0.000551455
0.000547111
0.000549126
0.000551183
0.000554066
0.000555637
0.00055677
0.000556921
0.000556914
0.000555884
0.000554356
0.000551462
0.000549342
0.000547205
0.000551438
0.000566672
0.000558436
0.000554383
0.000556507
0.000558543
0.000561419
0.000562969
0.000564094
0.000564237
0.00056424
0.000563218
0.000561714
0.000558831
0.000556734
0.000554488
0.000558426
0.000572763
0.000564729
0.000560961
0.000563193
0.000565204
0.000568071
0.000569598
0.000570714
0.000570846
0.00057086
0.000569849
0.000568372
0.000565502
0.000563432
0.000561078
0.000564728
0.000578116
0.000570296
0.000566811
0.00056915
0.000571133
0.000573989
0.000575489
0.000576595
0.000576716
0.000576743
0.000575742
0.000574296
0.000571441
0.000569402
0.00056694
0.000570302
0.00058269
0.000575099
0.000571899
0.000574345
0.000576297
0.00057914
0.000580609
0.000581705
0.000581813
0.000581853
0.000580866
0.000579454
0.000576615
0.000574609
0.000572041
0.000575114
0.00058645
0.000579103
0.000576193
0.000578746
0.000580664
0.000583493
0.000584928
0.000586012
0.000586106
0.000586161
0.000585187
0.000583813
0.000580992
0.000579022
0.000576348
0.000579127
0.000589362
0.000582277
0.000579664
0.000582321
0.000584204
0.000587018
0.000588415
0.000589486
0.000589565
0.000589636
0.000588677
0.000587344
0.000584542
0.00058261
0.000579832
0.00058231
0.000591397
0.000584592
0.000582284
0.000585043
0.000586889
0.000589687
0.000591042
0.000592099
0.000592162
0.00059225
0.000591307
0.000590019
0.000587238
0.000585345
0.000582465
0.000584634
0.000592529
0.000586021
0.000584028
0.000586886
0.000588694
0.000591473
0.000592784
0.000593826
0.000593871
0.000593977
0.000593051
0.000591811
0.000589053
0.0005872
0.000584223
0.000586073
0.000592736
0.000586542
0.000584874
0.000587826
0.000589596
0.000592355
0.000593617
0.000594642
0.000594669
0.000594795
0.000593886
0.000592698
0.000589964
0.000588153
0.000585082
0.000586604
0.000591997
0.000586134
0.000584801
0.000587843
0.000589574
0.000592311
0.000593521
0.00059453
0.000594537
0.000594683
0.000593793
0.00059266
0.000589952
0.000588182
0.000585023
0.000586207
0.000590297
0.000584781
0.000583792
0.00058692
0.000588612
0.000591325
0.00059248
0.00059347
0.000593457
0.000593623
0.000592753
0.000591679
0.000588999
0.00058727
0.000584028
0.000584865
0.000587624
0.000582471
0.000581834
0.000585041
0.000586695
0.000589382
0.000590479
0.000591449
0.000591415
0.000591603
0.000590754
0.000589741
0.000587091
0.000585403
0.000582083
0.000582565
0.000583966
0.000579191
0.000578915
0.000582195
0.000583811
0.000586469
0.000587507
0.000588455
0.000588401
0.00058861
0.000587783
0.000586833
0.000584215
0.000582568
0.000579176
0.000579295
0.000579316
0.000574933
0.000575023
0.000578369
0.00057995
0.000582577
0.000583552
0.000584478
0.000584402
0.000584633
0.00058383
0.000582945
0.000580362
0.000578753
0.000575298
0.000575048
0.000573668
0.000569689
0.000570149
0.000573553
0.0005751
0.000577694
0.000578605
0.000579507
0.000579409
0.000579662
0.000578884
0.000578066
0.000575519
0.000573947
0.000570436
0.000569814
0.000567013
0.000563448
0.000564281
0.000567736
0.00056925
0.000571808
0.000572654
0.00057353
0.000573412
0.000573685
0.000572934
0.000572184
0.000569676
0.000568139
0.00056458
0.000563583
0.000559343
0.000556199
0.000557406
0.000560902
0.000562386
0.000564905
0.000565686
0.000566534
0.000566395
0.000566689
0.000565967
0.000565284
0.000562818
0.000561314
0.000557717
0.000556345
0.000550645
0.000547927
0.000549505
0.000553031
0.000554488
0.000556966
0.000557682
0.0005585
0.000558342
0.000558655
0.000557963
0.000557348
0.000554925
0.000553452
0.000549827
0.000548082
0.000540897
0.000538609
0.000540552
0.000544099
0.000545529
0.000547964
0.000548616
0.000549403
0.000549225
0.000549557
0.000548897
0.000548347
0.000545971
0.000544526
0.000540885
0.000538773
0.000530071
0.000528211
0.000530511
0.000534066
0.000535473
0.000537861
0.000538452
0.000539203
0.00053901
0.000539357
0.000538732
0.000538246
0.000535919
0.0005345
0.000530853
0.000528384
0.000518119
0.000516682
0.000519328
0.000522879
0.000524264
0.000526603
0.000527135
0.000527849
0.00052764
0.000528002
0.000527414
0.000526988
0.000524712
0.000523319
0.000519679
0.000516865
0.000504968
0.000503948
0.000506924
0.000510457
0.000511822
0.000514108
0.000514586
0.000515258
0.000515038
0.000515411
0.000514864
0.000514494
0.000512272
0.000510902
0.000507283
0.000504138
0.000490512
0.000489898
0.000493166
0.000496639
0.000497985
0.00050022
0.000500659
0.000501284
0.000501058
0.000501436
0.000500936
0.000500606
0.000498438
0.000497089
0.000493532
0.000490095
0.000474527
0.000474257
0.000477767
0.000481148
0.000482474
0.000484657
0.000485071
0.000485641
0.000485418
0.000485793
0.000485348
0.000485043
0.000482928
0.000481601
0.000478139
0.000474461
0.000456698
0.000456721
0.000460426
0.000463694
0.000464995
0.000467126
0.000467524
0.000468033
0.000467818
0.000468185
0.0004678
0.000467513
0.000465451
0.00046415
0.000460803
0.00045693
0.000436723
0.000437011
0.000440862
0.000444002
0.000445272
0.000447348
0.000447738
0.000448181
0.000447977
0.000448332
0.000448012
0.000447735
0.000445729
0.00044446
0.000441242
0.000437224
0.000414341
0.000414867
0.000418813
0.000421812
0.000423044
0.000425062
0.000425447
0.00042582
0.000425631
0.00042597
0.00042572
0.000425446
0.0004235
0.000422271
0.000419195
0.000415083
0.000389333
0.000390071
0.000394056
0.000396902
0.000398086
0.000400038
0.000400423
0.000400723
0.000400553
0.000400871
0.000400692
0.000400419
0.000398539
0.000397357
0.000394438
0.000390288
0.000361551
0.00036247
0.000366434
0.000369111
0.00037024
0.000372116
0.000372502
0.000372727
0.000372579
0.000372874
0.000372766
0.000372491
0.000370686
0.000369561
0.000366812
0.000362685
0.000330959
0.000332021
0.0003359
0.000338391
0.000339457
0.000341242
0.000341629
0.000341781
0.000341658
0.000341924
0.000341886
0.000341607
0.000339891
0.000338831
0.000336269
0.000332233
0.000297681
0.000298845
0.000302568
0.000304856
0.000305851
0.000307527
0.000307912
0.000307996
0.000307899
0.000308134
0.000308159
0.000307878
0.000306269
0.000305279
0.000302924
0.000299049
0.000262053
0.000263276
0.000266774
0.000268839
0.000269757
0.000271301
0.000271681
0.000271704
0.000271634
0.000271834
0.000271913
0.000271632
0.000270152
0.000269239
0.000267111
0.00026347
0.000224636
0.000225863
0.000229075
0.000230897
0.00023173
0.000233119
0.000233487
0.000233458
0.000233415
0.000233578
0.000233701
0.000233425
0.000232095
0.000231266
0.000229386
0.000226043
0.00018608
0.000187261
0.000190144
0.000191705
0.00019245
0.000193661
0.000194009
0.000193936
0.000193918
0.000194044
0.000194201
0.000193935
0.000192778
0.000192036
0.000190424
0.000187422
0.000147815
0.000148872
0.000151343
0.000152625
0.000153265
0.000154279
0.000154595
0.000154497
0.000154499
0.00015459
0.00015476
0.000154515
0.000153546
0.00015291
0.000151584
0.000149011
0.000111775
0.000112644
0.000114638
0.000115637
0.000116156
0.000116964
0.000117235
0.000117133
0.000117147
0.000117208
0.000117369
0.000117156
0.000116385
0.000115868
0.000114833
0.000112757
7.99373e-05
8.05902e-05
8.20882e-05
8.28196e-05
8.32142e-05
8.382e-05
8.4036e-05
8.39454e-05
8.39646e-05
8.40026e-05
8.41379e-05
8.39661e-05
8.33882e-05
8.29948e-05
8.22362e-05
8.06754e-05
5.37975e-05
5.42457e-05
5.52842e-05
5.5785e-05
5.60627e-05
5.64863e-05
5.66448e-05
5.65756e-05
5.65938e-05
5.66159e-05
5.67166e-05
5.65893e-05
5.61852e-05
5.59081e-05
5.5388e-05
5.43053e-05
3.39431e-05
3.42255e-05
3.48871e-05
3.52068e-05
3.5387e-05
3.56616e-05
3.57678e-05
3.57216e-05
3.57356e-05
3.57479e-05
3.58145e-05
3.57285e-05
3.54665e-05
3.52864e-05
3.49542e-05
3.42639e-05
1.99868e-05
2.01514e-05
2.05381e-05
2.07279e-05
2.08356e-05
2.1e-05
2.10647e-05
2.10376e-05
2.10466e-05
2.10533e-05
2.10926e-05
2.10399e-05
2.08829e-05
2.07754e-05
2.05779e-05