/*--------------------------------*- C++ -*----------------------------------*\
| =========                 |                                                 |
| \\      /  F ield         | OpenFOAM: The Open Source CFD Toolbox           |
|  \\    /   O peration     | Version:  v1912                                 |
|   \\  /    A nd           | Website:  www.openfoam.com                      |
|    \\/     M anipulation  |                                                 |
\*---------------------------------------------------------------------------*/
FoamFile
{
    version     2.0;
    format      ascii;
    class       volVectorField;
    location    "200";
    object      U;
}
// * * * * * * * * * * * * * * * * * * * * * * * * * * * * * * * * * * * * * //

dimensions      [0 1 -1 0 0 0 0];


internalField   nonuniform List<vector> 
10147
(
(3.96313e-07 0.00527201 0.270698)
(0.00189199 0.00211352 0.273245)
(0.000319256 0.00165324 0.277535)
(0.000431747 0.00183044 0.278726)
(1.79111e-05 0.00169393 0.279008)
(8.04238e-05 0.00203663 0.278814)
(-2.77978e-05 0.00205698 0.278727)
(1.59017e-05 0.00221385 0.278643)
(1.60178e-05 0.00216455 0.278638)
(1.39393e-05 0.00220983 0.278686)
(5.43883e-05 0.00204952 0.278806)
(-6.08092e-05 0.00202719 0.278916)
(-3.34048e-06 0.00168609 0.279115)
(-0.000422187 0.00182101 0.278821)
(-0.00031226 0.00164182 0.27761)
(-0.00188689 0.00209721 0.273296)
(3.8067e-05 -0.00304472 0.27888)
(1.99442e-05 -0.00321295 0.279348)
(6.05035e-05 -0.00327144 0.279587)
(2.73949e-05 -0.00335989 0.27962)
(8.37085e-06 -0.00334874 0.279655)
(-1.16407e-05 -0.00335957 0.279661)
(-4.58379e-05 -0.00327023 0.279664)
(-6.2307e-06 -0.00321146 0.279451)
(-2.43933e-05 -0.00304239 0.278997)
(0.000275198 -0.00291806 0.278024)
(-4.22995e-05 -0.00314381 0.27713)
(0.000752475 -0.00296755 0.276454)
(-2.19234e-05 -0.00224734 0.275754)
(-2.77145e-05 -0.00233519 0.275926)
(-0.000100735 -0.00237976 0.276149)
(-0.000106611 -0.00241722 0.276042)
(-0.00054194 -0.00239098 0.274685)
(-0.000338461 -0.00154504 0.270998)
(0.000494969 -0.00197404 0.275707)
(-2.34125e-07 0.00514633 0.271123)
(0.00184007 0.00210919 0.273415)
(0.000338986 0.00167579 0.277383)
(0.000443176 0.00184055 0.278514)
(2.62542e-05 0.00169992 0.278821)
(8.89727e-05 0.00202992 0.27868)
(-2.5178e-05 0.00205058 0.278634)
(1.76728e-05 0.00220472 0.278578)
(1.60966e-05 0.00215557 0.27858)
(1.22921e-05 0.00220083 0.27862)
(5.18218e-05 0.00204331 0.278711)
(-6.92919e-05 0.00202067 0.278779)
(-1.16632e-05 0.00169238 0.278925)
(-0.000433617 0.00183124 0.278605)
(-0.000332197 0.00166449 0.277455)
(-0.00183578 0.00209306 0.273463)
(-8.4436e-07 0.00502288 0.271458)
(0.00179012 0.00210242 0.273502)
(0.000354001 0.00169424 0.277156)
(0.000452507 0.00184838 0.27822)
(3.39959e-05 0.00170392 0.278548)
(9.71279e-05 0.00202143 0.278456)
(-2.26393e-05 0.00204239 0.278449)
(1.93747e-05 0.00219379 0.278419)
(1.61365e-05 0.00214478 0.278428)
(1.06388e-05 0.00219001 0.27846)
(4.92783e-05 0.00203532 0.278524)
(-7.74061e-05 0.00201247 0.278553)
(-1.9379e-05 0.00169672 0.278649)
(-0.000442932 0.00183924 0.278309)
(-0.000347404 0.00168309 0.277224)
(-0.00178661 0.00208649 0.273546)
(-1.42645e-06 0.0049004 0.271704)
(0.00173891 0.00209589 0.273507)
(0.00036476 0.00170978 0.276857)
(0.000461194 0.00185352 0.277852)
(4.10722e-05 0.00170625 0.278195)
(0.000104736 0.00201145 0.278148)
(-2.01109e-05 0.00203244 0.278178)
(2.10574e-05 0.00218111 0.278173)
(1.6145e-05 0.00213223 0.278187)
(8.9503e-06 0.00217742 0.278213)
(4.67137e-05 0.00202559 0.27825)
(-8.49867e-05 0.00200272 0.278242)
(-2.64324e-05 0.0016992 0.278294)
(-0.000451605 0.0018445 0.277939)
(-0.000358357 0.00169875 0.276923)
(-0.00173614 0.0020802 0.273549)
(-1.97425e-06 0.00477902 0.271861)
(0.0016842 0.00208707 0.273432)
(0.0003692 0.00172259 0.276491)
(0.000469073 0.00185608 0.277414)
(4.77177e-05 0.00170666 0.277768)
(0.000111778 0.00199993 0.277762)
(-1.76156e-05 0.00202086 0.277825)
(2.27525e-05 0.00216681 0.277843)
(1.61293e-05 0.00211808 0.277863)
(7.21025e-06 0.0021632 0.277882)
(4.41663e-05 0.00201425 0.277896)
(-9.20129e-05 0.00199149 0.277854)
(-3.3071e-05 0.00169983 0.277864)
(-0.000459485 0.00184722 0.277498)
(-0.000362997 0.00171173 0.276553)
(-0.00168212 0.00207164 0.273471)
(-2.48003e-06 0.00466076 0.271932)
(0.00162797 0.00207687 0.273279)
(0.000369243 0.00173215 0.276057)
(0.000476058 0.00185608 0.276908)
(5.39249e-05 0.00170528 0.277269)
(0.000118333 0.00198692 0.2773)
(-1.51963e-05 0.00200771 0.277395)
(2.44253e-05 0.00215094 0.277435)
(1.6088e-05 0.00210238 0.27746)
(5.44962e-06 0.00214741 0.277473)
(4.16698e-05 0.00200134 0.277464)
(-9.85712e-05 0.00197878 0.27739)
(-3.9286e-05 0.00169866 0.277364)
(-0.000466479 0.0018474 0.27699)
(-0.000363237 0.00172148 0.276117)
(-0.00162655 0.00206173 0.273315)
(-2.93857e-06 0.0045455 0.271918)
(0.00157198 0.00206527 0.273049)
(0.000366642 0.00173872 0.27556)
(0.000482188 0.0018536 0.276338)
(5.96815e-05 0.00170218 0.276704)
(0.000124468 0.00197251 0.276768)
(-1.28792e-05 0.00199309 0.276891)
(2.60482e-05 0.0021336 0.276952)
(1.60206e-05 0.00208524 0.276982)
(3.69358e-06 0.00213015 0.276989)
(3.92443e-05 0.00198695 0.276959)
(-0.000104734 0.00196466 0.276856)
(-4.5063e-05 0.00169578 0.276797)
(-0.000472621 0.00184511 0.276419)
(-0.00036082 0.00172826 0.275617)
(-0.00157115 0.00205044 0.273083)
(-3.3468e-06 0.00443331 0.271822)
(0.00151729 0.00205222 0.272744)
(0.00036249 0.00174246 0.275)
(0.000487529 0.00184874 0.275707)
(6.49987e-05 0.00169743 0.276074)
(0.000130233 0.00195678 0.276168)
(-1.06793e-05 0.00197709 0.276318)
(2.76055e-05 0.00211487 0.276398)
(1.59283e-05 0.00206674 0.276432)
(1.95781e-06 0.00211151 0.276434)
(3.69018e-05 0.00197117 0.276384)
(-0.000110554 0.00194921 0.276254)
(-5.04119e-05 0.00169124 0.276165)
(-0.000477973 0.00184044 0.275785)
(-0.000356834 0.00173221 0.275055)
(-0.00151697 0.00203771 0.272775)
(-3.70346e-06 0.00432422 0.271646)
(0.00146453 0.00203777 0.272365)
(0.000357479 0.00174349 0.27438)
(0.000492157 0.00184163 0.275016)
(6.98952e-05 0.00169106 0.275382)
(0.000135667 0.00193978 0.275504)
(-8.60396e-06 0.00195978 0.275679)
(2.90894e-05 0.00209482 0.275777)
(1.58128e-05 0.00204696 0.275814)
(2.52562e-07 0.00209157 0.275812)
(3.46501e-05 0.00195407 0.275744)
(-0.000116067 0.00193249 0.275589)
(-5.535e-05 0.00168509 0.275472)
(-0.000482611 0.00183353 0.275093)
(-0.000351967 0.00173347 0.274433)
(-0.00146466 0.00202359 0.272394)
(-4.00875e-06 0.00421816 0.271389)
(0.00141406 0.00202194 0.271915)
(0.000352056 0.001742 0.273701)
(0.00049615 0.00183239 0.274268)
(7.43898e-05 0.00168315 0.274632)
(0.000140798 0.00192158 0.274778)
(-6.65697e-06 0.00194122 0.274976)
(3.04956e-05 0.00207355 0.275091)
(1.56761e-05 0.00202597 0.275132)
(-1.41475e-06 0.00207039 0.275125)
(3.24947e-05 0.00193571 0.27504)
(-0.000121302 0.00191456 0.274862)
(-5.98952e-05 0.00167739 0.274721)
(-0.00048661 0.0018245 0.274344)
(-0.000346668 0.00173221 0.273752)
(-0.00141459 0.00200812 0.271941)
(-4.26399e-06 0.00411503 0.271054)
(0.0013661 0.00200479 0.271394)
(0.000346519 0.00173812 0.272965)
(0.000499586 0.00182115 0.273466)
(7.85006e-05 0.00167374 0.273826)
(0.000145646 0.00190223 0.273994)
(-4.84043e-06 0.00192147 0.274214)
(3.18219e-05 0.00205112 0.274343)
(1.55202e-05 0.00200385 0.274388)
(-3.03799e-06 0.00204806 0.274377)
(3.04403e-05 0.00191616 0.274276)
(-0.000126278 0.00189548 0.274076)
(-6.40646e-05 0.0016682 0.273914)
(-0.000490049 0.00181347 0.273541)
(-0.000341233 0.00172857 0.273014)
(-0.00136695 0.00199131 0.271418)
(-4.47142e-06 0.00401472 0.270644)
(0.00132072 0.00198633 0.270805)
(0.000341061 0.00173201 0.272174)
(0.000502541 0.00180804 0.272612)
(8.22455e-05 0.00166289 0.272967)
(0.000150229 0.00188179 0.273155)
(-3.15524e-06 0.00190061 0.273394)
(3.30674e-05 0.0020276 0.273538)
(1.53473e-05 0.00198066 0.273585)
(-4.61213e-06 0.00202464 0.273571)
(2.84909e-05 0.0018955 0.273455)
(-0.000131009 0.00187531 0.273236)
(-6.78754e-05 0.00165756 0.273054)
(-0.000493003 0.00180057 0.272686)
(-0.000335854 0.00172271 0.272222)
(-0.00132182 0.00197321 0.270827)
(-4.6339e-06 0.00391709 0.270158)
(0.00127794 0.00196662 0.270151)
(0.000335793 0.00172381 0.27133)
(0.000505087 0.00179319 0.271709)
(8.56429e-05 0.00165067 0.272058)
(0.00015456 0.00186032 0.272263)
(-1.6008e-06 0.0018787 0.27252)
(3.42331e-05 0.00200306 0.272677)
(1.51598e-05 0.00195646 0.272726)
(-6.13364e-06 0.00200019 0.272709)
(2.66495e-05 0.00187379 0.27258)
(-0.000135506 0.00185409 0.272343)
(-7.1345e-05 0.00164553 0.272144)
(-0.000495545 0.00178593 0.271781)
(-0.000330644 0.00171475 0.271376)
(-0.00127923 0.00195386 0.270171)
(-4.75472e-06 0.003822 0.2696)
(0.0012377 0.0019457 0.269431)
(0.000330769 0.00171366 0.270435)
(0.000507288 0.0017767 0.270758)
(8.87103e-05 0.00163711 0.271101)
(0.000158653 0.00183788 0.271321)
(-1.75119e-07 0.00185581 0.271594)
(3.53212e-05 0.00197757 0.271763)
(1.49599e-05 0.00193133 0.271815)
(-7.60049e-06 0.00197478 0.271795)
(2.49175e-05 0.00185109 0.271654)
(-0.000139782 0.00183189 0.2714)
(-7.44906e-05 0.00163218 0.271186)
(-0.000497738 0.00176965 0.270829)
(-0.000325657 0.00170485 0.270479)
(-0.00123914 0.0019333 0.26945)
(-4.83744e-06 0.00372932 0.268971)
(0.00119997 0.00192363 0.26865)
(0.000326006 0.00170169 0.26949)
(0.000509205 0.0017587 0.269761)
(9.14648e-05 0.00162229 0.270097)
(0.000162524 0.00181451 0.270331)
(1.12509e-06 0.001832 0.270619)
(3.63349e-05 0.00195119 0.270799)
(1.47498e-05 0.00190532 0.270853)
(-9.01186e-06 0.00194848 0.270831)
(2.32949e-05 0.00182746 0.270678)
(-0.000143849 0.00180876 0.27041)
(-7.73286e-05 0.00161755 0.270182)
(-0.000499644 0.00175186 0.269832)
(-0.000320913 0.00169312 0.269533)
(-0.00120151 0.00191159 0.268666)
(-4.88576e-06 0.00363892 0.268272)
(0.00116468 0.00190048 0.267807)
(0.000321506 0.00168802 0.268498)
(0.000510892 0.00173929 0.26872)
(9.39227e-05 0.00160628 0.269049)
(0.000166187 0.00179028 0.269295)
(2.30432e-06 0.00180735 0.269597)
(3.7278e-05 0.00192398 0.269787)
(1.45316e-05 0.00187852 0.269843)
(-1.03679e-05 0.00192137 0.269818)
(2.17798e-05 0.00180298 0.269655)
(-0.000147721 0.00178476 0.269374)
(-7.98746e-05 0.00160173 0.269134)
(-0.000501318 0.00173266 0.26879)
(-0.000316415 0.0016797 0.26854)
(-0.00116626 0.00188878 0.267822)
(-4.90343e-06 0.00355069 0.267506)
(0.00113175 0.0018763 0.266905)
(0.000317267 0.00167279 0.267459)
(0.000512401 0.0017186 0.267636)
(9.60995e-05 0.00158913 0.267959)
(0.000169658 0.00176525 0.268215)
(3.36811e-06 0.00178191 0.268529)
(3.81546e-05 0.00189603 0.268729)
(1.43071e-05 0.00185098 0.268785)
(-1.16696e-05 0.0018935 0.268759)
(2.03694e-05 0.00177771 0.268587)
(-0.000151411 0.00175995 0.268293)
(-8.21439e-05 0.00158476 0.268043)
(-0.000502812 0.00171217 0.267706)
(-0.000312161 0.00166471 0.2675)
(-0.00113335 0.00186496 0.266919)
(-4.89417e-06 0.00346451 0.266673)
(0.0011011 0.00185118 0.265947)
(0.000313284 0.00165611 0.266375)
(0.000513781 0.00169672 0.266511)
(9.80099e-05 0.00157094 0.266826)
(0.000172956 0.0017395 0.267092)
(4.32291e-06 0.00175578 0.267417)
(3.8969e-05 0.0018674 0.267625)
(1.4078e-05 0.00182279 0.267683)
(-1.29186e-05 0.00186496 0.267655)
(1.90592e-05 0.00175174 0.267474)
(-0.000154936 0.00173441 0.267169)
(-8.41505e-05 0.00156674 0.26691)
(-0.000504175 0.00169049 0.266579)
(-0.000308151 0.00164827 0.266415)
(-0.00110267 0.00184018 0.265959)
(-4.86155e-06 0.00338028 0.265777)
(0.00107262 0.00182519 0.264932)
(0.000309559 0.00163812 0.265247)
(0.000515081 0.00167378 0.265344)
(9.96662e-05 0.00155178 0.265653)
(0.000176097 0.00171311 0.265927)
(5.17628e-06 0.00172904 0.266262)
(3.97256e-05 0.0018382 0.266477)
(1.38455e-05 0.00179404 0.266536)
(-1.4117e-05 0.00183585 0.266507)
(1.78434e-05 0.00172515 0.266318)
(-0.000158313 0.00170821 0.266003)
(-8.59063e-05 0.00154775 0.265736)
(-0.000505456 0.00166775 0.265412)
(-0.000304385 0.00163051 0.265286)
(-0.00107414 0.00181453 0.264943)
(-4.809e-06 0.00329793 0.264817)
(0.00104622 0.00179842 0.263862)
(0.000306106 0.00161894 0.264075)
(0.000516354 0.00164989 0.264137)
(0.000101088 0.00153173 0.264439)
(0.000179101 0.0016861 0.264719)
(5.93698e-06 0.00170172 0.265063)
(4.04286e-05 0.00180844 0.265286)
(1.3611e-05 0.00176474 0.265346)
(-1.52673e-05 0.00180617 0.265316)
(1.67144e-05 0.00169797 0.265119)
(-0.000161558 0.00168141 0.264796)
(-8.74305e-05 0.00152787 0.264522)
(-0.000506709 0.00164405 0.264205)
(-0.00030088 0.00161156 0.264113)
(-0.00104766 0.00178808 0.263872)
(-4.73969e-06 0.0032173 0.263795)
(0.00102178 0.00177085 0.262739)
(0.000302969 0.00159862 0.26286)
(0.000517583 0.0016251 0.262889)
(0.000102327 0.00151082 0.263184)
(0.000181984 0.00165847 0.263471)
(6.6106e-06 0.00167379 0.263822)
(4.10829e-05 0.00177808 0.264051)
(1.33754e-05 0.00173486 0.264111)
(-1.63725e-05 0.0017759 0.264081)
(1.56685e-05 0.00167017 0.263878)
(-0.000164687 0.00165396 0.263547)
(-8.87774e-05 0.00150712 0.263267)
(-0.000507916 0.00161944 0.262956)
(-0.000297683 0.00159146 0.262898)
(-0.00102311 0.00176083 0.262747)
(-4.65648e-06 0.00313819 0.262712)
(0.000999185 0.00174246 0.261562)
(0.000300008 0.00157714 0.261602)
(0.000518696 0.00159948 0.261601)
(0.000103462 0.00148905 0.261887)
(0.000184742 0.00163022 0.262181)
(7.19827e-06 0.00164521 0.262539)
(4.1699e-05 0.00174707 0.262774)
(1.31409e-05 0.00170433 0.262834)
(-1.7438e-05 0.00174497 0.262803)
(1.47096e-05 0.00164172 0.262594)
(-0.000167694 0.0016259 0.262256)
(-9.00252e-05 0.0014855 0.26197)
(-0.00050901 0.001594 0.261668)
(-0.000294649 0.00157019 0.261639)
(-0.0010004 0.00173275 0.26157)
(-4.56207e-06 0.00306032 0.261571)
(0.000978319 0.00171313 0.260334)
(0.000296833 0.00155451 0.2603)
(0.000519657 0.00157295 0.260266)
(0.00010453 0.00146629 0.260539)
(0.000187402 0.00160125 0.260843)
(7.70814e-06 0.0016159 0.261209)
(4.22932e-05 0.00171532 0.261452)
(1.29095e-05 0.00167308 0.261512)
(-1.84751e-05 0.0017133 0.26148)
(1.38331e-05 0.00161254 0.261264)
(-0.000170606 0.0015971 0.260918)
(-9.12135e-05 0.00146288 0.260621)
(-0.000509961 0.00156765 0.260333)
(-0.00029139 0.00154778 0.260337)
(-0.000979398 0.00170373 0.26034)
(-4.45901e-06 0.00298341 0.260372)
(0.000959056 0.00168276 0.259054)
(0.000293158 0.00153074 0.258952)
(0.000520454 0.00154537 0.258877)
(0.000105498 0.00144245 0.259134)
(0.000190019 0.00157139 0.259447)
(8.15574e-06 0.0015857 0.259825)
(4.28767e-05 0.0016827 0.260076)
(1.26811e-05 0.00164096 0.260138)
(-1.94956e-05 0.00168075 0.260104)
(1.30215e-05 0.00158246 0.259879)
(-0.000173479 0.0015674 0.259522)
(-9.23072e-05 0.00143919 0.259216)
(-0.000510754 0.00154025 0.258944)
(-0.000287626 0.00152422 0.258988)
(-0.000959986 0.00167366 0.25906)
(-4.34968e-06 0.00290724 0.259117)
(0.000941283 0.00165128 0.257725)
(0.000289117 0.0015057 0.257548)
(0.000521181 0.00151674 0.257432)
(0.000106302 0.00141756 0.257673)
(0.000192612 0.00154066 0.257996)
(8.54976e-06 0.0015546 0.258384)
(4.34432e-05 0.00164915 0.258643)
(1.24541e-05 0.00160792 0.258706)
(-2.04974e-05 0.00164727 0.258671)
(1.22619e-05 0.00155149 0.258438)
(-0.000176333 0.00153683 0.25807)
(-9.32398e-05 0.00141444 0.257755)
(-0.000511481 0.00151178 0.257499)
(-0.000283502 0.00149938 0.257583)
(-0.000942056 0.00164247 0.25773)
(-4.23626e-06 0.00283161 0.257809)
(0.000924906 0.00161864 0.256347)
(0.000285225 0.00147934 0.25609)
(0.000521967 0.00148707 0.255937)
(0.000106923 0.00139163 0.256164)
(0.000195167 0.0015091 0.256494)
(8.89149e-06 0.00152265 0.256891)
(4.39796e-05 0.00161473 0.257158)
(1.2228e-05 0.00157402 0.25722)
(-2.14693e-05 0.00161293 0.257185)
(1.15519e-05 0.00151966 0.256944)
(-0.000179152 0.00150542 0.256568)
(-9.39892e-05 0.00138863 0.256246)
(-0.000512267 0.00148228 0.256003)
(-0.000279537 0.00147323 0.256124)
(-0.000925517 0.00161012 0.256351)
(-4.12074e-06 0.00275641 0.256448)
(0.000909841 0.00158486 0.254922)
(0.000281842 0.00145173 0.25458)
(0.000522843 0.00145639 0.254397)
(0.000107378 0.00136463 0.254612)
(0.000197662 0.0014767 0.254948)
(9.17654e-06 0.00148987 0.255353)
(4.44816e-05 0.0015795 0.255625)
(1.20043e-05 0.00153931 0.255688)
(-2.24044e-05 0.00157775 0.255653)
(1.08992e-05 0.00148701 0.255406)
(-0.000181911 0.00147317 0.255022)
(-9.45742e-05 0.00136176 0.254694)
(-0.000513143 0.00145177 0.254463)
(-0.000276085 0.00144582 0.254614)
(-0.000910285 0.00157661 0.254925)
(-4.005e-06 0.00268154 0.255038)
(0.000895971 0.00154994 0.253451)
(0.000278911 0.00142296 0.253026)
(0.000523784 0.00142475 0.252817)
(0.000107692 0.00133657 0.253022)
(0.000200081 0.00144348 0.253364)
(9.39803e-06 0.00145629 0.253774)
(4.49521e-05 0.00154346 0.254052)
(1.17851e-05 0.00150382 0.254114)
(-2.33006e-05 0.00154177 0.254079)
(1.0315e-05 0.00145354 0.253827)
(-0.000184592 0.00144009 0.253437)
(-9.50183e-05 0.00133382 0.253104)
(-0.000514087 0.00142028 0.252883)
(-0.000273081 0.00141724 0.253059)
(-0.000896246 0.00154197 0.253454)
(-3.8907e-06 0.00260695 0.253578)
(0.000883155 0.00151391 0.251934)
(0.000276201 0.00139307 0.25143)
(0.000524759 0.00139216 0.251201)
(0.000107881 0.00130746 0.251399)
(0.000202418 0.00140945 0.251745)
(9.55029e-06 0.00142191 0.252161)
(4.53954e-05 0.00150665 0.252442)
(1.15725e-05 0.00146756 0.252504)
(-2.41581e-05 0.00150502 0.252469)
(9.80864e-06 0.00141929 0.252213)
(-0.000187187 0.0014062 0.251819)
(-9.5339e-05 0.00130483 0.251481)
(-0.000515069 0.00138784 0.251267)
(-0.000270299 0.00138755 0.251463)
(-0.000883262 0.00150621 0.251937)
(-3.77939e-06 0.00253263 0.252071)
(0.000871285 0.00147682 0.25037)
(0.000273511 0.00136213 0.249797)
(0.000525747 0.00135866 0.249552)
(0.000107954 0.00127731 0.249744)
(0.000204674 0.00137461 0.250094)
(9.62987e-06 0.00138676 0.250514)
(4.58161e-05 0.00146908 0.250799)
(1.13676e-05 0.00143054 0.250861)
(-2.49788e-05 0.0014675 0.250826)
(9.38556e-06 0.00138426 0.250566)
(-0.000189698 0.00137149 0.250167)
(-9.55444e-05 0.00127479 0.249826)
(-0.000516072 0.00135449 0.249618)
(-0.000267542 0.00135679 0.24983)
(-0.000871227 0.00146938 0.250372)
(-3.67199e-06 0.00245854 0.250514)
(0.000860362 0.00143871 0.248758)
(0.000270726 0.00133015 0.248128)
(0.000526748 0.00132427 0.247871)
(0.00010791 0.00124612 0.248058)
(0.000206857 0.00133896 0.248411)
(9.63534e-06 0.00135084 0.248834)
(4.62177e-05 0.00143076 0.249123)
(1.1171e-05 0.00139279 0.249184)
(-2.5765e-05 0.00142923 0.24915)
(9.04811e-06 0.00134844 0.248886)
(-0.000192132 0.00133597 0.248485)
(-9.5634e-05 0.00124371 0.248139)
(-0.000517092 0.00132024 0.247937)
(-0.000264695 0.001325 0.248161)
(-0.000860149 0.00143152 0.248759)
(-3.56884e-06 0.0023846 0.248906)
(0.00085045 0.0013997 0.247097)
(0.000267807 0.00129716 0.246423)
(0.000527773 0.00128899 0.246158)
(0.000107742 0.0012139 0.246341)
(0.000208976 0.00130251 0.246697)
(9.56649e-06 0.00131414 0.247123)
(4.66032e-05 0.00139167 0.247414)
(1.09828e-05 0.00135429 0.247474)
(-2.65196e-05 0.00139019 0.247441)
(8.79657e-06 0.00131185 0.247175)
(-0.000194495 0.00129964 0.246771)
(-9.56013e-05 0.0012116 0.246422)
(-0.000518145 0.0012851 0.246223)
(-0.000261724 0.00129219 0.246455)
(-0.000850091 0.00139277 0.247098)
(-3.47051e-06 0.00231079 0.247246)
(0.000841534 0.00135981 0.245392)
(0.000264766 0.00126315 0.244683)
(0.000528839 0.0012528 0.244412)
(0.000107445 0.00118063 0.244593)
(0.000211038 0.00126521 0.244952)
(9.42356e-06 0.00127662 0.24538)
(4.69752e-05 0.00135178 0.245672)
(1.08029e-05 0.001315 0.245732)
(-2.72457e-05 0.00135035 0.245699)
(8.63043e-06 0.00127443 0.245431)
(-0.000196798 0.00126246 0.245025)
(-9.54399e-05 0.00117843 0.244674)
(-0.000519244 0.00124904 0.244477)
(-0.00025864 0.00125835 0.244714)
(-0.000841039 0.00135312 0.245392)
(-3.37795e-06 0.00223708 0.245534)
(0.000833534 0.001319 0.243643)
(0.000261632 0.00122808 0.242906)
(0.000529943 0.00121566 0.242633)
(0.00010702 0.00114628 0.242813)
(0.000213055 0.00122703 0.243174)
(9.20658e-06 0.00123824 0.243604)
(4.73367e-05 0.00131104 0.243897)
(1.06314e-05 0.00127489 0.243956)
(-2.79462e-05 0.00130966 0.243924)
(8.54966e-06 0.00123615 0.243655)
(-0.000199052 0.00122439 0.243247)
(-9.51515e-05 0.00114418 0.242894)
(-0.000520388 0.00121204 0.242698)
(-0.000255472 0.00122345 0.242937)
(-0.000832913 0.00131255 0.243642)
(-3.29211e-06 0.00216338 0.243772)
(0.00082635 0.00127723 0.241852)
(0.000258412 0.00119189 0.241093)
(0.000531061 0.00117753 0.24082)
(0.000106475 0.00111079 0.241)
(0.000215042 0.0011879 0.241363)
(8.91473e-06 0.00119893 0.241793)
(4.76906e-05 0.00126939 0.242088)
(1.04685e-05 0.00123386 0.242146)
(-2.86238e-05 0.00126805 0.242114)
(8.55536e-06 0.00119693 0.241844)
(-0.00020127 0.00118537 0.241435)
(-9.47453e-05 0.00110878 0.241081)
(-0.000521554 0.00117403 0.240885)
(-0.000252227 0.00118742 0.241125)
(-0.000825613 0.00127101 0.241851)
(-3.21382e-06 0.00208953 0.241963)
(0.000819861 0.00123442 0.240019)
(0.000255043 0.00115446 0.239245)
(0.000532184 0.0011383 0.23897)
(0.00010581 0.00107404 0.239149)
(0.000217013 0.00114771 0.239514)
(8.54742e-06 0.00115858 0.239945)
(4.80404e-05 0.0012267 0.240242)
(1.03142e-05 0.00119183 0.240298)
(-2.9282e-05 0.00122541 0.240268)
(8.64771e-06 0.00115667 0.239996)
(-0.000203468 0.00114528 0.239586)
(-9.42206e-05 0.00107212 0.23923)
(-0.000522732 0.00113492 0.239035)
(-0.000248841 0.00115016 0.239276)
(-0.000819018 0.00122842 0.240018)
(-3.14368e-06 0.00201537 0.240109)
(0.000813942 0.00119043 0.238144)
(0.000251419 0.00111573 0.237358)
(0.000533331 0.00109783 0.237079)
(0.000105009 0.0010359 0.237256)
(0.000218977 0.00110631 0.237623)
(8.10588e-06 0.00111704 0.238055)
(4.83892e-05 0.00118284 0.238354)
(1.01679e-05 0.00114863 0.23841)
(-2.99249e-05 0.0011816 0.23838)
(8.82408e-06 0.00111522 0.238106)
(-0.000205655 0.00110398 0.237695)
(-9.35615e-05 0.00103407 0.237337)
(-0.000523941 0.00109457 0.237143)
(-0.000245211 0.00111157 0.237389)
(-0.000813006 0.00118464 0.238143)
(-3.08205e-06 0.00194074 0.238212)
(0.000808515 0.00114512 0.236223)
(0.000247495 0.00107551 0.235431)
(0.000534546 0.00105599 0.235144)
(0.000104054 0.000996277 0.235321)
(0.000220933 0.00106358 0.235689)
(7.59177e-06 0.00107418 0.236122)
(4.87388e-05 0.00113766 0.236423)
(1.0029e-05 0.00110414 0.236478)
(-3.05563e-05 0.00113646 0.236449)
(9.08153e-06 0.00107245 0.236173)
(-0.000207831 0.00106136 0.235761)
(-9.27505e-05 0.000994532 0.235401)
(-0.000525226 0.00105284 0.235208)
(-0.000241293 0.00107151 0.235461)
(-0.000807498 0.00113955 0.236222)
(-3.02891e-06 0.00186544 0.236273)
(0.000803555 0.00109837 0.234256)
(0.000243316 0.00103363 0.233458)
(0.000535861 0.00101263 0.233166)
(0.00010294 0.000955033 0.233342)
(0.000222878 0.00101939 0.233712)
(7.0057e-06 0.00102987 0.234146)
(4.90915e-05 0.00109103 0.234449)
(9.89693e-06 0.00105821 0.234502)
(-3.11794e-05 0.00108988 0.234474)
(9.41887e-06 0.00102822 0.234196)
(-0.000209993 0.00101726 0.233783)
(-9.17815e-05 0.000953372 0.233422)
(-0.000526618 0.00100961 0.233229)
(-0.000237132 0.00102978 0.233489)
(-0.000802472 0.00109301 0.234254)
(-2.98391e-06 0.00178924 0.234287)
(0.000799043 0.00105006 0.232241)
(0.000238955 0.000989973 0.231441)
(0.000537278 0.000967625 0.231144)
(0.000101666 0.000912015 0.23132)
(0.000224813 0.00097357 0.231692)
(6.34766e-06 0.000983945 0.232125)
(4.94498e-05 0.00104279 0.232429)
(9.77161e-06 0.00101069 0.232482)
(-3.17971e-05 0.00104169 0.232454)
(9.83603e-06 0.000982375 0.232175)
(-0.00021214 0.000971537 0.231762)
(-9.0654e-05 0.000910436 0.2314)
(-0.000528116 0.000964709 0.231207)
(-0.0002328 0.000986263 0.231471)
(-0.000797907 0.0010449 0.232239)
(-2.94669e-06 0.00171191 0.232252)
(0.000794924 0.00100004 0.23018)
(0.000234417 0.000944389 0.229379)
(0.000538787 0.000920816 0.229077)
(0.000100231 0.000867086 0.229255)
(0.000226736 0.000925983 0.229627)
(5.61763e-06 0.000936264 0.23006)
(4.98162e-05 0.000992806 0.230366)
(9.65294e-06 0.000961436 0.230417)
(-3.24118e-05 0.000991742 0.23039)
(1.03329e-05 0.000934774 0.230109)
(-0.000214272 0.000924045 0.229697)
(-8.93663e-05 0.000865588 0.229333)
(-0.000529714 0.000918011 0.22914)
(-0.000228301 0.000940821 0.229408)
(-0.000793749 0.000995084 0.230177)
(-2.91709e-06 0.00163334 0.230169)
(0.000791135 0.000948173 0.228071)
(0.000229665 0.000896736 0.227271)
(0.000540382 0.000872073 0.226967)
(9.86299e-05 0.000820117 0.227145)
(0.000228643 0.000876491 0.227518)
(4.81581e-06 0.000886688 0.227951)
(5.01929e-05 0.000940927 0.228257)
(9.54078e-06 0.000910308 0.228307)
(-3.30263e-05 0.000939908 0.228282)
(1.09091e-05 0.000885276 0.227999)
(-0.000216385 0.000874646 0.227587)
(-8.79148e-05 0.0008187 0.227224)
(-0.000531404 0.000869378 0.227029)
(-0.000223598 0.000893308 0.2273)
(-0.000789932 0.000943407 0.228068)
(-2.89489e-06 0.00155337 0.228037)
(0.000787614 0.000894331 0.225915)
(0.000224665 0.000846893 0.225118)
(0.000542058 0.000821274 0.224811)
(9.68592e-05 0.000770992 0.224992)
(0.000230528 0.000824969 0.225365)
(3.94274e-06 0.000835092 0.225797)
(5.05824e-05 0.000887034 0.226104)
(9.43488e-06 0.000857182 0.226153)
(-3.36434e-05 0.000886059 0.226128)
(1.15638e-05 0.000833757 0.225845)
(-0.000218474 0.000823217 0.225434)
(-8.62949e-05 0.000769654 0.22507)
(-0.000533182 0.000818688 0.224873)
(-0.000218659 0.000843603 0.225147)
(-0.000786396 0.000889756 0.225912)
(-2.87971e-06 0.00147182 0.225856)
(0.000784296 0.000838415 0.223711)
(0.000219389 0.000794753 0.22292)
(0.000543808 0.000768314 0.222612)
(9.49127e-05 0.000719613 0.222794)
(0.000232385 0.000771312 0.223167)
(2.99943e-06 0.000781369 0.223598)
(5.09871e-05 0.000831021 0.223906)
(9.3349e-06 0.00080195 0.223953)
(-3.42661e-05 0.00083009 0.22393)
(1.22954e-05 0.000780111 0.223646)
(-0.00022053 0.000769651 0.223236)
(-8.45009e-05 0.000718354 0.222872)
(-0.000535042 0.000765836 0.222673)
(-0.000213455 0.000791599 0.222949)
(-0.000783076 0.000834026 0.223708)
(-2.87106e-06 0.00138857 0.223626)
(0.000781119 0.00078034 0.22146)
(0.000213808 0.00074023 0.220677)
(0.000545626 0.000713109 0.220368)
(9.27839e-05 0.000665902 0.220553)
(0.000234202 0.000715434 0.220925)
(1.98757e-06 0.000725432 0.221355)
(5.14096e-05 0.000772801 0.221662)
(9.2404e-06 0.000744529 0.221709)
(-3.48976e-05 0.000771915 0.221686)
(1.31019e-05 0.00072425 0.221402)
(-0.000222545 0.000713864 0.220993)
(-8.25264e-05 0.000664722 0.22063)
(-0.000536977 0.000710739 0.220428)
(-0.000207957 0.000737212 0.220705)
(-0.000779908 0.000776134 0.221457)
(-2.86831e-06 0.00130352 0.221346)
(0.000778012 0.000720047 0.219161)
(0.000207895 0.000683265 0.218389)
(0.000547504 0.000655597 0.218078)
(9.04658e-05 0.000609807 0.218267)
(0.000235969 0.000657274 0.218638)
(9.0963e-07 0.00066722 0.219066)
(5.18523e-05 0.000712315 0.219374)
(9.15084e-06 0.000684855 0.219419)
(-3.55415e-05 0.000711473 0.219397)
(1.39799e-05 0.000666112 0.219113)
(-0.000224507 0.000655795 0.218706)
(-8.03646e-05 0.000608705 0.218343)
(-0.000538978 0.000653336 0.218138)
(-0.000202138 0.000680381 0.218416)
(-0.000776821 0.000716021 0.219158)
(-2.87074e-06 0.0012166 0.219017)
(0.000774904 0.000657503 0.216813)
(0.000201625 0.000623823 0.216054)
(0.000549429 0.000595748 0.215743)
(8.79508e-05 0.000551304 0.215935)
(0.000237669 0.000596799 0.216305)
(-2.30873e-07 0.000606698 0.216732)
(5.23178e-05 0.000649528 0.217038)
(9.06554e-06 0.000622897 0.217083)
(-3.62014e-05 0.00064873 0.217062)
(1.49251e-05 0.000605664 0.216778)
(-0.000226401 0.00059541 0.216372)
(-7.80083e-05 0.000550282 0.216011)
(-0.000541034 0.000593594 0.215803)
(-0.000195972 0.000621072 0.216081)
(-0.000773743 0.000653654 0.21681)
(-2.87744e-06 0.00112778 0.216637)
(0.000771718 0.000592708 0.214416)
(0.000194972 0.000561907 0.213672)
(0.000551387 0.000533561 0.213361)
(8.52315e-05 0.000490405 0.213558)
(0.000239285 0.000534011 0.213926)
(-1.42917e-06 0.000543865 0.21435)
(5.28087e-05 0.000584442 0.214656)
(8.98368e-06 0.000558655 0.214699)
(-3.68814e-05 0.000583689 0.214678)
(1.59316e-05 0.000542906 0.214396)
(-0.00022821 0.000532713 0.213992)
(-7.54501e-05 0.000489462 0.213632)
(-0.00054313 0.000531517 0.21342)
(-0.000189433 0.000559289 0.213698)
(-0.000770596 0.000589034 0.214412)
(-2.88739e-06 0.00103707 0.214205)
(0.000768371 0.000525702 0.211967)
(0.000187909 0.000497557 0.211241)
(0.00055336 0.000469079 0.21093)
(8.23002e-05 0.000427161 0.211132)
(0.000240796 0.000468952 0.211497)
(-2.67893e-06 0.000478762 0.211919)
(5.33274e-05 0.000517099 0.212224)
(8.90427e-06 0.000492171 0.212266)
(-3.75855e-05 0.000516389 0.212246)
(1.69919e-05 0.000477876 0.211964)
(-0.000229913 0.000467744 0.211563)
(-7.26828e-05 0.000426298 0.211206)
(-0.000545249 0.000467144 0.210988)
(-0.000182496 0.000495071 0.211267)
(-0.000767295 0.000522201 0.211963)
(-2.89937e-06 0.000944511 0.211718)
(0.000764773 0.00045657 0.209463)
(0.000180414 0.000430861 0.208759)
(0.000555324 0.000402389 0.208448)
(7.91497e-05 0.00036167 0.208655)
(0.000242177 0.000401709 0.209018)
(-3.97202e-06 0.000411473 0.209437)
(5.38764e-05 0.000447584 0.20974)
(8.82614e-06 0.000423533 0.209781)
(-3.83183e-05 0.000446919 0.209762)
(1.80962e-05 0.000410661 0.209482)
(-0.000231488 0.000400592 0.209083)
(-6.96995e-05 0.000360887 0.208728)
(-0.000547366 0.000400563 0.208505)
(-0.000175134 0.000428506 0.208785)
(-0.000763749 0.000453239 0.209459)
(-2.912e-06 0.000850216 0.209173)
(0.000760826 0.000385449 0.206903)
(0.000172463 0.000361959 0.206223)
(0.000557249 0.000333631 0.205911)
(7.57733e-05 0.000294085 0.206125)
(0.000243398 0.000332425 0.206484)
(-5.29802e-06 0.00034214 0.2069)
(5.4458e-05 0.000376042 0.207201)
(8.7479e-06 0.000352883 0.207242)
(-3.90843e-05 0.000375421 0.207223)
(1.92323e-05 0.000341401 0.206944)
(-0.000232904 0.000331399 0.206548)
(-6.6494e-05 0.000293383 0.206197)
(-0.00054945 0.000331917 0.205968)
(-0.000167325 0.000359735 0.206248)
(-0.000759858 0.000382288 0.206898)
(-2.92365e-06 0.000754356 0.206565)
(0.000756422 0.000312542 0.204279)
(0.000164034 0.000291058 0.203627)
(0.000559096 0.000263013 0.203315)
(7.21653e-05 0.000224625 0.203536)
(0.000244424 0.000261308 0.203891)
(-6.64387e-06 0.000270966 0.204304)
(5.50739e-05 0.000302678 0.204602)
(8.6679e-06 0.000280429 0.204642)
(-3.98881e-05 0.000302101 0.204623)
(2.0385e-05 0.000270301 0.204347)
(-0.000234129 0.000260372 0.203953)
(-6.30613e-05 0.000224004 0.203607)