/*--------------------------------*- C++ -*----------------------------------*\
| =========                 |                                                 |
| \\      /  F ield         | OpenFOAM: The Open Source CFD Toolbox           |
|  \\    /   O peration     | Version:  v1912                                 |
|   \\  /    A nd           | Website:  www.openfoam.com                      |
|    \\/     M anipulation  |                                                 |
\*---------------------------------------------------------------------------*/
FoamFile
{
    version     2.0;
    format      ascii;
    class       volSymmTensorField;
    location    "200";
    object      UPrime2Mean;
}
// * * * * * * * * * * * * * * * * * * * * * * * * * * * * * * * * * * * * * //

dimensions      [0 2 -2 0 0 0 0];


internalField   nonuniform List<symmTensor> 
10147
(
(1.85963e-07 -2.20938e-08 1.64786e-07 3.57222e-07 -1.56379e-06 9.1985e-06)
(1.38937e-07 1.21767e-07 -4.62195e-07 3.95452e-07 -3.86819e-07 7.83458e-06)
(2.1685e-07 -4.00023e-08 1.0318e-07 4.20518e-08 3.99361e-08 4.23301e-06)
(5.65225e-08 3.88018e-09 2.17691e-07 3.23847e-08 -1.21564e-07 2.60787e-06)
(7.05295e-08 -8.30193e-10 1.79388e-07 4.40151e-08 -4.92083e-08 9.95488e-07)
(5.12215e-08 -4.65321e-09 6.91398e-08 3.63672e-08 -3.9735e-08 4.62607e-07)
(5.39825e-08 -5.70114e-09 1.28408e-08 2.91054e-08 -5.91062e-09 2.36724e-07)
(1.00289e-07 -1.14581e-09 1.3208e-08 1.58314e-08 9.37733e-09 1.0947e-07)
(1.16154e-07 1.57134e-08 7.49863e-08 1.63736e-08 2.3817e-08 1.95985e-07)
(8.14188e-08 1.02594e-08 8.82255e-08 2.52008e-08 1.69549e-08 2.61238e-07)
(7.98913e-08 -1.81695e-09 9.66404e-08 3.90406e-08 6.54239e-09 2.84254e-07)
(7.16329e-08 -1.24003e-08 8.23007e-08 4.10962e-08 3.52986e-09 2.84431e-07)
(5.53104e-08 -2.48592e-08 2.92589e-08 5.35079e-08 -3.85716e-08 2.82778e-07)
(2.73431e-08 -1.1145e-08 -2.51188e-08 5.23508e-08 -2.95168e-09 2.9532e-07)
(1.94316e-07 6.76214e-08 -2.13982e-09 7.71595e-08 6.91508e-08 6.4414e-07)
(2.86858e-07 -1.11571e-07 5.11019e-07 3.99922e-07 -1.36271e-07 3.6371e-06)
(1.92572e-08 1.0201e-08 -1.72283e-08 4.46121e-08 -1.12182e-07 4.65484e-07)
(2.83948e-08 1.22912e-10 -3.23842e-09 3.9581e-08 -3.92975e-08 2.79063e-07)
(4.72348e-08 -8.27769e-09 -4.85063e-09 2.9087e-08 9.01116e-09 3.64401e-07)
(1.01169e-07 -1.71143e-08 2.22317e-08 1.78162e-08 1.37491e-08 4.52787e-07)
(1.13056e-07 -4.51197e-10 9.99547e-08 9.78753e-09 7.10262e-09 8.90554e-07)
(7.03458e-08 6.93987e-09 7.73459e-08 9.82885e-09 6.51856e-09 1.017e-06)
(5.29325e-08 7.45192e-09 5.50165e-08 1.23363e-08 1.56355e-08 9.912e-07)
(2.82025e-08 1.87915e-09 3.44854e-08 1.21274e-08 1.40682e-08 8.44608e-07)
(1.82342e-08 -3.41551e-09 2.29491e-09 1.44192e-08 -1.18852e-08 5.13872e-07)
(1.75363e-08 1.03984e-09 -1.52737e-08 2.10515e-08 -2.40996e-08 3.68008e-07)
(5.0488e-08 8.72552e-09 -2.88742e-08 1.91431e-08 -5.80763e-08 4.42637e-07)
(1.70235e-07 -6.51285e-09 -4.71751e-08 8.46975e-08 -1.30818e-07 1.13395e-06)
(4.15263e-08 6.58452e-09 5.62097e-08 8.52999e-09 4.87135e-09 6.22581e-07)
(2.44015e-08 2.44584e-09 2.62526e-08 7.59335e-09 -1.71424e-08 5.50966e-07)
(1.84128e-08 1.5427e-09 -7.1427e-09 1.00201e-08 -3.91174e-08 3.65638e-07)
(1.92086e-08 8.88707e-09 -2.1437e-08 1.61109e-08 -3.05532e-08 3.08615e-07)
(6.83272e-08 2.42516e-08 4.02561e-08 1.95631e-08 -1.13862e-08 4.97701e-07)
(1.41147e-07 -6.6092e-09 1.56382e-07 7.52856e-08 -2.82777e-07 2.83424e-06)
(1.12616e-07 8.5604e-09 2.69947e-08 2.72346e-08 -7.04582e-08 1.09653e-06)
(1.87663e-07 -2.32299e-08 1.78863e-07 3.23135e-07 -1.46688e-06 8.87693e-06)
(1.33122e-07 1.11414e-07 -4.23744e-07 3.43888e-07 -3.72894e-07 7.79816e-06)
(2.01671e-07 -2.60659e-08 1.20596e-07 3.23135e-08 2.53929e-08 4.42254e-06)
(5.74615e-08 2.38451e-09 2.27192e-07 3.1853e-08 -1.26159e-07 2.67875e-06)
(7.09272e-08 -1.15331e-09 1.74992e-07 4.35848e-08 -4.4477e-08 9.46436e-07)
(5.15051e-08 -4.41292e-09 6.08463e-08 3.63147e-08 -3.00061e-08 4.1211e-07)
(5.43825e-08 -5.47591e-09 5.15223e-09 2.89909e-08 3.07424e-09 2.1457e-07)
(1.02295e-07 -1.8322e-09 1.26029e-08 1.55711e-08 1.47397e-08 1.1027e-07)
(1.16738e-07 1.43837e-08 7.96553e-08 1.52422e-08 2.3584e-08 2.21363e-07)
(8.1424e-08 9.0352e-09 9.41665e-08 2.36817e-08 1.65659e-08 2.8509e-07)
(8.00684e-08 -2.90818e-09 1.0041e-07 3.75149e-08 7.61448e-09 2.93924e-07)
(7.09608e-08 -1.32193e-08 8.12834e-08 3.95151e-08 7.80122e-09 2.74512e-07)
(5.36132e-08 -2.46638e-08 1.9018e-08 5.16615e-08 -2.98778e-08 2.63833e-07)
(2.74414e-08 -1.02363e-08 -2.942e-08 5.05506e-08 5.97562e-09 3.15814e-07)
(1.79769e-07 5.29776e-08 2.37477e-09 6.54551e-08 7.34318e-08 7.31498e-07)
(2.86043e-07 -1.01978e-07 5.06272e-07 3.48312e-07 -1.27702e-07 3.62061e-06)
(1.89518e-07 -2.41696e-08 1.93221e-07 2.92743e-07 -1.37305e-06 8.55011e-06)
(1.24064e-07 9.48224e-08 -3.80475e-07 2.97989e-07 -3.579e-07 7.73829e-06)
(1.82067e-07 -1.30262e-08 1.42709e-07 2.49397e-08 1.13421e-08 4.58898e-06)
(5.88129e-08 8.45665e-10 2.37135e-07 3.12473e-08 -1.29952e-07 2.73649e-06)
(7.1405e-08 -1.6168e-09 1.70533e-07 4.31066e-08 -3.94059e-08 8.98475e-07)
(5.18632e-08 -4.3171e-09 5.32068e-08 3.62408e-08 -2.01516e-08 3.71068e-07)
(5.48595e-08 -5.32129e-09 -1.54843e-09 2.88969e-08 1.21508e-08 2.0477e-07)
(1.04464e-07 -2.51133e-09 1.30047e-08 1.53846e-08 2.01384e-08 1.22561e-07)
(1.1741e-07 1.30854e-08 8.47353e-08 1.4202e-08 2.32735e-08 2.55194e-07)
(8.14044e-08 7.83878e-09 1.00161e-07 2.22447e-08 1.589e-08 3.15201e-07)
(8.02044e-08 -3.95545e-09 1.04238e-07 3.60264e-08 8.22351e-09 3.09006e-07)
(7.03309e-08 -1.3954e-08 8.06122e-08 3.79564e-08 1.15228e-08 2.69111e-07)
(5.20183e-08 -2.44473e-08 9.8417e-09 4.97738e-08 -2.19835e-08 2.5124e-07)
(2.79368e-08 -9.37365e-09 -3.26236e-08 4.87094e-08 1.38469e-08 3.44444e-07)
(1.60314e-07 3.89883e-08 5.85022e-09 5.61251e-08 7.60269e-08 8.19009e-07)
(2.81201e-07 -8.61855e-08 4.98422e-07 3.02389e-07 -1.18686e-07 3.5912e-06)
(1.91506e-07 -2.49361e-08 2.07524e-07 2.6684e-07 -1.28365e-06 8.22143e-06)
(1.15026e-07 7.76496e-08 -3.34485e-07 2.53818e-07 -3.42702e-07 7.65761e-06)
(1.61208e-07 -2.72108e-09 1.67984e-07 2.0104e-08 -1.61272e-09 4.73088e-06)
(6.01783e-08 -6.20741e-10 2.47496e-07 3.05787e-08 -1.32922e-07 2.78116e-06)
(7.1945e-08 -2.18477e-09 1.66018e-07 4.25473e-08 -3.41004e-08 8.52666e-07)
(5.22479e-08 -4.36315e-09 4.61754e-08 3.61469e-08 -1.03134e-08 3.3972e-07)
(5.53544e-08 -5.2419e-09 -7.28359e-09 2.88187e-08 2.11876e-08 2.06816e-07)
(1.06704e-07 -3.17116e-09 1.43225e-08 1.5262e-08 2.55299e-08 1.45622e-07)
(1.18167e-07 1.18432e-08 9.01777e-08 1.32579e-08 2.29459e-08 2.9684e-07)
(8.13744e-08 6.69308e-09 1.06171e-07 2.09055e-08 1.50038e-08 3.51152e-07)
(8.0306e-08 -4.94391e-09 1.08089e-07 3.45947e-08 8.42066e-09 3.2924e-07)
(6.97463e-08 -1.45894e-08 8.02673e-08 3.64416e-08 1.47063e-08 2.68067e-07)
(5.0541e-08 -2.42275e-08 1.7389e-09 4.78454e-08 -1.49502e-08 2.4392e-07)
(2.83845e-08 -8.67135e-09 -3.49087e-08 4.68465e-08 2.0666e-08 3.78777e-07)
(1.39089e-07 2.75121e-08 8.5321e-09 4.93634e-08 7.73399e-08 9.04031e-07)
(2.75622e-07 -6.97474e-08 4.88397e-07 2.58161e-07 -1.09941e-07 3.55049e-06)
(1.93619e-07 -2.55469e-08 2.21594e-07 2.4459e-07 -1.1987e-06 7.89213e-06)
(1.07761e-07 6.40076e-08 -2.87318e-07 2.1618e-07 -3.27555e-07 7.55868e-06)
(1.4434e-07 4.62436e-09 1.94777e-07 1.71167e-08 -1.33352e-08 4.84888e-06)
(6.15395e-08 -2.00523e-09 2.58129e-07 2.98576e-08 -1.35047e-07 2.81371e-06)
(7.25707e-08 -2.88342e-09 1.61434e-07 4.19513e-08 -2.86378e-08 8.09569e-07)
(5.26182e-08 -4.53606e-09 3.96505e-08 3.60244e-08 -5.62023e-10 3.17711e-07)
(5.58157e-08 -5.23049e-09 -1.21479e-08 2.87495e-08 3.01355e-08 2.19847e-07)
(1.08946e-07 -3.80353e-09 1.64676e-08 1.51945e-08 3.09113e-08 1.78585e-07)
(1.18998e-07 1.06634e-08 9.59214e-08 1.24061e-08 2.26326e-08 3.45552e-07)
(8.13379e-08 5.60359e-09 1.12172e-07 1.96645e-08 1.39569e-08 3.9252e-07)
(8.03746e-08 -5.87407e-09 1.11941e-07 3.3225e-08 8.25383e-09 3.54286e-07)
(6.91982e-08 -1.51285e-08 8.0195e-08 3.49734e-08 1.73814e-08 2.71007e-07)
(4.92103e-08 -2.39818e-08 -5.38979e-09 4.59106e-08 -8.74532e-09 2.40798e-07)
(2.8731e-08 -8.105e-09 -3.64319e-08 4.4997e-08 2.65331e-08 4.16867e-07)
(1.21427e-07 1.89159e-08 1.08065e-08 4.45202e-08 7.76327e-08 9.85132e-07)
(2.71163e-07 -5.67656e-08 4.76961e-07 2.20418e-07 -1.01496e-07 3.50013e-06)
(1.95852e-07 -2.60052e-08 2.35276e-07 2.24801e-07 -1.11809e-06 7.56404e-06)
(1.01942e-07 5.30338e-08 -2.40003e-07 1.83221e-07 -3.12525e-07 7.44415e-06)
(1.3107e-07 9.85393e-09 2.22289e-07 1.53942e-08 -2.38885e-08 4.94403e-06)
(6.29216e-08 -3.3193e-09 2.68925e-07 2.91018e-08 -1.36354e-07 2.83525e-06)
(7.32803e-08 -3.69412e-09 1.5676e-07 4.13124e-08 -2.30681e-08 7.69603e-07)
(5.29416e-08 -4.82094e-09 3.35463e-08 3.58682e-08 9.04386e-09 3.04523e-07)
(5.6202e-08 -5.27959e-09 -1.62509e-08 2.86807e-08 3.89604e-08 2.42895e-07)
(1.11131e-07 -4.39927e-09 1.93379e-08 1.51701e-08 3.6277e-08 2.20449e-07)
(1.19891e-07 9.55167e-09 1.01882e-07 1.16405e-08 2.23631e-08 4.00401e-07)
(8.12969e-08 4.57379e-09 1.18115e-07 1.85194e-08 1.27992e-08 4.38684e-07)
(8.04114e-08 -6.74602e-09 1.15759e-07 3.19186e-08 7.77347e-09 3.83679e-07)
(6.86794e-08 -1.5577e-08 8.03338e-08 3.35531e-08 1.95901e-08 2.77489e-07)
(4.80258e-08 -2.3715e-08 -1.16469e-08 4.398e-08 -3.31809e-09 2.40933e-07)
(2.89768e-08 -7.64502e-09 -3.7349e-08 4.31859e-08 3.15432e-08 4.57051e-07)
(1.06983e-07 1.2381e-08 1.27575e-08 4.10028e-08 7.70561e-08 1.06123e-06)
(2.67533e-07 -4.63631e-08 4.64673e-07 1.87327e-07 -9.33743e-08 3.44179e-06)
(1.98199e-07 -2.6325e-08 2.48445e-07 2.07138e-07 -1.04184e-06 7.23933e-06)
(9.72641e-08 4.40195e-08 -1.93282e-07 1.54655e-07 -2.97768e-07 7.31662e-06)
(1.2066e-07 1.33705e-08 2.49963e-07 1.46056e-08 -3.32784e-08 5.01763e-06)
(6.43413e-08 -4.56172e-09 2.79798e-07 2.83201e-08 -1.36887e-07 2.84699e-06)
(7.40699e-08 -4.60218e-09 1.51977e-07 4.06339e-08 -1.74462e-08 7.33061e-07)
(5.31952e-08 -5.20451e-09 2.77826e-08 3.56735e-08 1.84463e-08 2.99527e-07)
(5.64824e-08 -5.38452e-09 -1.97168e-08 2.86047e-08 4.7638e-08 2.74977e-07)
(1.13218e-07 -4.95578e-09 2.2815e-08 1.51775e-08 4.16153e-08 2.70154e-07)
(1.20831e-07 8.50786e-09 1.07974e-07 1.09527e-08 2.21552e-08 4.60449e-07)
(8.12535e-08 3.60295e-09 1.23951e-07 1.74647e-08 1.15727e-08 4.88952e-07)
(8.04197e-08 -7.56333e-09 1.19501e-07 3.06742e-08 7.02822e-09 4.16912e-07)
(6.81838e-08 -1.59434e-08 8.06272e-08 3.21789e-08 2.13745e-08 2.87112e-07)
(4.6981e-08 -2.34312e-08 -1.71381e-08 4.20666e-08 1.3857e-09 2.43523e-07)
(2.91184e-08 -7.27454e-09 -3.78006e-08 4.14321e-08 3.57876e-08 4.97945e-07)
(9.50542e-08 7.54218e-09 1.44368e-08 3.84875e-08 7.57733e-08 1.13155e-06)
(2.64455e-07 -3.78338e-08 4.51935e-07 1.58596e-07 -8.56583e-08 3.37706e-06)
(2.00646e-07 -2.65195e-08 2.60998e-07 1.91292e-07 -9.69948e-07 6.92031e-06)
(9.35481e-08 3.65483e-08 -1.47719e-07 1.3016e-07 -2.83401e-07 7.17851e-06)
(1.12632e-07 1.55287e-08 2.77364e-07 1.44747e-08 -4.15331e-08 5.07118e-06)
(6.58167e-08 -5.73445e-09 2.90679e-07 2.7522e-08 -1.36705e-07 2.85017e-06)
(7.49391e-08 -5.59266e-09 1.47078e-07 3.99207e-08 -1.18224e-08 7.00132e-07)
(5.33644e-08 -5.67284e-09 2.22839e-08 3.54369e-08 2.76056e-08 3.0206e-07)
(5.66355e-08 -5.53972e-09 -2.26706e-08 2.85146e-08 5.61508e-08 3.15124e-07)
(1.15178e-07 -5.4707e-09 2.67732e-08 1.52063e-08 4.69235e-08 3.26691e-07)
(1.21807e-07 7.52454e-09 1.14115e-07 1.03317e-08 2.20061e-08 5.24763e-07)
(8.12116e-08 2.68525e-09 1.29634e-07 1.6491e-08 1.03008e-08 5.42566e-07)
(8.04057e-08 -8.33312e-09 1.23131e-07 2.94853e-08 6.05183e-09 4.53418e-07)
(6.7707e-08 -1.62393e-08 8.10263e-08 3.08448e-08 2.27662e-08 2.99493e-07)
(4.60686e-08 -2.31338e-08 -2.19669e-08 4.01836e-08 5.42593e-09 2.47928e-07)
(2.9158e-08 -6.97599e-09 -3.79105e-08 3.9757e-08 3.93554e-08 5.38452e-07)
(8.51924e-08 4.07312e-09 1.58894e-08 3.6705e-08 7.39286e-08 1.1956e-06)
(2.61788e-07 -3.07652e-08 4.39034e-07 1.33904e-07 -7.83975e-08 3.30737e-06)
(2.03177e-07 -2.66016e-08 2.7286e-07 1.77011e-07 -9.02385e-07 6.6092e-06)
(9.06647e-08 3.03231e-08 -1.03735e-07 1.09262e-07 -2.69508e-07 7.032e-06)
(1.0661e-07 1.66244e-08 3.04165e-07 1.4786e-08 -4.87014e-08 5.1063e-06)
(6.73669e-08 -6.8407e-09 3.01506e-07 2.6716e-08 -1.35874e-07 2.84601e-06)
(7.58903e-08 -6.64976e-09 1.42059e-07 3.91768e-08 -6.24042e-09 6.70888e-07)
(5.34434e-08 -6.21191e-09 1.69695e-08 3.51556e-08 3.65037e-08 3.11433e-07)
(5.66498e-08 -5.73835e-09 -2.52307e-08 2.84049e-08 6.44855e-08 3.62482e-07)
(1.16992e-07 -5.94106e-09 3.11024e-08 1.52484e-08 5.22033e-08 3.89162e-07)
(1.22821e-07 6.59578e-09 1.20209e-07 9.76795e-09 2.19048e-08 5.9227e-07)
(8.11838e-08 1.81697e-09 1.35119e-07 1.55902e-08 8.99665e-09 5.98585e-07)
(8.03846e-08 -9.05918e-09 1.26613e-07 2.83464e-08 4.8704e-09 4.92448e-07)
(6.72514e-08 -1.64726e-08 8.14961e-08 2.95459e-08 2.37916e-08 3.14149e-07)
(4.52804e-08 -2.28263e-08 -2.62296e-08 3.8344e-08 8.86468e-09 2.53657e-07)
(2.91024e-08 -6.73377e-09 -3.77874e-08 3.81822e-08 4.23286e-08 5.77718e-07)
(7.70503e-08 1.69737e-09 1.71469e-08 3.54454e-08 7.16499e-08 1.25312e-06)
(2.59443e-07 -2.48656e-08 4.2617e-07 1.12783e-07 -7.16187e-08 3.23403e-06)
(2.05771e-07 -2.65841e-08 2.8397e-07 1.64098e-07 -8.39079e-07 6.30797e-06)
(8.85063e-08 2.51225e-08 -6.16378e-08 9.15395e-08 -2.56146e-07 6.87907e-06)
(1.02275e-07 1.68939e-08 3.30128e-07 1.53727e-08 -5.48481e-08 5.12471e-06)
(6.90107e-08 -7.88423e-09 3.12225e-07 2.59093e-08 -1.34464e-07 2.83559e-06)
(7.6929e-08 -7.75794e-09 1.36914e-07 3.84062e-08 -7.37365e-10 6.45265e-07)
(5.34349e-08 -6.80863e-09 1.17476e-08 3.48281e-08 4.51331e-08 3.26978e-07)
(5.65211e-08 -5.97285e-09 -2.75018e-08 2.82711e-08 7.26268e-08 4.16373e-07)
(1.18651e-07 -6.36412e-09 3.57178e-08 1.52964e-08 5.74541e-08 4.56874e-07)
(1.23885e-07 5.7248e-09 1.26188e-07 9.2563e-09 2.18608e-08 6.61963e-07)
(8.11877e-08 1.00143e-09 1.40389e-07 1.47608e-08 7.69483e-09 6.56108e-07)
(8.03766e-08 -9.73885e-09 1.29938e-07 2.7259e-08 3.52993e-09 5.33286e-07)
(6.68237e-08 -1.66452e-08 8.20287e-08 2.82831e-08 2.44992e-08 3.30667e-07)
(4.46079e-08 -2.25113e-08 -3.00088e-08 3.65623e-08 1.17627e-08 2.60315e-07)
(2.89617e-08 -6.53387e-09 -3.75242e-08 3.67292e-08 4.47785e-08 6.15077e-07)
(7.03348e-08 1.91303e-10 1.82281e-08 3.4548e-08 6.90529e-08 1.30405e-06)
(2.57355e-07 -1.99212e-08 4.13478e-07 9.48121e-08 -6.5333e-08 3.15816e-06)
(2.08405e-07 -2.64797e-08 2.94289e-07 1.52389e-07 -7.79934e-07 6.01825e-06)
(8.69795e-08 2.07739e-08 -2.16435e-08 7.6594e-08 -2.43356e-07 6.72151e-06)
(9.93572e-08 1.65287e-08 3.55087e-07 1.61085e-08 -6.0049e-08 5.12815e-06)
(7.07651e-08 -8.86933e-09 3.22785e-07 2.51084e-08 -1.32546e-07 2.81981e-06)
(7.80639e-08 -8.90204e-09 1.31635e-07 3.76123e-08 4.65854e-09 6.23083e-07)
(5.33475e-08 -7.45044e-09 6.52715e-09 3.44531e-08 5.34886e-08 3.48171e-07)
(5.62523e-08 -6.23517e-09 -2.95729e-08 2.81089e-08 8.0553e-08 4.76242e-07)
(1.20152e-07 -6.73715e-09 4.05545e-08 1.53441e-08 6.26688e-08 5.29337e-07)
(1.25007e-07 4.91025e-09 1.32037e-07 8.79117e-09 2.18791e-08 7.33201e-07)
(8.12339e-08 2.38095e-10 1.45461e-07 1.39995e-08 6.42707e-09 7.14547e-07)
(8.03992e-08 -1.03716e-08 1.33129e-07 2.62222e-08 2.07718e-09 5.75494e-07)
(6.64296e-08 -1.67611e-08 8.26369e-08 2.70567e-08 2.49407e-08 3.48868e-07)
(4.4043e-08 -2.21901e-08 -3.33729e-08 3.48549e-08 1.41762e-08 2.67561e-07)
(2.87469e-08 -6.36353e-09 -3.71981e-08 3.54202e-08 4.67682e-08 6.50018e-07)
(6.47977e-08 -6.28909e-10 1.91433e-08 3.38927e-08 6.62351e-08 1.3485e-06)
(2.55476e-07 -1.57684e-08 4.01049e-07 7.95981e-08 -5.9541e-08 3.08075e-06)
(2.11053e-07 -2.63012e-08 3.03793e-07 1.41745e-07 -7.24827e-07 5.7413e-06)
(8.60023e-08 1.71397e-08 1.61087e-08 6.40589e-08 -2.3117e-07 6.56108e-06)
(9.76332e-08 1.56813e-08 3.78926e-07 1.68995e-08 -6.43856e-08 5.11835e-06)
(7.26451e-08 -9.80089e-09 3.33142e-07 2.43183e-08 -1.30191e-07 2.79948e-06)
(7.93067e-08 -1.00679e-08 1.26202e-07 3.67979e-08 9.93222e-09 6.04035e-07)
(5.31931e-08 -8.12465e-09 1.23013e-09 3.40299e-08 6.1563e-08 3.74629e-07)
(5.58511e-08 -6.51687e-09 -3.15193e-08 2.79147e-08 8.82464e-08 5.41616e-07)
(1.215e-07 -7.05685e-09 4.55601e-08 1.53862e-08 6.78339e-08 6.06165e-07)
(1.26187e-07 4.14678e-09 1.37794e-07 8.36769e-09 2.19533e-08 8.05785e-07)
(8.13284e-08 -4.765e-10 1.50385e-07 1.33034e-08 5.2122e-09 7.73574e-07)
(8.04667e-08 -1.09613e-08 1.36229e-07 2.52346e-08 5.46986e-10 6.1882e-07)
(6.60735e-08 -1.68266e-08 8.33367e-08 2.58663e-08 2.516e-08 3.68685e-07)
(4.3578e-08 -2.18637e-08 -3.63815e-08 3.32401e-08 1.61579e-08 2.75098e-07)
(2.84698e-08 -6.21171e-09 -3.68716e-08 3.42797e-08 4.83565e-08 6.82178e-07)
(6.02377e-08 -9.12726e-10 1.98968e-08 3.33934e-08 6.32765e-08 1.38667e-06)
(2.53765e-07 -1.22798e-08 3.88951e-07 6.6778e-08 -5.42347e-08 3.00272e-06)
(2.1369e-07 -2.6061e-08 3.12478e-07 1.32048e-07 -6.73622e-07 5.47807e-06)
(8.55016e-08 1.41071e-08 5.15416e-08 5.3602e-08 -2.19615e-07 6.39959e-06)
(9.69254e-08 1.44744e-08 4.01566e-07 1.76767e-08 -6.79434e-08 5.097e-06)
(7.46641e-08 -1.06842e-08 3.43258e-07 2.35429e-08 -1.27462e-07 2.77531e-06)
(8.06735e-08 -1.12433e-08 1.20567e-07 3.59652e-08 1.50879e-08 5.8765e-07)
(5.29867e-08 -8.81885e-09 -4.21162e-09 3.35581e-08 6.93562e-08 4.06069e-07)
(5.53291e-08 -6.80986e-09 -3.34182e-08 2.76861e-08 9.57108e-08 6.12219e-07)
(1.22704e-07 -7.3201e-09 5.0699e-08 1.54171e-08 7.29336e-08 6.87108e-07)
(1.27426e-07 3.43261e-09 1.43612e-07 7.98239e-09 2.20714e-08 8.80196e-07)
(8.14784e-08 -1.14429e-09 1.55288e-07 1.26718e-08 4.0596e-09 8.33278e-07)
(8.05862e-08 -1.15071e-08 1.39302e-07 2.42955e-08 -1.02855e-09 6.6319e-07)
(6.57601e-08 -1.68466e-08 8.41383e-08 2.47146e-08 2.5205e-08 3.90075e-07)
(4.3205e-08 -2.15323e-08 -3.90896e-08 3.17372e-08 1.7761e-08 2.82681e-07)
(2.81431e-08 -6.06898e-09 -3.65943e-08 3.33339e-08 4.95981e-08 7.11342e-07)
(5.64963e-08 -7.82752e-10 2.04917e-08 3.29913e-08 6.02423e-08 1.41888e-06)
(2.52188e-07 -9.35376e-09 3.77237e-07 5.60233e-08 -4.93966e-08 2.92498e-06)
(2.1629e-07 -2.57715e-08 3.20353e-07 1.23195e-07 -6.26172e-07 5.22935e-06)
(8.54119e-08 1.15803e-08 8.46358e-08 4.49244e-08 -2.08708e-07 6.23887e-06)
(9.70889e-08 1.30088e-08 4.22967e-07 1.83911e-08 -7.081e-08 5.06577e-06)
(7.68333e-08 -1.15249e-08 3.531e-07 2.27848e-08 -1.24424e-07 2.74796e-06)
(8.21826e-08 -1.24178e-08 1.14654e-07 3.51176e-08 2.01499e-08 5.73525e-07)
(5.27404e-08 -9.52723e-09 -9.84609e-09 3.30386e-08 7.69179e-08 4.42355e-07)
(5.46986e-08 -7.11196e-09 -3.53499e-08 2.74216e-08 1.03002e-07 6.87995e-07)
(1.23773e-07 -7.52603e-09 5.59475e-08 1.54331e-08 7.79898e-08 7.72319e-07)
(1.28722e-07 2.76952e-09 1.49682e-07 7.6327e-09 2.2223e-08 9.57378e-07)
(8.16919e-08 -1.76478e-09 1.6036e-07 1.21052e-08 2.96801e-09 8.94212e-07)
(8.07619e-08 -1.20023e-08 1.42476e-07 2.3402e-08 -2.63422e-09 7.08859e-07)
(6.54975e-08 -1.68263e-08 8.50522e-08 2.36078e-08 2.51209e-08 4.12996e-07)
(4.29168e-08 -2.11959e-08 -4.15481e-08 3.03677e-08 1.90382e-08 2.90127e-07)
(2.778e-08 -5.92757e-09 -3.64035e-08 3.26101e-08 5.05429e-08 7.37435e-07)
(5.34482e-08 -3.41501e-10 2.09326e-08 3.26502e-08 5.71845e-08 1.4455e-06)
(2.50718e-07 -6.9063e-09 3.65944e-07 4.70391e-08 -4.50003e-08 2.84842e-06)
(2.18829e-07 -2.5444e-08 3.27444e-07 1.15097e-07 -5.82326e-07 4.9958e-06)
(8.56737e-08 9.47604e-09 1.15423e-07 3.77594e-08 -1.98463e-07 6.08063e-06)
(9.80001e-08 1.13673e-08 4.4312e-07 1.90099e-08 -7.30719e-08 5.02631e-06)
(7.91614e-08 -1.23284e-08 3.62646e-07 2.20458e-08 -1.21134e-07 2.71803e-06)
(8.38511e-08 -1.35861e-08 1.08392e-07 3.42588e-08 2.51829e-08 5.61513e-07)
(5.24667e-08 -1.02497e-08 -1.57277e-08 3.24728e-08 8.43189e-08 4.83506e-07)
(5.39731e-08 -7.42421e-09 -3.73903e-08 2.71206e-08 1.10166e-07 7.69011e-07)
(1.24715e-07 -7.67695e-09 6.12794e-08 1.54326e-08 8.30526e-08 8.62313e-07)
(1.30069e-07 2.15839e-09 1.56102e-07 7.31621e-09 2.24035e-08 1.03825e-06)
(8.19774e-08 -2.33698e-09 1.65762e-07 1.16033e-08 1.92868e-09 9.57175e-07)
(8.10018e-08 -1.2445e-08 1.45898e-07 2.25543e-08 -4.27603e-09 7.56352e-07)
(6.52951e-08 -1.67703e-08 8.61441e-08 2.25531e-08 2.49328e-08 4.3754e-07)
(4.2706e-08 -2.08537e-08 -4.37937e-08 2.91539e-08 2.0037e-08 2.9731e-07)
(2.73934e-08 -5.78117e-09 -3.63262e-08 3.21368e-08 5.12355e-08 7.60497e-07)
(5.09877e-08 3.24481e-10 2.12259e-08 3.2352e-08 5.4144e-08 1.46704e-06)
(2.4933e-07 -4.86633e-09 3.55103e-07 3.95633e-08 -4.10177e-08 2.77383e-06)
(2.2129e-07 -2.50894e-08 3.33789e-07 1.07673e-07 -5.41925e-07 4.77784e-06)
(8.62349e-08 7.72295e-09 1.43972e-07 3.18716e-08 -1.88885e-07 5.92634e-06)
(9.95501e-08 9.61736e-09 4.62042e-07 1.95128e-08 -7.48089e-08 4.98019e-06)
(8.16547e-08 -1.30993e-08 3.7187e-07 2.13276e-08 -1.17645e-07 2.68601e-06)
(8.56941e-08 -1.47465e-08 1.01718e-07 3.33918e-08 3.0259e-08 5.51614e-07)
(5.21869e-08 -1.09833e-08 -2.19631e-08 3.1864e-08 9.1579e-08 5.29633e-07)
(5.31723e-08 -7.74391e-09 -3.9627e-08 2.67832e-08 1.17189e-07 8.55475e-07)
(1.25541e-07 -7.77561e-09 6.66526e-08 1.54135e-08 8.81361e-08 9.57522e-07)
(1.31462e-07 1.5991e-09 1.62889e-07 7.03101e-09 2.26178e-08 1.12353e-06)
(8.23446e-08 -2.8608e-09 1.71598e-07 1.11652e-08 9.37831e-10 1.02304e-06)
(8.13165e-08 -1.28374e-08 1.49691e-07 2.17549e-08 -5.96919e-09 8.06303e-07)
(6.51608e-08 -1.66805e-08 8.75286e-08 2.15569e-08 2.46452e-08 4.63994e-07)
(4.25651e-08 -2.05048e-08 -4.58462e-08 2.81153e-08 2.07942e-08 3.04153e-07)
(2.69951e-08 -5.62501e-09 -3.63819e-08 3.1942e-08 5.17149e-08 7.8066e-07)
(4.90216e-08 1.14254e-09 2.13785e-08 3.20918e-08 5.1155e-08 1.48401e-06)
(2.48005e-07 -3.17463e-09 3.44736e-07 3.33658e-08 -3.74241e-08 2.70186e-06)
(2.23658e-07 -2.47165e-08 3.39426e-07 1.00855e-07 -5.04796e-07 4.57569e-06)
(8.70507e-08 6.26284e-09 1.70369e-07 2.70558e-08 -1.79969e-07 5.77713e-06)
(1.01643e-07 7.81348e-09 4.79764e-07 1.98898e-08 -7.60987e-08 4.92885e-06)
(8.43197e-08 -1.38424e-08 3.80736e-07 2.06334e-08 -1.13999e-07 2.65193e-06)
(8.77276e-08 -1.58945e-08 9.45525e-08 3.25208e-08 3.53889e-08 5.43843e-07)
(5.19259e-08 -1.17218e-08 -2.86593e-08 3.12162e-08 9.86666e-08 5.80845e-07)
(5.23195e-08 -8.06801e-09 -4.21463e-08 2.64109e-08 1.24033e-07 9.47605e-07)
(1.26269e-07 -7.82571e-09 7.20126e-08 1.53742e-08 9.32185e-08 1.0583e-06)
(1.32901e-07 1.09047e-09 1.70008e-07 6.77592e-09 2.28754e-08 1.21365e-06)
(8.28021e-08 -3.33703e-09 1.77902e-07 1.079e-08 3.76836e-12 1.09263e-06)
(8.17142e-08 -1.31801e-08 1.53946e-07 2.10039e-08 -7.72143e-09 8.59413e-07)
(6.51003e-08 -1.65577e-08 8.93195e-08 2.06243e-08 2.42493e-08 4.9273e-07)
(4.24882e-08 -2.01499e-08 -4.77189e-08 2.72761e-08 2.1339e-08 3.10613e-07)
(2.65957e-08 -5.45573e-09 -3.65841e-08 3.20514e-08 5.20115e-08 7.98119e-07)
(4.74653e-08 2.05222e-09 2.13957e-08 3.18755e-08 4.82445e-08 1.49699e-06)
(2.4673e-07 -1.78322e-09 3.34851e-07 2.82475e-08 -3.41961e-08 2.63296e-06)
(2.25925e-07 -2.43342e-08 3.44384e-07 9.45789e-08 -4.70767e-07 4.38924e-06)
(8.80817e-08 5.04742e-09 1.94717e-07 2.31353e-08 -1.71708e-07 5.63379e-06)
(1.04195e-07 5.99713e-09 4.96331e-07 2.01391e-08 -7.70211e-08 4.87342e-06)
(8.71651e-08 -1.45666e-08 3.89194e-07 1.99637e-08 -1.10188e-07 2.61505e-06)
(8.99694e-08 -1.70241e-08 8.67972e-08 3.16505e-08 4.05374e-08 5.3823e-07)
(5.17073e-08 -1.24579e-08 -3.58826e-08 3.05338e-08 1.05532e-07 6.37153e-07)
(5.14368e-08 -8.39311e-09 -4.50087e-08 2.60059e-08 1.30654e-07 1.04544e-06)
(1.26912e-07 -7.83037e-09 7.73117e-08 1.53147e-08 9.82658e-08 1.16483e-06)
(1.34389e-07 6.32072e-10 1.77412e-07 6.54995e-09 2.31844e-08 1.30879e-06)
(8.33558e-08 -3.76623e-09 1.84665e-07 1.04765e-08 -8.55622e-10 1.16657e-06)
(8.21994e-08 -1.34742e-08 1.58705e-07 2.03003e-08 -9.52168e-09 9.16341e-07)
(6.51173e-08 -1.64016e-08 9.16091e-08 1.97617e-08 2.37463e-08 5.242e-07)
(4.24716e-08 -1.9793e-08 -4.93815e-08 2.66701e-08 2.16711e-08 3.16572e-07)
(2.62061e-08 -5.26974e-09 -3.69425e-08 3.24881e-08 5.21361e-08 8.13064e-07)
(4.62422e-08 3.00349e-09 2.12695e-08 3.17154e-08 4.54288e-08 1.50649e-06)
(2.45492e-07 -6.54413e-10 3.25425e-07 2.40387e-08 -3.13133e-08 2.56739e-06)
(2.28088e-07 -2.39518e-08 3.48688e-07 8.8795e-08 -4.39645e-07 4.21763e-06)
(8.92906e-08 4.03413e-09 2.17162e-07 1.99569e-08 -1.64053e-07 5.49603e-06)
(1.07134e-07 4.19654e-09 5.11799e-07 2.02623e-08 -7.75962e-08 4.81371e-06)
(9.02008e-08 -1.5281e-08 3.97161e-07 1.93177e-08 -1.06202e-07 2.57456e-06)
(9.24348e-08 -1.81299e-08 7.83868e-08 3.07844e-08 4.56523e-08 5.34887e-07)
(5.15525e-08 -1.3186e-08 -4.36698e-08 2.9822e-08 1.12131e-07 6.98491e-07)
(5.05442e-08 -8.71687e-09 -4.82497e-08 2.55713e-08 1.37018e-07 1.14882e-06)
(1.27486e-07 -7.792e-09 8.25041e-08 1.52353e-08 1.0324e-07 1.27696e-06)
(1.35926e-07 2.24643e-10 1.85057e-07 6.35193e-09 2.35512e-08 1.40893e-06)
(8.40082e-08 -4.14691e-09 1.91855e-07 1.02234e-08 -1.61485e-09 1.24507e-06)
(8.27756e-08 -1.37215e-08 1.63967e-07 1.96451e-08 -1.13474e-08 9.77546e-07)
(6.52162e-08 -1.62148e-08 9.4439e-08 1.8979e-08 2.31564e-08 5.58895e-07)
(4.25152e-08 -1.9441e-08 -5.07698e-08 2.63362e-08 2.17645e-08 3.21859e-07)
(2.58367e-08 -5.06139e-09 -3.74575e-08 3.32809e-08 5.20855e-08 8.255e-07)
(4.52879e-08 3.95741e-09 2.09634e-08 3.16274e-08 4.27083e-08 1.51291e-06)
(2.44276e-07 2.41711e-10 3.16386e-07 2.05958e-08 -2.87622e-08 2.50518e-06)
(2.30152e-07 -2.35778e-08 3.52347e-07 8.346e-08 -4.11207e-07 4.05931e-06)
(9.06465e-08 3.18568e-09 2.37832e-07 1.73886e-08 -1.56932e-07 5.36265e-06)
(1.10403e-07 2.42844e-09 5.26192e-07 2.02644e-08 -7.78398e-08 4.74863e-06)
(9.3436e-08 -1.59936e-08 4.04516e-07 1.86962e-08 -1.02091e-07 2.53016e-06)
(9.51366e-08 -1.92084e-08 6.93081e-08 2.99244e-08 5.06729e-08 5.33972e-07)
(5.1481e-08 -1.39012e-08 -5.20213e-08 2.90849e-08 1.18423e-07 7.64636e-07)
(4.96598e-08 -9.03717e-09 -5.18808e-08 2.5109e-08 1.43088e-07 1.2573e-06)
(1.28002e-07 -7.71377e-09 8.75482e-08 1.51358e-08 1.08095e-07 1.3942e-06)
(1.37511e-07 -1.3244e-10 1.92885e-07 6.1808e-09 2.39702e-08 1.51377e-06)
(8.47594e-08 -4.4777e-09 1.9944e-07 1.00284e-08 -2.26405e-09 1.32791e-06)
(8.34489e-08 -1.39259e-08 1.69707e-07 1.90407e-08 -1.31694e-08 1.04311e-06)
(6.5405e-08 -1.60036e-08 9.78024e-08 1.82896e-08 2.25072e-08 5.97248e-07)
(4.26224e-08 -1.91026e-08 -5.18582e-08 2.63069e-08 2.16219e-08 3.26497e-07)
(2.54966e-08 -4.82427e-09 -3.81038e-08 3.44659e-08 5.18336e-08 8.35116e-07)
(4.45521e-08 4.89045e-09 2.04432e-08 3.16312e-08 4.00756e-08 1.51652e-06)
(2.43071e-07 9.27542e-10 3.07658e-07 1.77934e-08 -2.65381e-08 2.44629e-06)
(2.32123e-07 -2.32207e-08 3.55342e-07 7.85318e-08 -3.85213e-07 3.91263e-06)
(9.21307e-08 2.46891e-09 2.56804e-07 1.53197e-08 -1.50292e-07 5.23272e-06)
(1.13958e-07 7.03007e-10 5.39494e-07 2.01544e-08 -7.78005e-08 4.67767e-06)
(9.68872e-08 -1.67084e-08 4.11144e-07 1.80975e-08 -9.79045e-08 2.48183e-06)
(9.80855e-08 -2.02565e-08 5.95871e-08 2.90717e-08 5.55452e-08 5.35625e-07)
(5.15104e-08 -1.45985e-08 -6.09071e-08 2.83262e-08 1.24358e-07 8.35143e-07)
(4.88013e-08 -9.35204e-09 -5.59024e-08 2.46209e-08 1.48817e-07 1.37013e-06)
(1.28476e-07 -7.59844e-09 9.24118e-08 1.50159e-08 1.12784e-07 1.51571e-06)
(1.39141e-07 -4.39913e-10 2.00828e-07 6.03578e-09 2.44366e-08 1.62268e-06)
(8.56063e-08 -4.75937e-09 2.07378e-07 9.88947e-09 -2.79601e-09 1.41457e-06)
(8.42286e-08 -1.40911e-08 1.75901e-07 1.84887e-08 -1.49554e-08 1.11274e-06)
(6.56936e-08 -1.57738e-08 1.01667e-07 1.77061e-08 2.18243e-08 6.39413e-07)
(4.27977e-08 -1.87792e-08 -5.26669e-08 2.65945e-08 2.12807e-08 3.30769e-07)
(2.52038e-08 -4.5554e-09 -3.88332e-08 3.60772e-08 5.1346e-08 8.41619e-07)
(4.3997e-08 5.79559e-09 1.97223e-08 3.17558e-08 3.7534e-08 1.51753e-06)
(2.41871e-07 1.42499e-09 2.99191e-07 1.55256e-08 -2.46155e-08 2.39063e-06)
(2.34013e-07 -2.28895e-08 3.5768e-07 7.39723e-08 -3.61422e-07 3.77585e-06)
(9.3732e-08 1.85493e-09 2.74185e-07 1.36563e-08 -1.44098e-07 5.1056e-06)
(1.1776e-07 -9.48479e-10 5.5165e-07 1.99505e-08 -7.75284e-08 4.60064e-06)
(1.00567e-07 -1.7428e-08 4.16979e-07 1.75202e-08 -9.37096e-08 2.42994e-06)
(1.01288e-07 -2.12721e-08 4.94179e-08 2.82275e-08 6.02008e-08 5.40238e-07)
(5.16562e-08 -1.52752e-08 -7.0294e-08 2.75507e-08 1.2988e-07 9.09209e-07)
(4.79859e-08 -9.65968e-09 -6.03268e-08 2.41088e-08 1.54153e-07 1.4863e-06)
(1.28922e-07 -7.44911e-09 9.70683e-08 1.48762e-08 1.17262e-07 1.64044e-06)
(1.4081e-07 -7.00035e-10 2.08815e-07 5.9161e-09 2.49422e-08 1.73472e-06)
(8.65433e-08 -4.99422e-09 2.1561e-07 9.80475e-09 -3.20256e-09 1.50429e-06)
(8.51246e-08 -1.42186e-08 1.82516e-07 1.7988e-08 -1.66695e-08 1.18579e-06)
(6.60908e-08 -1.55248e-08 1.0598e-07 1.72359e-08 2.11337e-08 6.85103e-07)
(4.30439e-08 -1.84681e-08 -5.33062e-08 2.72127e-08 2.08294e-08 3.35378e-07)
(2.4976e-08 -4.2583e-09 -3.96011e-08 3.81343e-08 5.05847e-08 8.45102e-07)
(4.3591e-08 6.64624e-09 1.88605e-08 3.20381e-08 3.50626e-08 1.51571e-06)
(2.40668e-07 1.76069e-09 2.90977e-07 1.37046e-08 -2.29753e-08 2.33782e-06)
(2.35833e-07 -2.25884e-08 3.5941e-07 6.97409e-08 -3.39535e-07 3.64713e-06)
(9.54392e-08 1.31904e-09 2.90085e-07 1.23171e-08 -1.38292e-07 4.98048e-06)
(1.21744e-07 -2.46072e-09 5.62541e-07 1.96549e-08 -7.70882e-08 4.51711e-06)
(1.04472e-07 -1.81475e-08 4.22293e-07 1.6961e-08 -8.95823e-08 2.37843e-06)
(1.04744e-07 -2.22468e-08 3.93395e-08 2.73916e-08 6.45142e-08 5.48536e-07)
(5.19312e-08 -1.5924e-08 -7.9942e-08 2.67602e-08 1.34838e-07 9.84599e-07)
(4.72303e-08 -9.95784e-09 -6.5125e-08 2.35747e-08 1.58979e-07 1.603e-06)
(1.29353e-07 -7.26886e-09 1.01455e-07 1.47177e-08 1.21453e-07 1.76614e-06)
(1.42509e-07 -9.14182e-10 2.16743e-07 5.82044e-09 2.54808e-08 1.84778e-06)
(8.75626e-08 -5.18547e-09 2.23981e-07 9.77053e-09 -3.45915e-09 1.59525e-06)
(8.6145e-08 -1.43114e-08 1.89294e-07 1.75392e-08 -1.81998e-08 1.26026e-06)
(6.66035e-08 -1.52601e-08 1.10348e-07 1.68894e-08 2.05858e-08 7.33159e-07)
(4.33635e-08 -1.81714e-08 -5.4106e-08 2.81906e-08 2.04766e-08 3.42133e-07)
(2.48166e-08 -3.94145e-09 -4.04094e-08 4.06383e-08 4.96302e-08 8.47954e-07)
(4.32813e-08 7.37499e-09 1.79446e-08 3.24897e-08 3.26315e-08 1.51064e-06)
(2.39463e-07 1.97065e-09 2.82985e-07 1.22601e-08 -2.15904e-08 2.28684e-06)
(2.37579e-07 -2.23237e-08 3.6051e-07 6.58009e-08 -3.19273e-07 3.52458e-06)
(9.72302e-08 8.37398e-10 3.04523e-07 1.12343e-08 -1.32822e-07 4.85623e-06)