0 	0 	0 	0
5.01672e-05 	0.00350399 	2.13906e-05 	0.0161755
0.000100334 	0.00502773 	5.23565e-05 	0.030753
0.000150502 	0.00568028 	9.3643e-05 	0.0441112
0.000200669 	0.00615349 	0.000139193 	0.0564703
0.000250836 	0.00648472 	0.000187818 	0.0679095
0.000301003 	0.00663059 	0.00023886 	0.0784915
0.000351171 	0.00660731 	0.000290975 	0.0882811
0.000401338 	0.00644204 	0.000343011 	0.0973305
0.000451505 	0.0061619 	0.000393987 	0.105681
0.000501672 	0.00579276 	0.000443087 	0.113372
0.000551839 	0.00536002 	0.000489647 	0.120446
0.000602007 	0.00488874 	0.000533372 	0.126952
0.000652174 	0.00440103 	0.0005744 	0.132941
0.000702341 	0.00391332 	0.00061293 	0.138468
0.000752508 	0.00343603 	0.000648889 	0.143585
0.000802676 	0.00297503 	0.000681952 	0.148333
0.000852843 	0.00253667 	0.000711489 	0.152707
0.00090301 	0.00212043 	0.000738273 	0.156799
0.000953177 	0.00172775 	0.000762581 	0.160639
0.00100334 	0.0013595 	0.000784623 	0.164256
0.00105351 	0.00101638 	0.000804486 	0.16767
0.00110368 	0.000699804 	0.000822057 	0.170896
0.00115385 	0.000421367 	0.000836395 	0.173908
0.00120401 	0.000175441 	0.000848885 	0.176773
0.00125418 	-3.80406e-05 	0.000860142 	0.179505
0.00130435 	-0.000220038 	0.000870618 	0.182117
0.00135452 	-0.00036428 	0.000880447 	0.184587
0.00140468 	-0.000482244 	0.000889321 	0.186948
0.00145485 	-0.00058215 	0.000897189 	0.189224
0.00150502 	-0.000666811 	0.000903987 	0.191423
0.00155518 	-0.000733154 	0.00090946 	0.193509
0.00160535 	-0.000790203 	0.000914368 	0.195531
0.00165552 	-0.000839194 	0.000918763 	0.197495
0.00170569 	-0.00087791 	0.00092243 	0.199381
0.00175585 	-0.000908812 	0.000925632 	0.201205
0.00180602 	-0.000934338 	0.000928525 	0.202986
0.00185619 	-0.000952153 	0.000930999 	0.204705
0.00190635 	-0.000963022 	0.000932548 	0.206373
0.00195652 	-0.000969521 	0.00093354 	0.208011
0.00200669 	-0.000968381 	0.000933623 	0.209604
0.00205686 	-0.00096199 	0.000934173 	0.211177
0.00210702 	-0.000952117 	0.000935043 	0.212737
0.00215719 	-0.000934163 	0.000937469 	0.214281
0.00220736 	-0.000913026 	0.000939727 	0.215814
0.00225753 	-0.000886792 	0.000941715 	0.217328
0.00230769 	-0.000854008 	0.000941492 	0.218788
0.00235786 	-0.000818377 	0.000940375 	0.220222
0.00240803 	-0.000773894 	0.0009377 	0.221557
0.00245819 	-0.000726631 	0.000935511 	0.222863
0.00250836 	-0.000673731 	0.000934307 	0.224113
0.00255853 	-0.000616846 	0.000933668 	0.225335
0.0026087 	-0.000557133 	0.000933432 	0.226537
0.00265886 	-0.000493685 	0.000933285 	0.227724
0.00270903 	-0.00042935 	0.00093316 	0.228907
0.0027592 	-0.000364 	0.000934439 	0.230103
0.00280936 	-0.000298613 	0.000934846 	0.231308
0.00285953 	-0.000233032 	0.000930617 	0.232557
0.0029097 	-0.0001618 	0.000923272 	0.233825
0.00295987 	-7.63403e-05 	0.000908085 	0.235139
0.00301003 	3.05522e-05 	0.00089489 	0.236447
0.0030602 	0.000172927 	0.000884993 	0.237745
0.00311037 	0.000338591 	0.00088851 	0.238987
0.00316054 	0.000534546 	0.00090947 	0.240158
0.0032107 	0.00070969 	0.000943949 	0.241273
0.00326087 	0.000860204 	0.000994428 	0.24232
0.00331104 	0.000926845 	0.00103125 	0.243347
0.0033612 	0.000889216 	0.00105109 	0.244347
0.00341137 	0.00077985 	0.00104726 	0.245336
0.00346154 	0.000561767 	0.00100755 	0.246307
0.00351171 	0.000341396 	0.000966863 	0.247257
0.00356187 	0.000115993 	0.000924027 	0.248162
0.00361204 	-8.67834e-05 	0.000887685 	0.249053
0.00366221 	-0.000193224 	0.000878994 	0.249882
0.00371237 	-0.000296086 	0.000870829 	0.250709
0.00376254 	-0.000282344 	0.000879785 	0.25148
0.00381271 	-0.000268601 	0.000888741 	0.252251
0.00386288 	-0.000203226 	0.000894236 	0.25299
0.00391304 	-0.000127321 	0.000899024 	0.253722
0.00396321 	-4.32631e-05 	0.000899607 	0.254437
0.00401338 	4.64141e-05 	0.000897292 	0.25514
0.00406355 	0.000134603 	0.000894702 	0.255835
0.00411371 	0.000219531 	0.000891512 	0.25651
0.00416388 	0.000304459 	0.000888322 	0.257185
0.00421405 	0.000383001 	0.000887736 	0.25783
0.00426421 	0.000461504 	0.000887167 	0.258475
0.00431438 	0.000537064 	0.000887631 	0.2591
0.00436455 	0.000610915 	0.000888696 	0.259712
0.00441472 	0.000683839 	0.000889595 	0.260317
0.00446488 	0.000753637 	0.000889933 	0.260895
0.00451505 	0.000823436 	0.000890271 	0.261473
0.00456522 	0.000890215 	0.000889705 	0.262024
0.00461538 	0.000956153 	0.000888888 	0.262567
0.00466555 	0.00102103 	0.000887843 	0.263099
0.00471572 	0.00108334 	0.000886247 	0.263607
0.00476589 	0.00114564 	0.000884651 	0.264114
0.00481605 	0.00120528 	0.000883442 	0.264593
0.00486622 	0.00126407 	0.000882358 	0.265064
0.00491639 	0.00132223 	0.000881537 	0.265528
0.00496656 	0.00137751 	0.000881946 	0.26596
0.00501672 	0.00143278 	0.000882355 	0.266392
0.00506689 	0.00148625 	0.000883078 	0.266802
0.00511706 	0.00153824 	0.000884061 	0.267194
0.00516722 	0.00159022 	0.000885043 	0.267587
0.00521739 	0.00163976 	0.000886079 	0.267944
0.00526756 	0.00168894 	0.000887123 	0.268296
0.00531773 	0.00173781 	0.000888201 	0.268642
0.00536789 	0.00178492 	0.000889474 	0.268954
0.00541806 	0.00183204 	0.000890747 	0.269267
0.00546823 	0.0018787 	0.000892063 	0.269564
0.00551839 	0.00192464 	0.000893447 	0.269839
0.00556856 	0.00197058 	0.000894832 	0.270113
0.00561873 	0.00201637 	0.00089622 	0.270367
0.0056689 	0.00206205 	0.00089761 	0.270606
0.00571906 	0.00210773 	0.000899001 	0.270844
0.00576923 	0.00215376 	0.000900371 	0.27106
0.0058194 	0.00219994 	0.000901733 	0.271266
0.00586957 	0.00224613 	0.000903095 	0.271471
0.00591973 	0.00229306 	0.00090443 	0.271654
0.0059699 	0.00234022 	0.000905758 	0.27183
0.00602007 	0.00238737 	0.000907086 	0.272005
0.00607023 	0.00243545 	0.000908351 	0.272159
0.0061204 	0.00248377 	0.000909599 	0.272307
0.00617057 	0.00253209 	0.000910848 	0.272455
0.00622074 	0.00258136 	0.000911993 	0.272583
0.0062709 	0.00263092 	0.000913106 	0.272706
0.00632107 	0.00268049 	0.00091422 	0.272829
0.00637124 	0.00273087 	0.00091522 	0.272936
0.0064214 	0.00278164 	0.000916167 	0.273037
0.00647157 	0.0028324 	0.000917114 	0.273137
0.00652174 	0.00288376 	0.000917928 	0.273226
0.00657191 	0.0029356 	0.000918632 	0.273306
0.00662207 	0.00298745 	0.000919335 	0.273386
0.00667224 	0.0030396 	0.000919956 	0.273459
0.00672241 	0.00309232 	0.000920424 	0.27352
0.00677258 	0.00314503 	0.000920892 	0.273581
0.00682274 	0.00319781 	0.000921356 	0.273641
0.00687291 	0.0032511 	0.000921778 	0.273685
0.00692308 	0.00330439 	0.0009222 	0.273729
0.00697324 	0.00335768 	0.000922622 	0.273772
0.00702341 	0.00341107 	0.000921882 	0.273803
0.00707358 	0.00346448 	0.000920833 	0.27383
0.00712375 	0.0035179 	0.000919783 	0.273856
0.00717391 	0.00357112 	0.000918336 	0.273876
0.00722408 	0.00362407 	0.00091634 	0.273885
0.00727425 	0.00367701 	0.000914344 	0.273894
0.00732441 	0.00372996 	0.000912348 	0.273903
0.00737458 	0.00378119 	0.000911132 	0.273894
0.00742475 	0.00383241 	0.000909922 	0.273884
0.00747492 	0.00388363 	0.000908713 	0.273874
0.00752508 	0.00393374 	0.000907631 	0.273855
0.00757525 	0.00398275 	0.000906675 	0.273826
0.00762542 	0.00403175 	0.000905719 	0.273797
0.00767559 	0.00408075 	0.000904763 	0.273768
0.00772575 	0.00412844 	0.000903713 	0.273721
0.00777592 	0.00417612 	0.000902664 	0.273674
0.00782609 	0.00422381 	0.000901615 	0.273627
0.00787625 	0.00427089 	0.000899615 	0.27357
0.00792642 	0.00431753 	0.000896926 	0.273507
0.00797659 	0.00436417 	0.000894237 	0.273443
0.00802676 	0.00441047 	0.0008912 	0.273376
0.00807692 	0.0044555 	0.000886855 	0.273296
0.00812709 	0.00450053 	0.00088251 	0.273217
0.00817726 	0.00454556 	0.000878165 	0.273137
0.00822742 	0.00458847 	0.000873459 	0.273042
0.00827759 	0.00463116 	0.000868713 	0.272946
0.00832776 	0.00467384 	0.000863967 	0.272849
0.00837793 	0.0047144 	0.000858772 	0.272741
0.00842809 	0.00475381 	0.000853335 	0.272626
0.00847826 	0.00479322 	0.000847898 	0.272512
0.00852843 	0.00483057 	0.000842253 	0.272387
0.0085786 	0.00486544 	0.000836358 	0.27225
0.00862876 	0.00490031 	0.000830464 	0.272114
0.00867893 	0.00493313 	0.000824008 	0.271968
0.0087291 	0.00496154 	0.000816345 	0.271804
0.00877926 	0.00498994 	0.000808682 	0.27164
0.00882943 	0.00501599 	0.000800111 	0.271467
0.0088796 	0.00503434 	0.000788586 	0.271265
0.00892977 	0.00505269 	0.000777061 	0.271063
0.00897993 	0.00506805 	0.000765416 	0.27085
0.0090301 	0.0050719 	0.000753309 	0.270596
0.00908027 	0.00507575 	0.000741202 	0.270343
0.00913043 	0.00507594 	0.000730318 	0.270073
0.0091806 	0.00506399 	0.000723491 	0.269752
0.00923077 	0.00505204 	0.000716664 	0.26943
0.00928094 	0.00503604 	0.000711059 	0.269084
0.0093311 	0.00501096 	0.000708184 	0.268685
0.00938127 	0.00498588 	0.000705308 	0.268286
0.00943144 	0.00495691 	0.000700888 	0.267854
0.00948161 	0.00492294 	0.000694487 	0.26738
0.00953177 	0.00488898 	0.000688087 	0.266906
0.00958194 	0.00485257 	0.000678 	0.266393
0.00963211 	0.00481465 	0.000665632 	0.265854
0.00968227 	0.00477674 	0.000653264 	0.265316
0.00973244 	0.00473849 	0.000639144 	0.264729
0.00978261 	0.00470018 	0.000624707 	0.264134
0.00983278 	0.00466194 	0.00061027 	0.263532
0.00988294 	0.00462417 	0.000595834 	0.26288
0.00993311 	0.0045864 	0.000581397 	0.262229
0.00998328 	0.00454876 	0.000566885 	0.26155
0.0100334 	0.00451128 	0.000552282 	0.260838
0.0100836 	0.0044738 	0.00053768 	0.260127
0.0101338 	0.00443618 	0.000522501 	0.259363
0.0101839 	0.00439854 	0.000507199 	0.258588
0.0102341 	0.00436112 	0.000491833 	0.257799
0.0102843 	0.00432441 	0.000476268 	0.256966
0.0103344 	0.00428771 	0.000460702 	0.256132
0.0103846 	0.00425375 	0.000446226 	0.255267
0.0104348 	0.00422092 	0.000432199 	0.254388
0.0104849 	0.00418915 	0.0004183 	0.253502
0.0105351 	0.00416117 	0.000404867 	0.252589
0.0105853 	0.00413318 	0.000391433 	0.251676
0.0106355 	0.00410787 	0.000376308 	0.250739
0.0106856 	0.00408334 	0.00036068 	0.249795
0.0107358 	0.00405971 	0.000343866 	0.248839
0.010786 	0.00403762 	0.000325011 	0.247863
0.0108361 	0.00401555 	0.000306148 	0.246886
0.0108863 	0.00399581 	0.000286158 	0.245877
0.0109365 	0.00397608 	0.000266168 	0.244868
0.0109866 	0.00395832 	0.00024773 	0.243836
0.0110368 	0.00394147 	0.00023 	0.242794
0.011087 	0.00392591 	0.000213162 	0.241738
0.0111371 	0.00391223 	0.000197619 	0.240662
0.0111873 	0.00389907 	0.000182152 	0.23958
0.0112375 	0.00388848 	0.000167062 	0.23847
0.0112876 	0.00387788 	0.000151971 	0.237359
0.0113378 	0.00387026 	0.000137347 	0.236216
0.011388 	0.00386274 	0.000122736 	0.235072
0.0114381 	0.00385779 	0.00010885 	0.233901
0.0114883 	0.00385344 	9.51339e-05 	0.232724
0.0115385 	0.00385114 	8.2008e-05 	0.231524
0.0115886 	0.00384977 	6.91504e-05 	0.230314
0.0116388 	0.00384979 	5.67415e-05 	0.229084
0.011689 	0.00385072 	4.46285e-05 	0.227839
0.0117391 	0.00385239 	3.29048e-05 	0.226575
0.0117893 	0.00385465 	2.14943e-05 	0.225294
0.0118395 	0.00385709 	1.04842e-05 	0.223992
0.0118896 	0.0038597 	-1.87615e-07 	0.222671
0.0119398 	0.00386203 	-1.03678e-05 	0.221326
0.01199 	0.00386414 	-2.01699e-05 	0.219962
0.0120401 	0.00386553 	-2.93269e-05 	0.218569
0.0120903 	0.00386648 	-3.80942e-05 	0.217157
0.0121405 	0.00386623 	-4.60407e-05 	0.215709
0.0121906 	0.0038655 	-5.36612e-05 	0.214247
0.0122408 	0.00386294 	-6.02835e-05 	0.212738
0.012291 	0.00386004 	-6.67174e-05 	0.211221
0.0123411 	0.00385446 	-7.19555e-05 	0.209644
0.0123913 	0.00384828 	-7.69629e-05 	0.208054
0.0124415 	0.00383954 	-8.09993e-05 	0.206411
0.0124916 	0.00382927 	-8.4554e-05 	0.204738
0.0125418 	0.00381686 	-8.74301e-05 	0.203022
0.012592 	0.00380161 	-8.96092e-05 	0.201252
0.0126421 	0.00378496 	-9.14445e-05 	0.199456
0.0126923 	0.00376362 	-9.24356e-05 	0.197577
0.0127425 	0.00374052 	-9.31791e-05 	0.195669
0.0127926 	0.00371327 	-9.3362e-05 	0.193695
0.0128428 	0.00368203 	-9.30976e-05 	0.191664
0.012893 	0.00364831 	-9.25539e-05 	0.189595
0.0129431 	0.00360742 	-9.12943e-05 	0.187429
0.0129933 	0.00356326 	-8.97398e-05 	0.185218
0.0130435 	0.00351414 	-8.77409e-05 	0.182941
0.0130936 	0.00345733 	-8.51274e-05 	0.180564
0.0131438 	0.00339585 	-8.21756e-05 	0.178126
0.013194 	0.0033267 	-7.86988e-05 	0.175592
0.0132441 	0.00324835 	-7.47098e-05 	0.172948
0.0132943 	0.00316352 	-7.04082e-05 	0.170226
0.0133445 	0.00306921 	-6.57013e-05 	0.167393
0.0133946 	0.00296304 	-6.06479e-05 	0.164426
0.0134448 	0.00284812 	-5.53948e-05 	0.161363
0.013495 	0.00272334 	-4.99438e-05 	0.158195
0.0135452 	0.00258126 	-4.42813e-05 	0.154852
0.0135953 	0.00242692 	-3.85606e-05 	0.151393
0.0136455 	0.00225918 	-3.27794e-05 	0.14781
0.0136957 	0.00207388 	-2.69173e-05 	0.144072
0.0137458 	0.00186626 	-2.09591e-05 	0.140145
0.013796 	0.0016406 	-1.49939e-05 	0.136063
0.0138462 	0.00139605 	-9.10393e-06 	0.131815
0.0138963 	0.00113195 	-3.40105e-06 	0.12739
0.0139465 	0.000842763 	1.84042e-06 	0.122714
0.0139967 	0.000535407 	6.68753e-06 	0.11783
0.0140468 	0.00021189 	1.11589e-05 	0.112731
0.014097 	-0.000125237 	1.52753e-05 	0.107403
0.0141472 	-0.000472064 	1.90299e-05 	0.101833
0.0141973 	-0.000822967 	2.22992e-05 	0.0960076
0.0142475 	-0.00116674 	2.45402e-05 	0.0898711
0.0142977 	-0.00148997 	2.56502e-05 	0.0834662
0.0143478 	-0.00177689 	2.5838e-05 	0.0768117
0.014398 	-0.00200957 	2.53123e-05 	0.0699448
0.0144482 	-0.00217076 	2.41114e-05 	0.0629253
0.0144983 	-0.00224701 	2.22733e-05 	0.0558358
0.0145485 	-0.00223175 	2.0004e-05 	0.0487786
0.0145987 	-0.00212775 	1.76112e-05 	0.0418661
0.0146488 	-0.00194857 	1.53215e-05 	0.0352063
0.014699 	-0.00171849 	1.31514e-05 	0.0288869
0.0147492 	-0.00147319 	1.10002e-05 	0.0229652
0.0147993 	-0.00126615 	8.944e-06 	0.0174669
0.0148495 	-0.00118748 	6.28063e-06 	0.0123948
0.0148997 	-0.00122192 	3.77602e-06 	0.00776262
0.0149498 	-0.000969438 	2.05063e-06 	0.00362591
0.015 	0 	0 	0
