0 	373
5.01672e-05 	370.792
0.000100334 	368.584
0.000150502 	366.376
0.000200669 	364.167
0.000250836 	361.959
0.000301003 	359.751
0.000351171 	357.943
0.000401338 	357.646
0.000451505 	357.349
0.000501672 	357.052
0.000551839 	356.755
0.000602007 	356.458
0.000652174 	356.161
0.000702341 	355.864
0.000752508 	355.624
0.000802676 	355.525
0.000852843 	355.425
0.00090301 	355.326
0.000953177 	355.226
0.00100334 	355.127
0.00105351 	355.028
0.00110368 	354.928
0.00115385 	354.829
0.00120401 	354.732
0.00125418 	354.68
0.00130435 	354.629
0.00135452 	354.578
0.00140468 	354.527
0.00145485 	354.476
0.00150502 	354.425
0.00155518 	354.374
0.00160535 	354.323
0.00165552 	354.271
0.00170569 	354.22
0.00175585 	354.174
0.00180602 	354.14
0.00185619 	354.107
0.00190635 	354.073
0.00195652 	354.039
0.00200669 	354.006
0.00205686 	353.972
0.00210702 	353.939
0.00215719 	353.905
0.00220736 	353.872
0.00225753 	353.838
0.00230769 	353.804
0.00235786 	353.771
0.00240803 	353.743
0.00245819 	353.718
0.00250836 	353.693
0.00255853 	353.668
0.0026087 	353.643
0.00265886 	353.618
0.00270903 	353.593
0.0027592 	353.568
0.00280936 	353.543
0.00285953 	353.518
0.0029097 	353.493
0.00295987 	353.468
0.00301003 	353.443
0.0030602 	353.418
0.00311037 	353.393
0.00316054 	353.373
0.0032107 	353.352
0.00326087 	353.332
0.00331104 	353.312
0.0033612 	353.292
0.00341137 	353.272
0.00346154 	353.252
0.00351171 	353.232
0.00356187 	353.211
0.00361204 	353.191
0.00366221 	353.171
0.00371237 	353.151
0.00376254 	353.131
0.00381271 	353.111
0.00386288 	353.091
0.00391304 	353.07
0.00396321 	353.05
0.00401338 	353.033
0.00406355 	353.016
0.00411371 	352.999
0.00416388 	352.981
0.00421405 	352.964
0.00426421 	352.947
0.00431438 	352.93
0.00436455 	352.913
0.00441472 	352.896
0.00446488 	352.878
0.00451505 	352.861
0.00456522 	352.844
0.00461538 	352.827
0.00466555 	352.81
0.00471572 	352.793
0.00476589 	352.776
0.00481605 	352.758
0.00486622 	352.741
0.00491639 	352.724
0.00496656 	352.707
0.00501672 	352.691
0.00506689 	352.676
0.00511706 	352.66
0.00516722 	352.645
0.00521739 	352.63
0.00526756 	352.614
0.00531773 	352.599
0.00536789 	352.583
0.00541806 	352.568
0.00546823 	352.552
0.00551839 	352.537
0.00556856 	352.521
0.00561873 	352.506
0.0056689 	352.49
0.00571906 	352.475
0.00576923 	352.459
0.0058194 	352.444
0.00586957 	352.429
0.00591973 	352.413
0.0059699 	352.398
0.00602007 	352.382
0.00607023 	352.367
0.0061204 	352.351
0.00617057 	352.337
0.00622074 	352.322
0.0062709 	352.308
0.00632107 	352.293
0.00637124 	352.279
0.0064214 	352.264
0.00647157 	352.25
0.00652174 	352.235
0.00657191 	352.221
0.00662207 	352.206
0.00667224 	352.192
0.00672241 	352.177
0.00677258 	352.163
0.00682274 	352.149
0.00687291 	352.134
0.00692308 	352.12
0.00697324 	352.105
0.00702341 	352.091
0.00707358 	352.076
0.00712375 	352.062
0.00717391 	352.047
0.00722408 	352.033
0.00727425 	352.018
0.00732441 	352.004
0.00737458 	351.99
0.00742475 	351.975
0.00747492 	351.961
0.00752508 	351.946
0.00757525 	351.93
0.00762542 	351.914
0.00767559 	351.899
0.00772575 	351.883
0.00777592 	351.867
0.00782609 	351.852
0.00787625 	351.836
0.00792642 	351.82
0.00797659 	351.804
0.00802676 	351.789
0.00807692 	351.773
0.00812709 	351.757
0.00817726 	351.742
0.00822742 	351.726
0.00827759 	351.71
0.00832776 	351.695
0.00837793 	351.679
0.00842809 	351.663
0.00847826 	351.648
0.00852843 	351.632
0.0085786 	351.616
0.00862876 	351.601
0.00867893 	351.585
0.0087291 	351.569
0.00877926 	351.554
0.00882943 	351.538
0.0088796 	351.521
0.00892977 	351.502
0.00897993 	351.483
0.0090301 	351.464
0.00908027 	351.445
0.00913043 	351.426
0.0091806 	351.407
0.00923077 	351.388
0.00928094 	351.369
0.0093311 	351.35
0.00938127 	351.331
0.00943144 	351.312
0.00948161 	351.293
0.00953177 	351.274
0.00958194 	351.255
0.00963211 	351.236
0.00968227 	351.218
0.00973244 	351.199
0.00978261 	351.18
0.00983278 	351.161
0.00988294 	351.142
0.00993311 	351.123
0.00998328 	351.104
0.0100334 	351.084
0.0100836 	351.062
0.0101338 	351.04
0.0101839 	351.017
0.0102341 	350.995
0.0102843 	350.972
0.0103344 	350.95
0.0103846 	350.928
0.0104348 	350.905
0.0104849 	350.883
0.0105351 	350.86
0.0105853 	350.838
0.0106355 	350.815
0.0106856 	350.793
0.0107358 	350.771
0.010786 	350.748
0.0108361 	350.726
0.0108863 	350.703
0.0109365 	350.681
0.0109866 	350.658
0.0110368 	350.636
0.011087 	350.608
0.0111371 	350.581
0.0111873 	350.554
0.0112375 	350.526
0.0112876 	350.499
0.0113378 	350.472
0.011388 	350.444
0.0114381 	350.417
0.0114883 	350.39
0.0115385 	350.363
0.0115886 	350.335
0.0116388 	350.308
0.011689 	350.281
0.0117391 	350.253
0.0117893 	350.226
0.0118395 	350.199
0.0118896 	350.172
0.0119398 	350.136
0.01199 	350.1
0.0120401 	350.065
0.0120903 	350.029
0.0121405 	349.993
0.0121906 	349.958
0.0122408 	349.922
0.012291 	349.886
0.0123411 	349.851
0.0123913 	349.815
0.0124415 	349.779
0.0124916 	349.744
0.0125418 	349.708
0.012592 	349.672
0.0126421 	349.632
0.0126923 	349.58
0.0127425 	349.527
0.0127926 	349.475
0.0128428 	349.423
0.012893 	349.371
0.0129431 	349.319
0.0129933 	349.267
0.0130435 	349.214
0.0130936 	349.162
0.0131438 	349.11
0.013194 	349.058
0.0132441 	349.006
0.0132943 	348.926
0.0133445 	348.836
0.0133946 	348.747
0.0134448 	348.657
0.013495 	348.567
0.0135452 	348.478
0.0135953 	348.388
0.0136455 	348.298
0.0136957 	348.208
0.0137458 	348.119
0.013796 	348.029
0.0138462 	347.81
0.0138963 	347.584
0.0139465 	347.359
0.0139967 	347.133
0.0140468 	346.908
0.014097 	346.682
0.0141472 	346.457
0.0141973 	346.231
0.0142475 	346.006
0.0142977 	345.021
0.0143478 	343.729
0.014398 	342.438
0.0144482 	341.146
0.0144983 	339.855
0.0145485 	338.563
0.0145987 	337.272
0.0146488 	335.98
0.014699 	333.065
0.0147492 	329.721
0.0147993 	326.377
0.0148495 	323.033
0.0148997 	319.688
0.0149498 	316.344
0.015 	313
