/*--------------------------------*- C++ -*----------------------------------*\
| =========                 |                                                 |
| \\      /  F ield         | OpenFOAM: The Open Source CFD Toolbox           |
|  \\    /   O peration     | Version:  v1912                                 |
|   \\  /    A nd           | Website:  www.openfoam.com                      |
|    \\/     M anipulation  |                                                 |
\*---------------------------------------------------------------------------*/
FoamFile
{
    version     2.0;
    format      ascii;
    class       volScalarField;
    location    "99.6";
    object      T;
}
// * * * * * * * * * * * * * * * * * * * * * * * * * * * * * * * * * * * * * //

dimensions      [0 0 0 1 0 0 0];


internalField   nonuniform List<scalar> 
2528
(
372.078
371.429
371.306
371.736
370.219
368.281
367.918
369.195
368.316
365.118
364.536
366.626
366.357
361.993
361.238
364.049
364.351
359.028
358.162
361.52
362.36
356.419
355.494
359.153
360.512
354.337
353.379
357.097
358.933
352.806
351.826
355.457
357.67
351.718
350.728
354.226
356.693
350.94
349.949
353.325
355.936
350.366
349.382
352.662
355.34
349.928
348.952
352.163
354.857
349.58
348.611
351.776
354.455
349.291
348.329
351.468
354.113
349.044
348.088
351.214
353.812
348.828
347.879
351
353.543
348.637
347.696
350.815
353.298
348.464
347.533
350.652
353.074
348.308
347.387
350.507
352.866
348.164
347.255
350.377
352.672
348.031
347.134
350.26
352.491
347.906
347.023
350.153
352.32
347.789
346.92
350.056
352.158
347.679
346.825
349.965
352.004
347.573
346.735
349.881
351.858
347.472
346.651
349.802
351.717
347.374
346.572
349.727
351.581
347.279
346.497
349.656
351.451
347.188
346.425
349.588
351.325
347.099
346.357
349.523
351.203
347.013
346.291
349.462
351.085
346.931
346.227
349.403
350.969
346.852
346.166
349.348
350.857
346.777
346.106
349.294
350.746
346.705
346.047
349.243
350.638
346.636
345.99
349.194
350.532
346.568
345.934
349.147
350.428
346.5
345.881
349.101
350.327
346.433
345.83
349.056
350.227
346.366
345.779
349.012
350.13
346.301
345.728
348.97
350.034
346.238
345.677
348.929
349.94
346.176
345.626
348.889
349.846
346.115
345.575
348.85
349.752
346.052
345.523
348.814
349.658
345.981
345.471
348.78
349.564
345.888
345.418
348.747
349.47
345.773
345.366
348.715
349.379
345.663
345.313
348.683
349.291
345.581
345.26
348.651
349.208
345.514
345.207
348.619
349.127
345.452
345.154
348.585
349.045
345.39
345.102
348.55
348.961
345.328
345.048
348.515
348.873
345.266
344.992
348.478
348.781
345.203
344.934
348.439
348.69
345.141
344.874
348.4
348.607
345.078
344.811
348.359
348.532
345.015
344.747
348.314
348.462
344.951
344.68
348.256
348.393
344.888
344.61
348.175
348.325
344.824
344.54
348.071
348.256
344.76
344.469
347.972
348.187
344.695
344.399
347.899
348.118
344.63
344.33
347.838
348.041
344.564
344.262
347.778
347.952
344.498
344.195
347.716
347.855
344.432
344.129
347.653
347.766
344.353
344.063
347.587
347.692
344.228
343.998
347.518
347.625
344.063
343.933
347.445
347.56
343.957
343.868
347.369
347.499
343.887
343.803
347.289
347.44
343.825
343.737
347.203
347.384
343.769
343.671
347.114
347.331
343.718
343.605
347.019
347.281
343.672
343.538
346.921
347.234
343.633
343.471
346.819
347.19
343.601
343.403
346.716
371.807
371.471
371.423
371.836
369.408
368.405
368.265
369.496
366.968
365.316
365.09
367.126
364.5
362.244
361.954
364.741
362.049
359.291
358.974
362.397
359.723
356.627
356.332
360.209
357.669
354.422
354.196
358.321
355.994
352.737
352.601
356.82
354.706
351.507
351.455
355.688
353.739
350.614
350.631
354.847
353.01
349.953
350.023
354.213
352.449
349.448
349.559
353.722
352.005
349.048
349.191
353.327
351.642
348.718
348.887
352.997
351.337
348.439
348.629
352.714
351.074
348.197
348.405
352.468
350.846
347.985
348.206
352.25
350.643
347.796
348.028
352.055
350.462
347.627
347.866
351.878
350.298
347.474
347.717
351.718
350.149
347.335
347.58
351.57
350.011
347.207
347.452
351.432
349.884
347.089
347.331
351.304
349.764
346.978
347.218
351.184
349.652
346.874
347.111
351.07
349.547
346.775
347.009
350.962
349.446
346.681
346.911
350.86
349.35
346.591
346.818
350.762
349.259
346.505
346.728
350.667
349.171
346.422
346.642
350.577
349.086
346.341
346.561
350.49
349.005
346.261
346.484
350.406
348.926
346.183
346.411
350.324
348.85
346.104
346.34
350.246
348.776
346.013
346.271
350.17
348.704
345.902
346.204
350.096
348.634
345.796
346.134
350.024
348.566
345.713
346.059
349.955
348.499
345.647
345.981
349.888
348.434
345.587
345.911
349.822
348.371
345.528
345.852
349.759
348.309
345.47
345.798
349.696
348.248
345.413
345.745
349.635
348.189
345.357
345.693
349.575
348.131
345.302
345.641
349.515
348.074
345.248
345.591
349.453
348.018
345.195
345.54
349.39
347.964
345.142
345.49
349.304
347.911
345.091
345.44
349.179
347.859
345.041
345.387
349.079
347.809
344.993
345.33
349.016
347.76
344.947
345.25
348.966
347.712
344.902
345.123
348.918
347.665
344.858
345.009
348.87
347.62
344.816
344.935
348.822
347.575
344.774
344.885
348.775
347.53
344.734
344.839
348.728
347.487
344.694
344.791
348.681
347.442
344.655
344.741
348.633
347.396
344.617
344.689
348.585
347.335
344.579
344.636
348.537
347.246
344.541
344.583
348.488
347.158
344.503
344.529
348.439
347.101
344.465
344.474
348.391
347.061
344.427
344.421
348.343
347.025
344.389
344.368
348.296
346.987
344.349
344.316
348.249
346.949
344.309
344.265
348.203
346.911
344.267
344.216
348.157
346.873
344.223
344.169
348.111
346.835
344.179
344.123
348.065
346.799
344.134
344.077
348.019
346.762
344.09
344.032
347.974
346.727
344.045
343.987
347.928
346.691
344.001
343.942
347.883
346.656
343.956
343.899
347.837
346.621
343.912
343.857
347.79
346.586
343.856
343.812
347.74
346.55
343.751
343.754
347.672
371.981
371.359
371.218
371.681
369.94
368.051
367.635
369.027
367.893
364.68
364.003
366.339
365.845
361.301
360.395
363.649
363.813
358.069
356.979
361.024
361.853
355.243
354.001
358.589
360.054
353.03
351.656
356.489
358.505
351.437
349.963
354.811
357.24
350.328
348.794
353.542
356.237
349.55
347.99
352.606
355.447
348.988
347.425
351.914
354.819
348.567
347.014
351.393
354.312
348.237
346.701
350.993
353.895
347.97
346.454
350.677
353.544
347.748
346.255
350.42
353.243
347.561
346.092
350.207
352.98
347.401
345.956
350.028
352.749
347.262
345.841
349.876
352.542
347.139
345.742
349.744
352.357
347.03
345.655
349.629
352.189
346.933
345.58
349.528
352.036
346.845
345.512
349.438
351.895
346.765
345.452
349.358
351.766
346.692
345.397
349.286
351.646
346.626
345.347
349.22
351.533
346.565
345.301
349.161
351.427
346.508
345.257
349.106
351.327
346.454
345.216
349.056
351.231
346.403
345.176
349.009
351.14
346.353
345.137
348.965
351.052
346.304
345.1
348.924
350.968
346.254
345.064
348.885
350.887
346.203
345.028
348.847
350.81
346.146
344.992
348.811
350.734
346.082
344.957
348.776
350.662
346.019
344.922
348.742
350.59
345.966
344.887
348.708
350.521
345.921
344.852
348.675
350.452
345.879
344.815
348.642
350.385
345.837
344.778
348.61
350.319
345.795
344.741
348.577
350.255
345.753
344.703
348.544
350.191
345.711
344.665
348.511
350.128
345.668
344.625
348.477
350.066
345.625
344.585
348.442
350.004
345.581
344.543
348.407
349.944
345.537
344.501
348.37
349.884
345.493
344.457
348.332
349.824
345.447
344.411
348.294
349.764
345.401
344.364
348.254
349.704
345.355
344.316
348.215
349.643
345.307
344.267
348.175
349.582
345.258
344.216
348.134
349.521
345.209
344.166
348.093
349.458
345.158
344.117
348.051
349.395
345.106
344.07
348.008
349.332
345.053
344.025
347.964
349.267
344.999
343.981
347.919
349.201
344.943
343.939
347.874
349.134
344.885
343.899
347.827
349.066
344.827
343.86
347.778
348.998
344.766
343.823
347.728
348.928
344.704
343.786
347.676
348.858
344.641
343.75
347.622
348.788
344.576
343.714
347.565
348.718
344.509
343.678
347.506
348.647
344.441
343.637
347.444
348.576
344.372
343.583
347.379
348.505
344.301
343.509
347.311
348.433
344.23
343.413
347.24
348.362
344.158
343.312
347.165
348.291
344.086
343.224
347.087
348.22
344.014
343.158
347.004
348.149
343.943
343.107
346.918
348.079
343.872
343.061
346.828
348.009
343.804
343.015
346.733
347.94
343.737
342.967
346.634
347.871
343.672
342.918
346.532
347.803
343.61
342.867
346.426
371.832
371.677
371.783
371.988
369.487
369.022
369.336
369.945
367.118
366.339
366.847
367.853
364.736
363.641
364.317
365.708
362.378
360.977
361.779
363.542
360.126
358.45
359.322
361.449
358.103
356.204
357.086
359.575
356.411
354.345
355.194
358.028
355.072
352.885
353.681
356.816
354.04
351.76
352.503
355.885
353.243
350.89
351.587
355.161
352.617
350.203
350.863
354.584
352.11
349.645
350.278
354.108
351.686
349.174
349.789
353.704
351.32
348.768
349.368
353.352
350.999
348.412
349.002
353.042
350.714
348.096
348.679
352.765
350.459
347.813
348.392
352.517
350.228
347.556
348.135
352.293
350.018
347.322
347.902
352.092
349.826
347.109
347.69
351.912
349.649
346.916
347.497
351.75
349.485
346.742
347.319
351.602
349.332
346.585
347.154
351.466
349.189
346.439
347
351.339
349.055
346.298
346.857
351.219
348.929
346.154
346.722
351.1
348.81
346.002
346.596
350.971
348.699
345.843
346.479
350.834
348.596
345.695
346.371
350.704
348.502
345.568
346.273
350.595
348.413
345.455
346.181
350.499
348.328
345.348
346.09
350.409
348.241
345.246
345.996
350.323
348.151
345.147
345.897
350.242
348.058
345.05
345.799
350.163
347.97
344.956
345.709
350.087
347.894
344.865
345.63
350.013
347.825
344.777
345.558
349.941
347.76
344.691
345.49
349.871
347.697
344.608
345.425
349.803
347.637
344.526
345.362
349.736
347.578
344.448
345.301
349.671
347.523
344.372
345.243
349.607
347.468
344.298
345.186
349.545
347.407
344.226
345.132
349.484
347.33
344.156
345.079
349.423
347.247
344.089
345.028
349.364
347.183
344.023
344.978
349.307
347.133
343.959
344.93
349.251
347.086
343.897
344.883
349.196
347.043
343.836
344.838
349.142
347.001
343.776
344.795
349.09
346.961
343.719
344.752
349.04
346.924
343.664
344.711
348.991
346.887
343.61
344.671
348.943
346.853
343.559
344.633
348.897
346.82
343.51
344.596
348.853
346.788
343.464
344.559
348.811
346.759
343.42
344.514
348.762
346.724
343.378
344.442
348.683
346.671
343.338
344.345
348.585
346.605
343.301
344.284
348.522
346.565
343.266
344.243
348.478
346.539
343.234
344.207
348.439
346.517
343.203
344.172
348.403
346.498
343.175
344.139
348.37
346.481
343.149
344.107
348.339
346.466
343.125
344.075
348.311
346.452
343.103
344.043
348.284
346.439
343.082
344.012
348.26
346.427
343.062
343.983
348.238
346.415
343.041
343.956
348.218
346.405
343.02
343.931
348.2
346.395
342.999
343.908
348.184
346.386
342.977
343.888
348.169
346.378
342.954
343.869
348.153
346.372
342.931
343.853
348.128
346.366
342.905
343.839
348.091
347.149
343.574
343.335
346.614
347.112
343.552
343.267
346.516
347.078
343.533
343.201
346.422
347.047
343.517
343.133
346.335
347.018
343.504
343.055
346.255
346.991
343.494
342.961
346.18
346.967
343.486
342.856
346.111
346.943
343.48
342.755
346.047
346.921
343.475
342.671
345.986
346.9
343.473
342.603
345.93
346.879
343.471
342.547
345.875
346.859
343.471
342.495
345.824
346.839
343.472
342.445
345.774
346.819
343.473
342.394
345.725
346.798
343.476
342.343
345.677
346.777
343.48
342.292
345.629
346.756
343.484
342.239
345.582
346.734
343.488
342.185
345.532
346.71
343.494
342.127
345.477
346.686
343.499
342.063
345.419
346.661
343.505
341.995
345.364
346.634
343.51
341.926
345.313
346.607
343.515
341.861
345.264
346.578
343.521
341.803
345.216
346.548
343.526
341.749
345.167
346.517
343.53
341.696
345.117
346.485
343.535
341.644
345.066
346.452
343.539
341.592
345.013
346.419
343.542
341.54
344.959
346.384
343.545
341.489
344.904
346.349
343.548
341.438
344.848
346.313
343.549
341.387
344.792
346.276
343.55
341.336
344.734
346.238
343.55
341.285
344.676
346.198
343.548
341.234
344.616
346.158
343.546
341.182
344.555
346.116
343.542
341.131
344.492
346.074
343.539
341.078
344.428
346.03
343.534
341.025
344.363
345.985
343.529
340.97
344.296
345.939
343.523
340.914
344.229
345.891
343.517
340.857
344.16
345.841
343.51
340.799
344.09
345.79
343.501
340.739
344.019
345.736
343.492
340.677
343.946
345.681
343.482
340.613
343.872
345.625
343.471
340.547
343.795
345.567
343.458
340.478
343.715
345.508
343.444
340.405
343.633
345.447
343.427
340.328
343.546
345.384
343.409
340.247
343.456
345.318
343.388
340.159
343.36
345.249
343.363
340.065
343.259
345.177
343.334
339.963
343.151
345.099
343.299
339.85
343.034
345.017
343.257
339.724
342.908
344.928
343.206
339.583
342.77
344.832
343.145
339.422
342.617
344.727
343.069
339.236
342.448
344.61
342.976
339.02
342.258
344.48
342.861
338.766
342.041
344.331
342.717
338.46
341.791
344.16
342.536
338.085
341.499
343.96
342.306
337.62
341.15
343.72
342.01
337.034
340.717
343.425
341.62
336.294
340.164
343.045
341.085
335.358
339.442
342.531
340.338
334.194
338.488
341.808
339.284
332.789
337.232
340.759
337.823
331.164
335.626
339.238
335.891
329.365
333.674
337.127
333.523
327.453
331.444
334.443
330.851
325.484
329.034
331.35
328.031
323.498
326.537
328.041
325.181
321.522
324.014
324.654
322.364
319.569
321.501
321.267
319.608
317.648
319.019
317.917
316.919
315.762
316.578
314.625
314.294
313.913
314.183
346.514
343.609
343.693
347.567
346.48
343.53
343.645
347.488
346.447
343.478
343.605
347.441
346.417
343.431
343.566
347.405
346.388
343.386
343.526
347.369
346.36
343.342
343.487
347.336
346.333
343.298
343.448
347.304
346.306
343.254
343.411
347.273
346.28
343.209
343.375
347.244
346.254
343.165
343.341
347.215
346.228
343.119
343.309
347.187
346.202
343.074
343.279
347.159
346.175
343.028
343.25
347.131
346.149
342.981
343.222
347.104
346.122
342.935
343.195
347.076
346.096
342.888
343.168
347.048
346.069
342.841
343.141
347.02
346.041
342.795
343.115
346.991
346.014
342.748
343.089
346.962
345.986
342.701
343.063
346.932
345.959
342.655
343.037
346.902
345.931
342.609
343.01
346.871
345.902
342.563
342.984
346.841
345.874
342.517
342.958
346.809
345.846
342.472
342.931
346.776
345.814
342.427
342.905
346.743
345.766
342.382
342.878
346.71
345.694
342.337
342.85
346.676
345.62
342.292
342.823
346.642
345.571
342.238
342.795
346.608
345.535
342.161
342.766
346.573
345.5
342.062
342.736
346.537
345.466
341.978
342.706
346.501
345.433
341.918
342.67
346.464
345.399
341.868
342.622
346.426
345.366
341.819
342.559
346.387
345.331
341.77
342.496
346.348
345.296
341.721
342.447
346.308
345.261
341.671
342.403
346.266
345.224
341.62
342.358
346.224
345.186
341.567
342.312
346.181
345.146
341.512
342.263
346.135
345.105
341.455
342.211
346.086
345.063
341.395
342.156
346.034
345.018
341.331
342.095
345.98
344.972
341.262
342.026
345.922
344.923
341.189
341.946
345.862
344.871
341.108
341.859
345.798
344.816
341.019
341.768
345.731
344.758
340.919
341.676
345.659
344.694
340.806
341.579
345.582
344.626
340.68
341.472
345.499
344.55
340.541
341.349
345.41
344.465
340.389
341.209
345.314
344.371
340.22
341.052
345.209
344.265
340.033
340.879
345.093
344.148
339.824
340.687
344.966
344.017
339.589
340.475
344.824
343.869
339.322
340.236
344.665
343.702
339.02
339.968
344.487
343.51
338.674
339.664
344.285
343.288
338.275
339.315
344.054
343.028
337.808
338.913
343.788
342.721
337.245
338.437
343.476
342.351
336.549
337.855
343.106
341.893
335.678
337.125
342.657
341.301
334.587
336.199
342.088
340.507
333.238
335.027
341.337
339.42
331.626
333.572
340.318
337.933
329.799
331.844
338.92
335.966
327.847
329.906
337.039
333.542
325.867
327.852
334.659
330.806
323.928
325.765
331.896
327.937
322.063
323.695
328.936
325.065
320.278
321.662
325.928
322.253
318.567
319.672
322.95
319.519
316.919
317.721
320.03
316.863
315.322
315.808
317.174
314.275
313.767
313.929
314.379
347.737
343.553
342.814
346.319
347.674
343.505
342.761
346.214
347.614
343.467
342.708
346.115
347.557
343.437
342.656
346.02
347.504
343.416
342.604
345.931
347.453
343.401
342.552
345.848
347.406
343.393
342.501
345.769
347.361
343.389
342.451
345.695
347.319
343.391
342.401
345.625
347.278
343.396
342.353
345.559
347.24
343.405
342.305
345.497
347.203
343.417
342.258
345.438
347.167
343.432
342.212
345.383
347.133
343.449
342.167
345.33
347.1
343.467
342.122
345.279
347.068
343.486
342.079
345.23
347.037
343.507
342.036
345.183
347.007
343.528
341.993
345.138
346.978
343.549
341.952
345.094
346.949
343.571
341.911
345.052
346.92
343.592
341.87
345.01
346.892
343.614
341.83
344.969
346.863
343.636
341.789
344.929
346.835
343.657
341.747
344.889
346.806
343.678
341.705
344.849
346.777
343.697
341.662
344.81
346.747
343.716
341.618
344.77
346.716
343.734
341.572
344.731
346.685
343.75
341.525
344.69
346.654
343.764
341.476
344.65
346.623
343.777
341.426
344.608
346.591
343.787
341.373
344.566
346.56
343.797
341.312
344.522
346.529
343.804
341.244
344.478
346.497
343.81
341.169
344.432
346.465
343.813
341.091
344.385
346.433
343.813
341.015
344.336
346.4
343.81
340.941
344.285
346.367
343.804
340.869
344.232
346.333
343.794
340.796
344.177
346.298
343.781
340.721
344.119
346.261
343.764
340.641
344.057
346.224
343.743
340.557
343.992
346.184
343.717
340.468
343.923
346.142
343.686
340.373
343.85
346.096
343.65
340.273
343.772
346.046
343.609
340.168
343.69
345.991
343.561
340.057
343.603
345.932
343.507
339.939
343.511
345.868
343.447
339.815
343.414
345.8
343.379
339.683
343.31
345.726
343.304
339.542
343.2
345.647
343.221
339.39
343.082
345.561
343.129
339.228
342.956
345.469
343.027
339.052
342.822
345.368
342.915
338.863
342.676
345.259
342.79
338.659
342.518
345.139
342.651
338.436
342.347
345.008
342.497
338.192
342.159
344.863
342.325
337.92
341.951
344.701
342.132
337.61
341.721
344.519
341.914
337.25
341.462
344.313
341.666
336.823
341.167
344.078
341.38
336.308
340.822
343.805
341.046
335.675
340.406
343.483
340.642
334.886
339.889
343.094
340.131
333.903
339.229
342.603
339.46
332.696
338.36
341.947
338.551
331.263
337.199
341.026
337.304
329.643
335.655
339.685
335.622
327.901
333.686
337.736
333.48
326.102
331.355
335.079
330.966
324.291
328.815
331.856
328.233
322.493
326.222
328.36
325.413
320.715
323.666
324.819
322.585
318.96
321.181
321.337
319.786
317.226
318.77
317.94
317.033
315.516
316.424
314.63
314.333
313.833
314.132
346.362
342.868
343.828
348.068
346.358
342.809
343.819
348.053
346.355
342.775
343.813
348.04
346.351
342.757
343.809
348.028
346.348
342.742
343.807
348.016
346.345
342.728
343.806
348.004
346.343
342.714
343.803
347.992
346.341
342.699
343.797
347.98
346.339
342.685
343.79
347.968
346.338
342.669
343.782
347.954
346.336
342.652
343.773
347.94
346.334
342.634
343.762
347.926
346.333
342.609
343.748
347.91
346.33
342.574
343.733
347.894
346.327
342.542
343.715
347.877
346.324
342.519
343.696
347.859
346.319
342.499
343.675
347.839
346.313
342.477
343.652
347.819
346.306
342.453
343.628
347.798
346.298
342.428
343.6
347.775
346.289
342.401
343.56
347.751
346.278
342.372
343.497
347.726
346.265
342.341
343.436
347.699
346.251
342.308
343.39
347.671
346.234
342.274
343.356
347.642
346.215
342.237
343.325
347.611
346.187
342.197
343.292
347.58
346.14
342.156
343.258
347.547
346.098
342.112
343.223
347.513
346.068
342.065
343.186
347.478
346.042
342.015
343.148
347.442
346.016
341.96
343.108
347.404
345.987
341.894
343.066
347.365
345.957
341.803
343.023
347.324
345.925
341.706
342.978
347.283
345.89
341.622
342.931
347.239
345.853
341.553
342.882
347.192
345.814
341.488
342.833
347.14
345.773
341.423
342.782
347.083
345.728
341.354
342.729
347.022
345.681
341.282
342.676
346.962
345.63
341.208
342.62
346.902
345.576
341.13
342.563
346.843
345.512
341.049
342.504
346.782
345.435
340.964
342.443
346.718
345.35
340.875
342.38
346.651
345.267
340.782
342.315
346.581
345.188
340.685
342.248
346.508
345.111
340.583
342.178
346.431
345.031
340.476
342.106
346.352
344.946
340.364
342.03
346.268
344.855
340.246
341.951
346.181
344.756
340.121
341.868
346.09
344.648
339.989
341.781
345.993
344.532
339.848
341.688
345.891
344.405
339.698
341.588
345.783
344.269
339.537
341.48
345.667
344.12
339.363
341.363
345.543
343.959
339.173
341.235
345.408
343.781
338.964
341.093
345.26
343.585
338.729
340.933
345.097
343.365
338.46
340.75
344.916
343.117
338.147
340.538
344.711
342.832
337.772
340.285
344.476
342.497
337.311
339.973
344.201
342.09
336.732
339.576
343.871
341.575
335.988
339.054
343.457
340.899
335.026
338.347
342.909
339.982
333.797
337.377
342.152
338.712
332.281
336.057
341.071
336.977
330.509
334.335
339.514
334.737
328.55
332.234
337.363
332.083
326.484
329.847
334.639
329.187
324.37
327.292
331.511
326.197
322.249
324.66
328.178
323.198
320.141
322.014
324.771
320.226
318.059
319.386
321.358
317.297
316.009
316.797
317.976
314.42
313.995
314.255
314.645
)
;

boundaryField
{
    leftWall
    {
        type            fixedValue;
        value           uniform 373;
    }
    rightWall
    {
        type            fixedValue;
        value           uniform 313;
    }
    leftSides_periodic0
    {
        type            cyclic;
    }
    leftSides_periodic1
    {
        type            cyclic;
    }
    rightSides_periodic0
    {
        type            cyclic;
    }
    rightSides_periodic1
    {
        type            cyclic;
    }
    leftInOut_periodic0
    {
        type            cyclic;
    }
    leftInOut_periodic1
    {
        type            cyclic;
    }
    rightInOut_periodic0
    {
        type            cyclic;
    }
    rightInOut_periodic1
    {
        type            cyclic;
    }
}


// ************************************************************************* //
