/*--------------------------------*- C++ -*----------------------------------*\
| =========                 |                                                 |
| \\      /  F ield         | OpenFOAM: The Open Source CFD Toolbox           |
|  \\    /   O peration     | Version:  v1912                                 |
|   \\  /    A nd           | Website:  www.openfoam.com                      |
|    \\/     M anipulation  |                                                 |
\*---------------------------------------------------------------------------*/
FoamFile
{
    version     2.0;
    format      ascii;
    class       volVectorField;
    location    "99.6";
    object      wallShearStress;
}
// * * * * * * * * * * * * * * * * * * * * * * * * * * * * * * * * * * * * * //

dimensions      [1 -1 -2 0 0 0 0];


internalField   uniform (0 0 0);

boundaryField
{
    leftWall
    {
        type            calculated;
        value           nonuniform List<vector> 
16
(
(-0.00380481 0.0558273 -0.146681)
(0.008767 -0.000685449 -0.343396)
(0.0088014 0.00347813 -0.302429)
(-0.00054865 -1.06974e-05 -0.134991)
(-0.132104 -0.000867428 -0.210796)
(-0.0136919 0.00103081 -0.402919)
(-0.0832914 -0.00309278 -0.413573)
(-0.0015325 -0.000449299 -0.161889)
(0.0067861 -4.68668e-05 -0.237681)
(-0.00621223 -0.00087127 -0.368748)
(-0.00848977 0.00138853 -0.395004)
(0.00290415 0.000170322 -0.186942)
(0.115589 -0.000816188 -0.129461)
(0.0071975 0.000987851 -0.367213)
(0.0637788 -0.00306522 -0.336436)
(0.000619899 -0.000401459 -0.145332)
)
;
    }
    rightWall
    {
        type            calculated;
        value           nonuniform List<vector> 
16
(
(-0.0185409 -0.000405663 -0.450703)
(-0.0141465 -9.24089e-05 -0.287072)
(-0.0664712 -0.00124315 -0.41914)
(-0.00430711 -0.000710497 -0.401859)
(0.0419716 -0.000106547 -0.46275)
(-0.0138226 -7.25231e-05 -0.169791)
(-0.0256333 0.00161628 -0.249824)
(-0.00837981 0.00072367 -0.290775)
(0.00334604 -0.000143836 -0.305375)
(0.0138558 0.000381289 -0.200886)
(0.03359 -0.000922387 -0.110365)
(0.00944784 -0.000693288 -0.375421)
(-0.0438793 7.47021e-06 -0.359472)
(0.00764512 -0.000376288 -0.267693)
(0.0291226 0.00125544 -0.218915)
(0.00457403 0.000638558 -0.493507)
)
;
    }
    leftSides_periodic0
    {
        type            cyclic;
    }
    leftSides_periodic1
    {
        type            cyclic;
    }
    rightSides_periodic0
    {
        type            cyclic;
    }
    rightSides_periodic1
    {
        type            cyclic;
    }
    leftInOut_periodic0
    {
        type            cyclic;
    }
    leftInOut_periodic1
    {
        type            cyclic;
    }
    rightInOut_periodic0
    {
        type            cyclic;
    }
    rightInOut_periodic1
    {
        type            cyclic;
    }
}


// ************************************************************************* //
