0 	0 	0 	0
5.01672e-05 	-2.23883e-05 	-4.52612e-06 	0.0203536
0.000100334 	-4.47766e-05 	-9.05223e-06 	0.0407073
0.000150502 	-6.71649e-05 	-1.35783e-05 	0.0610609
0.000200669 	-8.95532e-05 	-1.81045e-05 	0.0814145
0.000250836 	-0.000111941 	-2.26306e-05 	0.101768
0.000301003 	-0.00013433 	-2.71567e-05 	0.122122
0.000351171 	-0.000154651 	-3.23961e-05 	0.140365
0.000401338 	-0.000167155 	-4.03328e-05 	0.150628
0.000451505 	-0.000179659 	-4.82695e-05 	0.16089
0.000501672 	-0.000192164 	-5.62062e-05 	0.171153
0.000551839 	-0.000204668 	-6.41429e-05 	0.181416
0.000602007 	-0.000217172 	-7.20796e-05 	0.191678
0.000652174 	-0.000229676 	-8.00163e-05 	0.201941
0.000702341 	-0.000242181 	-8.79531e-05 	0.212204
0.000752508 	-0.000251905 	-9.61138e-05 	0.221038
0.000802676 	-0.000254739 	-0.00010483 	0.22633
0.000852843 	-0.000257572 	-0.000113547 	0.231622
0.00090301 	-0.000260406 	-0.000122263 	0.236915
0.000953177 	-0.000263239 	-0.000130979 	0.242207
0.00100334 	-0.000266073 	-0.000139696 	0.247499
0.00105351 	-0.000268906 	-0.000148412 	0.252791
0.00110368 	-0.00027174 	-0.000157128 	0.258083
0.00115385 	-0.000274573 	-0.000165845 	0.263376
0.00120401 	-0.000277207 	-0.000174519 	0.268562
0.00125418 	-0.000275734 	-0.000182322 	0.271581
0.00130435 	-0.000274262 	-0.000190125 	0.2746
0.00135452 	-0.00027279 	-0.000197928 	0.277619
0.00140468 	-0.000271318 	-0.000205731 	0.280638
0.00145485 	-0.000269846 	-0.000213534 	0.283657
0.00150502 	-0.000268374 	-0.000221337 	0.286676
0.00155518 	-0.000266901 	-0.00022914 	0.289695
0.00160535 	-0.000265429 	-0.000236943 	0.292714
0.00165552 	-0.000263957 	-0.000244746 	0.295733
0.00170569 	-0.000262485 	-0.000252549 	0.298752
0.00175585 	-0.000260758 	-0.000259944 	0.301481
0.00180602 	-0.000258329 	-0.000266218 	0.303416
0.00185619 	-0.000255901 	-0.000272492 	0.30535
0.00190635 	-0.000253473 	-0.000278766 	0.307284
0.00195652 	-0.000251044 	-0.00028504 	0.309218
0.00200669 	-0.000248616 	-0.000291314 	0.311152
0.00205686 	-0.000246188 	-0.000297588 	0.313086
0.00210702 	-0.00024376 	-0.000303862 	0.31502
0.00215719 	-0.000241331 	-0.000310136 	0.316954
0.00220736 	-0.000238903 	-0.00031641 	0.318888
0.00225753 	-0.000236475 	-0.000322684 	0.320823
0.00230769 	-0.000234046 	-0.000328959 	0.322757
0.00235786 	-0.000231618 	-0.000335233 	0.324691
0.00240803 	-0.000229434 	-0.000340337 	0.326191
0.00245819 	-0.000227358 	-0.00034492 	0.327498
0.00250836 	-0.000225283 	-0.000349502 	0.328805
0.00255853 	-0.000223207 	-0.000354085 	0.330112
0.0026087 	-0.000221132 	-0.000358668 	0.331419
0.00265886 	-0.000219057 	-0.000363251 	0.332726
0.00270903 	-0.000216981 	-0.000367834 	0.334032
0.0027592 	-0.000214906 	-0.000372416 	0.335339
0.00280936 	-0.00021283 	-0.000376999 	0.336646
0.00285953 	-0.000210755 	-0.000381582 	0.337953
0.0029097 	-0.000208679 	-0.000386165 	0.33926
0.00295987 	-0.000206604 	-0.000390748 	0.340567
0.00301003 	-0.000204529 	-0.00039533 	0.341874
0.0030602 	-0.000202453 	-0.000399913 	0.343181
0.00311037 	-0.000200392 	-0.000404466 	0.344478
0.00316054 	-0.000198942 	-0.0004077 	0.345355
0.0032107 	-0.000197492 	-0.000410934 	0.346233
0.00326087 	-0.000196042 	-0.000414169 	0.34711
0.00331104 	-0.000194592 	-0.000417403 	0.347988
0.0033612 	-0.000193142 	-0.000420638 	0.348865
0.00341137 	-0.000191693 	-0.000423872 	0.349742
0.00346154 	-0.000190243 	-0.000427107 	0.35062
0.00351171 	-0.000188793 	-0.000430341 	0.351497
0.00356187 	-0.000187343 	-0.000433576 	0.352375
0.00361204 	-0.000185893 	-0.00043681 	0.353252
0.00366221 	-0.000184443 	-0.000440045 	0.35413
0.00371237 	-0.000182993 	-0.000443279 	0.355007
0.00376254 	-0.000181543 	-0.000446514 	0.355884
0.00381271 	-0.000180094 	-0.000449748 	0.356762
0.00386288 	-0.000178644 	-0.000452982 	0.357639
0.00391304 	-0.000177194 	-0.000456217 	0.358517
0.00396321 	-0.000175744 	-0.000459451 	0.359394
0.00401338 	-0.000174701 	-0.000461841 	0.359973
0.00406355 	-0.000173698 	-0.000464147 	0.360523
0.00411371 	-0.000172694 	-0.000466454 	0.361072
0.00416388 	-0.000171691 	-0.000468761 	0.361622
0.00421405 	-0.000170688 	-0.000471067 	0.362172
0.00426421 	-0.000169685 	-0.000473374 	0.362721
0.00431438 	-0.000168681 	-0.000475681 	0.363271
0.00436455 	-0.000167678 	-0.000477987 	0.363821
0.00441472 	-0.000166675 	-0.000480294 	0.36437
0.00446488 	-0.000165672 	-0.0004826 	0.36492
0.00451505 	-0.000164668 	-0.000484907 	0.36547
0.00456522 	-0.000163665 	-0.000487214 	0.366019
0.00461538 	-0.000162662 	-0.00048952 	0.366569
0.00466555 	-0.000161659 	-0.000491827 	0.367119
0.00471572 	-0.000160655 	-0.000494134 	0.367668
0.00476589 	-0.000159652 	-0.00049644 	0.368218
0.00481605 	-0.000158649 	-0.000498747 	0.368768
0.00486622 	-0.000157646 	-0.000501053 	0.369317
0.00491639 	-0.000156643 	-0.00050336 	0.369867
0.00496656 	-0.000155639 	-0.000505667 	0.370417
0.00501672 	-0.000154844 	-0.000507252 	0.370717
0.00506689 	-0.000154059 	-0.0005088 	0.371003
0.00511706 	-0.000153275 	-0.000510347 	0.37129
0.00516722 	-0.000152491 	-0.000511894 	0.371576
0.00521739 	-0.000151706 	-0.000513441 	0.371863
0.00526756 	-0.000150922 	-0.000514988 	0.37215
0.00531773 	-0.000150138 	-0.000516536 	0.372436
0.00536789 	-0.000149353 	-0.000518083 	0.372723
0.00541806 	-0.000148569 	-0.00051963 	0.373009
0.00546823 	-0.000147784 	-0.000521177 	0.373296
0.00551839 	-0.000147 	-0.000522724 	0.373583
0.00556856 	-0.000146216 	-0.000524271 	0.373869
0.00561873 	-0.000145431 	-0.000525819 	0.374156
0.0056689 	-0.000144647 	-0.000527366 	0.374442
0.00571906 	-0.000143862 	-0.000528913 	0.374729
0.00576923 	-0.000143078 	-0.00053046 	0.375016
0.0058194 	-0.000142294 	-0.000532007 	0.375302
0.00586957 	-0.000141509 	-0.000533554 	0.375589
0.00591973 	-0.000140725 	-0.000535102 	0.375876
0.0059699 	-0.000139941 	-0.000536649 	0.376162
0.00602007 	-0.000139156 	-0.000538196 	0.376449
0.00607023 	-0.000138372 	-0.000539743 	0.376735
0.0061204 	-0.000137587 	-0.00054129 	0.377022
0.00617057 	-0.000136901 	-0.00054232 	0.377162
0.00622074 	-0.000136264 	-0.000543087 	0.377229
0.0062709 	-0.000135626 	-0.000543854 	0.377295
0.00632107 	-0.000134989 	-0.000544621 	0.377361
0.00637124 	-0.000134352 	-0.000545388 	0.377427
0.0064214 	-0.000133715 	-0.000546155 	0.377493
0.00647157 	-0.000133078 	-0.000546922 	0.37756
0.00652174 	-0.00013244 	-0.000547689 	0.377626
0.00657191 	-0.000131803 	-0.000548456 	0.377692
0.00662207 	-0.000131166 	-0.000549223 	0.377758
0.00667224 	-0.000130529 	-0.00054999 	0.377824
0.00672241 	-0.000129892 	-0.000550758 	0.377891
0.00677258 	-0.000129254 	-0.000551525 	0.377957
0.00682274 	-0.000128617 	-0.000552292 	0.378023
0.00687291 	-0.00012798 	-0.000553059 	0.378089
0.00692308 	-0.000127343 	-0.000553826 	0.378155
0.00697324 	-0.000126706 	-0.000554593 	0.378222
0.00702341 	-0.000126068 	-0.00055536 	0.378288
0.00707358 	-0.000125431 	-0.000556127 	0.378354
0.00712375 	-0.000124794 	-0.000556894 	0.37842
0.00717391 	-0.000124157 	-0.000557661 	0.378486
0.00722408 	-0.00012352 	-0.000558428 	0.378553
0.00727425 	-0.000122882 	-0.000559195 	0.378619
0.00732441 	-0.000122245 	-0.000559962 	0.378685
0.00737458 	-0.000121608 	-0.000560729 	0.378751
0.00742475 	-0.000120971 	-0.000561496 	0.378817
0.00747492 	-0.000120334 	-0.000562263 	0.378884
0.00752508 	-0.000119754 	-0.000562643 	0.378851
0.00757525 	-0.000119232 	-0.000562636 	0.378719
0.00762542 	-0.000118711 	-0.000562628 	0.378587
0.00767559 	-0.000118189 	-0.000562621 	0.378454
0.00772575 	-0.000117667 	-0.000562613 	0.378322
0.00777592 	-0.000117145 	-0.000562606 	0.37819
0.00782609 	-0.000116623 	-0.000562598 	0.378058
0.00787625 	-0.000116102 	-0.000562591 	0.377926
0.00792642 	-0.00011558 	-0.000562584 	0.377794
0.00797659 	-0.000115058 	-0.000562576 	0.377662
0.00802676 	-0.000114536 	-0.000562569 	0.37753
0.00807692 	-0.000114014 	-0.000562561 	0.377397
0.00812709 	-0.000113493 	-0.000562554 	0.377265
0.00817726 	-0.000112971 	-0.000562546 	0.377133
0.00822742 	-0.000112449 	-0.000562539 	0.377001
0.00827759 	-0.000111927 	-0.000562531 	0.376869
0.00832776 	-0.000111405 	-0.000562524 	0.376737
0.00837793 	-0.000110884 	-0.000562516 	0.376605
0.00842809 	-0.000110362 	-0.000562509 	0.376473
0.00847826 	-0.00010984 	-0.000562502 	0.376341
0.00852843 	-0.000109318 	-0.000562494 	0.376208
0.0085786 	-0.000108796 	-0.000562487 	0.376076
0.00862876 	-0.000108275 	-0.000562479 	0.375944
0.00867893 	-0.000107753 	-0.000562472 	0.375812
0.0087291 	-0.000107231 	-0.000562464 	0.37568
0.00877926 	-0.000106709 	-0.000562457 	0.375548
0.00882943 	-0.000106187 	-0.000562449 	0.375416
0.0088796 	-0.00010572 	-0.000562123 	0.375203
0.00892977 	-0.000105359 	-0.000561168 	0.37483
0.00897993 	-0.000104998 	-0.000560212 	0.374458
0.0090301 	-0.000104637 	-0.000559257 	0.374086
0.00908027 	-0.000104276 	-0.000558302 	0.373713
0.00913043 	-0.000103916 	-0.000557346 	0.373341
0.0091806 	-0.000103555 	-0.000556391 	0.372969
0.00923077 	-0.000103194 	-0.000555436 	0.372596
0.00928094 	-0.000102833 	-0.00055448 	0.372224
0.0093311 	-0.000102472 	-0.000553525 	0.371852
0.00938127 	-0.000102112 	-0.00055257 	0.371479
0.00943144 	-0.000101751 	-0.000551615 	0.371107
0.00948161 	-0.00010139 	-0.000550659 	0.370735
0.00953177 	-0.000101029 	-0.000549704 	0.370362
0.00958194 	-0.000100668 	-0.000548749 	0.36999
0.00963211 	-0.000100308 	-0.000547793 	0.369618
0.00968227 	-9.99467e-05 	-0.000546838 	0.369245
0.00973244 	-9.95859e-05 	-0.000545883 	0.368873
0.00978261 	-9.92251e-05 	-0.000544927 	0.3685
0.00983278 	-9.88642e-05 	-0.000543972 	0.368128
0.00988294 	-9.85034e-05 	-0.000543017 	0.367756
0.00993311 	-9.81426e-05 	-0.000542061 	0.367383
0.00998328 	-9.77818e-05 	-0.000541106 	0.367011
0.0100334 	-9.74388e-05 	-0.000540095 	0.366624
0.0100836 	-9.74274e-05 	-0.000538036 	0.365968
0.0101338 	-9.7416e-05 	-0.000535977 	0.365312
0.0101839 	-9.74046e-05 	-0.000533918 	0.364655
0.0102341 	-9.73932e-05 	-0.000531859 	0.363999
0.0102843 	-9.73818e-05 	-0.0005298 	0.363342
0.0103344 	-9.73704e-05 	-0.000527741 	0.362686
0.0103846 	-9.7359e-05 	-0.000525682 	0.36203
0.0104348 	-9.73476e-05 	-0.000523623 	0.361373
0.0104849 	-9.73362e-05 	-0.000521564 	0.360717
0.0105351 	-9.73248e-05 	-0.000519505 	0.360061
0.0105853 	-9.73134e-05 	-0.000517446 	0.359404
0.0106355 	-9.7302e-05 	-0.000515387 	0.358748
0.0106856 	-9.72906e-05 	-0.000513328 	0.358092
0.0107358 	-9.72792e-05 	-0.000511268 	0.357435
0.010786 	-9.72678e-05 	-0.000509209 	0.356779
0.0108361 	-9.72564e-05 	-0.00050715 	0.356122
0.0108863 	-9.7245e-05 	-0.000505091 	0.355466
0.0109365 	-9.72336e-05 	-0.000503032 	0.35481
0.0109866 	-9.72222e-05 	-0.000500973 	0.354153
0.0110368 	-9.72668e-05 	-0.000498772 	0.353464
0.011087 	-9.7883e-05 	-0.000495121 	0.35244
0.0111371 	-9.84992e-05 	-0.000491471 	0.351416
0.0111873 	-9.91154e-05 	-0.00048782 	0.350392
0.0112375 	-9.97316e-05 	-0.000484169 	0.349368
0.0112876 	-0.000100348 	-0.000480518 	0.348343
0.0113378 	-0.000100964 	-0.000476868 	0.347319
0.011388 	-0.00010158 	-0.000473217 	0.346295
0.0114381 	-0.000102196 	-0.000469566 	0.345271
0.0114883 	-0.000102813 	-0.000465915 	0.344247
0.0115385 	-0.000103429 	-0.000462264 	0.343223
0.0115886 	-0.000104045 	-0.000458614 	0.342199
0.0116388 	-0.000104661 	-0.000454963 	0.341175
0.011689 	-0.000105277 	-0.000451312 	0.34015
0.0117391 	-0.000105893 	-0.000447661 	0.339126
0.0117893 	-0.00010651 	-0.000444011 	0.338102
0.0118395 	-0.000107126 	-0.00044036 	0.337078
0.0118896 	-0.000107742 	-0.000436709 	0.336054
0.0119398 	-0.000109246 	-0.000430573 	0.334492
0.01199 	-0.000110771 	-0.000424379 	0.332917
0.0120401 	-0.000112296 	-0.000418186 	0.331343
0.0120903 	-0.000113821 	-0.000411993 	0.329768
0.0121405 	-0.000115346 	-0.000405799 	0.328194
0.0121906 	-0.000116871 	-0.000399606 	0.326619
0.0122408 	-0.000118396 	-0.000393412 	0.325045
0.012291 	-0.00011992 	-0.000387219 	0.32347
0.0123411 	-0.000121445 	-0.000381025 	0.321896
0.0123913 	-0.00012297 	-0.000374832 	0.320321
0.0124415 	-0.000124495 	-0.000368638 	0.318746
0.0124916 	-0.00012602 	-0.000362445 	0.317172
0.0125418 	-0.000127545 	-0.000356251 	0.315597
0.012592 	-0.00012907 	-0.000350058 	0.314023
0.0126421 	-0.00013085 	-0.000342903 	0.312164
0.0126923 	-0.000133202 	-0.000333592 	0.309666
0.0127425 	-0.000135554 	-0.000324281 	0.307169
0.0127926 	-0.000137906 	-0.00031497 	0.304671
0.0128428 	-0.000140258 	-0.000305659 	0.302174
0.012893 	-0.00014261 	-0.000296348 	0.299676
0.0129431 	-0.000144962 	-0.000287037 	0.297179
0.0129933 	-0.000147314 	-0.000277726 	0.294681
0.0130435 	-0.000149667 	-0.000268415 	0.292184
0.0130936 	-0.000152019 	-0.000259104 	0.289686
0.0131438 	-0.000154371 	-0.000249793 	0.287189
0.013194 	-0.000156723 	-0.000240482 	0.284691
0.0132441 	-0.000159075 	-0.000231171 	0.282194
0.0132943 	-0.000161115 	-0.000220276 	0.278482
0.0133445 	-0.000163041 	-0.000208805 	0.274329
0.0133946 	-0.000164968 	-0.000197334 	0.270175
0.0134448 	-0.000166894 	-0.000185863 	0.266022
0.013495 	-0.00016882 	-0.000174392 	0.261869
0.0135452 	-0.000170747 	-0.000162922 	0.257716
0.0135953 	-0.000172673 	-0.000151451 	0.253563
0.0136455 	-0.000174599 	-0.00013998 	0.249409
0.0136957 	-0.000176526 	-0.000128509 	0.245256
0.0137458 	-0.000178452 	-0.000117038 	0.241103
0.013796 	-0.000180379 	-0.000105567 	0.23695
0.0138462 	-0.000178327 	-9.57659e-05 	0.22951
0.0138963 	-0.000176081 	-8.6046e-05 	0.22191
0.0139465 	-0.000173836 	-7.63261e-05 	0.21431
0.0139967 	-0.00017159 	-6.66063e-05 	0.20671
0.0140468 	-0.000169345 	-5.68864e-05 	0.199109
0.014097 	-0.000167099 	-4.71665e-05 	0.191509
0.0141472 	-0.000164854 	-3.74467e-05 	0.183909
0.0141973 	-0.000162608 	-2.77268e-05 	0.176309
0.0142475 	-0.000160363 	-1.80069e-05 	0.168709
0.0142977 	-0.000152752 	-1.29614e-05 	0.158177
0.0143478 	-0.000142977 	-9.80107e-06 	0.146463
0.014398 	-0.000133202 	-6.64075e-06 	0.134749
0.0144482 	-0.000123426 	-3.48042e-06 	0.123034
0.0144983 	-0.000113651 	-3.20099e-07 	0.11132
0.0145485 	-0.000103876 	2.84023e-06 	0.0996056
0.0145987 	-9.41009e-05 	6.00055e-06 	0.0878913
0.0146488 	-8.43258e-05 	9.16087e-06 	0.076177
0.014699 	-7.26989e-05 	8.67797e-06 	0.0651408
0.0147492 	-6.05824e-05 	7.23164e-06 	0.054284
0.0147993 	-4.8466e-05 	5.78531e-06 	0.0434272
0.0148495 	-3.63495e-05 	4.33898e-06 	0.0325704
0.0148997 	-2.4233e-05 	2.89266e-06 	0.0217136
0.0149498 	-1.21165e-05 	1.44633e-06 	0.0108568
0.015 	0 	0 	0
