/*--------------------------------*- C++ -*----------------------------------*\
| =========                 |                                                 |
| \\      /  F ield         | OpenFOAM: The Open Source CFD Toolbox           |
|  \\    /   O peration     | Version:  v1912                                 |
|   \\  /    A nd           | Website:  www.openfoam.com                      |
|    \\/     M anipulation  |                                                 |
\*---------------------------------------------------------------------------*/
FoamFile
{
    version     2.0;
    format      ascii;
    class       volScalarField;
    location    "199.6";
    object      alphat;
}
// * * * * * * * * * * * * * * * * * * * * * * * * * * * * * * * * * * * * * //

dimensions      [1 -1 -1 0 0 0 0];


internalField   nonuniform List<scalar> 
10147
(
0.0190514
0.0172694
0.0153296
0.0148943
0.0149382
0.014914
0.014879
0.0148429
0.0148401
0.0148454
0.014885
0.0149232
0.0149505
0.0149088
0.0153417
0.0172711
0.015243
0.0150239
0.014954
0.0149386
0.0149378
0.014943
0.0149622
0.0150342
0.0152528
0.0156206
0.0160098
0.0155301
0.0151119
0.0151333
0.0151193
0.0150498
0.0154531
0.0174605
0.0154104
0.0187126
0.0170647
0.0153775
0.0150026
0.015035
0.0149834
0.014927
0.0148767
0.0148703
0.0148795
0.0149334
0.014993
0.015048
0.0150179
0.015391
0.0170674
0.0183403
0.0168404
0.0153933
0.0150805
0.0151033
0.01503
0.0149561
0.0148936
0.014884
0.0148966
0.0149628
0.0150399
0.0151167
0.0150964
0.0154077
0.0168442
0.0179509
0.0166017
0.0153843
0.0151322
0.0151469
0.0150567
0.0149675
0.0148944
0.014882
0.0148975
0.0149743
0.0150669
0.0151605
0.0151485
0.0153996
0.0166066
0.0175518
0.0163549
0.0153532
0.0151589
0.0151685
0.0150643
0.014962
0.01488
0.0148652
0.0148833
0.0149691
0.0150746
0.0151822
0.0151756
0.0153692
0.0163609
0.0171437
0.0161049
0.0153027
0.0151624
0.0151694
0.015054
0.014941
0.0148518
0.0148348
0.0148552
0.0149482
0.0150645
0.0151832
0.0151794
0.0153194
0.016112
0.0167349
0.0158561
0.0152355
0.0151449
0.0151515
0.0150272
0.0149057
0.0148108
0.0147922
0.0148144
0.0149131
0.0150378
0.0151653
0.0151621
0.0152528
0.0158642
0.0163345
0.0156118
0.0151541
0.0151088
0.0151165
0.0149858
0.0148578
0.0147586
0.0147385
0.0147622
0.0148652
0.0149964
0.0151303
0.0151261
0.0151719
0.0156209
0.0159501
0.0153748
0.0150611
0.0150585
0.0150687
0.0149322
0.014799
0.0146964
0.0146752
0.0147001
0.0148064
0.014943
0.0150826
0.015076
0.0150792
0.0153847
0.0155865
0.0151468
0.0149596
0.0150002
0.015014
0.0148718
0.0147333
0.0146275
0.0146055
0.0146314
0.014741
0.0148827
0.015028
0.0150179
0.0149781
0.0151575
0.0152469
0.0149289
0.0148543
0.0149371
0.0149553
0.0148087
0.0146659
0.0145572
0.0145346
0.0145612
0.0146737
0.0148198
0.0149693
0.0149547
0.0148731
0.0149402
0.0149324
0.0147211
0.014749
0.0148696
0.0148927
0.0147438
0.0145982
0.0144876
0.0144647
0.0144917
0.0146062
0.014755
0.0149068
0.0148872
0.0147681
0.0147329
0.0146415
0.0145228
0.0146448
0.0147974
0.0148256
0.0146762
0.0145294
0.0144182
0.0143953
0.0144224
0.0145375
0.0146874
0.0148395
0.0148148
0.0146638
0.014535
0.014369
0.0143331
0.0145408
0.0147194
0.0147526
0.0146044
0.014458
0.0143473
0.0143248
0.0143515
0.0144662
0.0146156
0.0147663
0.0147366
0.0145598
0.0143457
0.0141147
0.0141525
0.014436
0.0146347
0.0146725
0.0145271
0.0143824
0.0142732
0.0142513
0.0142774
0.0143905
0.0145381
0.014686
0.0146515
0.0144548
0.0141653
0.0138775
0.013982
0.0143289
0.0145421
0.0145841
0.0144426
0.0143009
0.0141941
0.014173
0.0141984
0.014309
0.0144535
0.0145972
0.0145585
0.0143473
0.0139949
0.0136555
0.0138209
0.0142178
0.0144407
0.0144863
0.0143499
0.0142122
0.0141085
0.0140884
0.0141127
0.0142201
0.0143605
0.0144992
0.0144566
0.0142358
0.0138339
0.0134472
0.0136674
0.0141016
0.0143296
0.0143784
0.0142478
0.0141149
0.014015
0.0139961
0.0140192
0.0141226
0.0142582
0.0143909
0.014345
0.014119
0.0136803
0.0132521
0.0135189
0.0139789
0.0142084
0.0142598
0.0141356
0.0140081
0.0139125
0.0138949
0.0139166
0.0140157
0.0141456
0.0142718
0.0142232
0.0139957
0.0135317
0.0130695
0.013373
0.0138487
0.0140765
0.01413
0.0140126
0.0138911
0.0138001
0.0137839
0.0138041
0.0138984
0.0140224
0.0141416
0.0140907
0.0138648
0.0133855
0.0128971
0.0132271
0.0137102
0.013934
0.0139891
0.0138787
0.0137633
0.0136772
0.0136623
0.013681
0.0137704
0.0138881
0.0140003
0.0139476
0.0137256
0.0132393
0.0127321
0.013079
0.0135629
0.0137811
0.0137832
0.0137341
0.0136247
0.0135434
0.0135299
0.0135472
0.0136316
0.0137431
0.0137929
0.0137941
0.0135776
0.0130908
0.0125713
0.0129268
0.0134066
0.013487
0.013441
0.0134196
0.0133725
0.013334
0.0133301
0.0133363
0.0133774
0.0134271
0.0134505
0.0134982
0.0134207
0.0129381
0.0124115
0.0127689
0.0131403
0.0131487
0.0131038
0.0130778
0.0130412
0.01301
0.0130077
0.0130121
0.0130459
0.0130852
0.0131135
0.0131596
0.0131503
0.0127797
0.0122503
0.0126042
0.012817
0.0128454
0.0128208
0.012782
0.0127382
0.0127024
0.012699
0.0127048
0.0127433
0.0127897
0.0128305
0.0128563
0.0128263
0.0126145
0.0120855
0.0124326
0.0125264
0.0125979
0.0125958
0.0125472
0.0124938
0.0124514
0.0124467
0.0124542
0.0124993
0.0125551
0.0126054
0.0126087
0.0125359
0.0124424
0.011916
0.0122541
0.0122872
0.0123986
0.0124155
0.0123618
0.0123013
0.0122539
0.0122482
0.0122569
0.0123071
0.0123698
0.0124248
0.0124092
0.0122972
0.0122635
0.011741
0.0120688
0.0120889
0.0122302
0.012262
0.0122065
0.0121421
0.0120917
0.0120857
0.0120948
0.012148
0.0122144
0.012271
0.0122405
0.0120992
0.0120778
0.0115604
0.0118765
0.0119132
0.0120753
0.0121185
0.0120629
0.011997
0.0119452
0.0119393
0.0119484
0.012003
0.0120706
0.0121271
0.0120851
0.0119234
0.0118851
0.0113739
0.0116381
0.0117441
0.0119202
0.0119725
0.0119175
0.0118515
0.0117995
0.0117939
0.0118027
0.0118574
0.0119249
0.0119807
0.0119297
0.0117541
0.0116451
0.0111632
0.011393
0.0115721
0.0117577
0.0118173
0.0117631
0.011698
0.0116464
0.0116413
0.0116496
0.0117038
0.0117703
0.0118251
0.0117667
0.0115818
0.0114
0.0109123
0.0111607
0.0113928
0.0115848
0.0116504
0.0115973
0.0115335
0.0114828
0.0114781
0.0114859
0.0115392
0.0116043
0.0116579
0.0115934
0.0114021
0.0111678
0.010665
0.0109401
0.0112051
0.0114006
0.0114708
0.011419
0.0113568
0.0113075
0.0113033
0.0113105
0.0113623
0.0114257
0.0114779
0.0114088
0.0112141
0.0109472
0.0104311
0.0107263
0.0110096
0.0112026
0.0112748
0.0112252
0.0111656
0.0111189
0.0111151
0.0111218
0.0111709
0.0112316
0.0112815
0.0112103
0.0110181
0.0107333
0.01021
0.010513
0.0108057
0.0109824
0.0110517
0.0110066
0.0109516
0.0109105
0.010907
0.0109132
0.0109565
0.0110125
0.0110579
0.0109896
0.0108137
0.0105198
0.0099988
0.0102911
0.0105889
0.0107224
0.0107784
0.0107426
0.0106976
0.0106687
0.0106653
0.010671
0.0107018
0.0107477
0.010784
0.0107285
0.0105962
0.0102974
0.00979354
0.0100399
0.0103433
0.0104386
0.0104929
0.0104604
0.010419
0.0103932
0.0103901
0.0103955
0.0104231
0.0104653
0.0104982
0.0104444
0.0103495
0.0100452
0.00958622
0.00977305
0.0100606
0.0101465
0.0101989
0.0101696
0.0101318
0.0101088
0.0101059
0.010111
0.0101356
0.0101743
0.010204
0.010152
0.0100664
0.00977802
0.00935755
0.0094981
0.00976953
0.00984662
0.00989687
0.00987064
0.00983618
0.00981595
0.00981326
0.009818
0.00983989
0.00987515
0.00990168
0.00985174
0.00977493
0.00950269
0.00909418
0.00921526
0.00947059
0.00953927
0.00958723
0.009564
0.00953273
0.00951506
0.00951255
0.00951702
0.00953627
0.0095683
0.00959179
0.00954407
0.00947559
0.00921948
0.00882252
0.00892467
0.00916406
0.0092248
0.00927032
0.00924998
0.00922175
0.00920647
0.00920411
0.00920834
0.00922512
0.00925408
0.00927465
0.00922928
0.00916868
0.00892853
0.00854268
0.00862648
0.0088502
0.00890343
0.00894641
0.00892886
0.0089035
0.00889046
0.00888823
0.00889225
0.00890671
0.00893276
0.00895052
0.00890762
0.00885446
0.00862999
0.00825484
0.00832092
0.00852927
0.00857543
0.00861578
0.00860091
0.00857828
0.00856733
0.0085652
0.00856902
0.00858134
0.00860462
0.00861968
0.00857935
0.00853319
0.0083241
0.00795911
0.00800819
0.00820157
0.00824108
0.00827874
0.00826644
0.00824639
0.00823736
0.00823532
0.00823898
0.0082493
0.00826997
0.00828243
0.00824473
0.00820516
0.00801105
0.0076556
0.00768847
0.00786732
0.0079006
0.00793553
0.00792568
0.00790807
0.00790082
0.00789886
0.00790235
0.00791084
0.00792904
0.00793903
0.007904
0.0078706
0.00769103
0.0073444
0.00736194
0.00752674
0.00755422
0.00758639
0.00757888
0.00756356
0.00755794
0.00755604
0.00755939
0.00756619
0.00758206
0.00758971
0.00755738
0.00752972
0.00736421
0.00702564
0.00702879
0.00718004
0.00720214
0.00723157
0.00722626
0.0072131
0.00720896
0.00720711
0.00721033
0.00721559
0.00722928
0.00723471
0.00720508
0.00718275
0.00703079
0.00669949
0.00668927
0.0068275
0.00684463
0.00687133
0.0068681
0.00685695
0.00685415
0.00685235
0.00685545
0.00685931
0.00687096
0.0068743
0.00684735
0.00682994
0.00669101
0.00636616
0.00634365
0.00646941
0.00648199
0.00650602
0.00650473
0.00649545
0.00649386
0.0064921
0.00649509
0.00649768
0.00650743
0.00650883
0.00648452
0.00647161
0.00634516
0.00602599
0.00599235
0.00610618
0.00611463
0.00613605
0.00613655
0.00612901
0.00612849
0.00612676
0.00612965
0.00613111
0.00613911
0.00613871
0.00611697
0.00610815
0.00599363
0.00567942
0.00563588
0.00573832
0.00574307
0.00576196
0.0057641
0.00575816
0.0057586
0.0057569
0.00575968
0.00576014
0.00576652
0.00576448
0.00574524
0.00574009
0.00563696
0.00532705
0.00527491
0.00536653
0.00536799
0.00538446
0.00538808
0.0053836
0.00538487
0.00538319
0.00538588
0.00538546
0.00539037
0.00538684
0.00536999
0.0053681
0.0052758
0.00496968
0.00491032
0.00499167
0.00499027
0.00500446
0.00500938
0.00500621
0.0050082
0.00500655
0.00500915
0.00500796
0.00501153
0.0050067
0.00499212
0.00499306
0.00491104
0.00460836
0.00454323
0.00461487
0.00461103
0.0046231
0.00462913
0.00462713
0.00462973
0.00462812
0.00463062
0.00462877
0.00463116
0.00462522
0.00461274
0.0046161
0.0045438
0.0042444
0.00417505
0.00423755
0.0042317
0.00424183
0.00424877
0.00424779
0.00425089
0.00424933
0.00425172
0.00424932
0.00425067
0.00424383
0.00423328
0.00423863
0.00417548
0.0038795
0.00380751
0.00386145
0.00385402
0.00386242
0.00387005
0.00386995
0.00387345
0.00387193
0.00387422
0.00387137
0.00387183
0.0038643
0.00385549
0.0038624
0.00380783
0.00351567
0.00344267
0.00348865
0.00348006
0.00348694
0.00349504
0.00349566
0.00349948
0.00349801
0.00350018
0.00349698
0.00349671
0.0034887
0.00348141
0.00348948
0.0034429
0.00315535
0.00308289
0.00312149
0.00311217
0.00311772
0.00312609
0.00312729
0.00313133
0.00312993
0.00313198
0.0031285
0.00312764
0.00311936
0.00311341
0.00312223
0.00308303
0.00280127
0.00273075
0.00276261
0.00275293
0.00275736
0.0027658
0.00276744
0.00277163
0.00277029
0.00277222
0.00276855
0.00276723
0.00275889
0.00275408
0.00276326
0.00273083
0.00245641
0.0023891
0.00241488
0.00240521
0.0024087
0.00241701
0.00241896
0.00242322
0.00242195
0.00242375
0.00241998
0.00241833
0.00241011
0.00240626
0.00241544
0.00238914
0.00212397
0.00206098
0.00208136
0.00207202
0.00207476
0.00208276
0.0020849
0.00208914
0.00208795
0.00208962
0.00208582
0.00208396
0.00207606
0.00207298
0.00208185
0.00206097
0.00180724
0.00174949
0.00176519
0.00175645
0.00175864
0.00176614
0.00176836
0.0017725
0.0017714
0.00177292
0.00176918
0.00176723
0.00175982
0.00175732
0.00176563
0.00174947
0.00150951
0.00145771
0.00146947
0.00146152
0.00146331
0.00147017
0.00147237
0.00147631
0.00147532
0.00147669
0.00147309
0.00147114
0.00146437
0.0014623
0.00146985
0.00145766
0.00123385
0.00118845
0.00119701
0.00119
0.00119153
0.00119761
0.00119972
0.00120338
0.0012025
0.0012037
0.00120034
0.00119846
0.00119245
0.00119068
0.00119734
0.0011884
0.000980986
0.00094107
0.000947627
0.000941543
0.000942594
0.000948038
0.000949954
0.000953179
0.00095238
0.000953449
0.000950487
0.000948764
0.000943394
0.000942135
0.00094791
0.000941024
0.000752942
0.000719301
0.000724065
0.000719027
0.000719755
0.00072441
0.000726088
0.000728833
0.000728145
0.000729053
0.000726527
0.000725014
0.000720424
0.000719524
0.000724303
0.00071926
0.000554468
0.000527383
0.0005307
0.000526716
0.000527246
0.000531026
0.00053243
0.000534668
0.00053411
0.000534842
0.000532778
0.000531508
0.000527784
0.000527116
0.000530892
0.000527348
0.000388608
0.000367921
0.000370162
0.000367167
0.000367582
0.00037047
0.000371585
0.000373312
0.00037289
0.000373442
0.000371849
0.000370837
0.000367992
0.000367474
0.00037031
0.000367895
0.000256575
0.000241754
0.000243235
0.000241116
0.000241452
0.000243507
0.000244338
0.00024558
0.000245287
0.000245671
0.000244525
0.000243769
0.000241745
0.000241336
0.000243343
0.000241735
0.000157592
0.000147785
0.00014874
0.000147349
0.000147614
0.000148957
0.000149529
0.000150348
0.000150163
0.000150407
0.000149652
0.00014913
0.000147808
0.000147495
0.000148812
0.000147774
8.87469e-05
8.28691e-05
8.34533e-05
8.26246e-05
8.28163e-05
8.36096e-05
8.39655e-05
8.44516e-05
8.43479e-05
8.44872e-05
8.40389e-05
8.3713e-05
8.29325e-05
8.27128e-05
8.34975e-05
8.28629e-05
4.50963e-05
4.1973e-05
4.23001e-05
4.18622e-05
4.19832e-05
4.23998e-05
4.25958e-05
4.28514e-05
4.28003e-05
4.28704e-05
4.26349e-05
4.2455e-05
4.20454e-05
4.19097e-05
4.23243e-05
4.19702e-05
2.03266e-05
1.88857e-05
1.90464e-05
1.88462e-05
1.89108e-05
1.9102e-05
1.91954e-05
1.93127e-05
1.92907e-05
1.93216e-05
1.92137e-05
1.91279e-05
1.89399e-05
1.88685e-05
1.9058e-05
1.88847e-05
7.96341e-06
7.39798e-06
7.46476e-06
7.38749e-06
7.41594e-06
7.49141e-06
7.52909e-06
7.57527e-06
7.56705e-06
7.57884e-06
7.53645e-06
7.50178e-06
7.4276e-06
7.39649e-06
7.46951e-06
7.3977e-06
2.63199e-06
2.44819e-06
2.4709e-06
2.44645e-06
2.45654e-06
2.48149e-06
2.49402e-06
2.50925e-06
2.50663e-06
2.51046e-06
2.49649e-06
2.48497e-06
2.46044e-06
2.44948e-06
2.47252e-06
2.44814e-06
6.97439e-07
6.50218e-07
6.56249e-07
6.50208e-07
6.52973e-07
6.59561e-07
6.62839e-07
6.66851e-07
6.66167e-07
6.67175e-07
6.63499e-07
6.60488e-07
6.54012e-07
6.51018e-07
6.56688e-07
6.50215e-07
1.35768e-07
1.27003e-07
1.28155e-07
1.27087e-07
1.27631e-07
1.28893e-07
1.29515e-07
1.30281e-07
1.30151e-07
1.30344e-07
1.29643e-07
1.29072e-07
1.27832e-07
1.27244e-07
1.28241e-07
1.27005e-07
1.80226e-08
1.70014e-08
1.71473e-08
1.70239e-08
1.7099e-08
1.72434e-08
1.73232e-08
1.74096e-08
1.73982e-08
1.74171e-08
1.73383e-08
1.72644e-08
1.71224e-08
1.70422e-08
1.71573e-08
1.70015e-08
3.88348e-09
3.7607e-09
3.78917e-09
3.7669e-09
3.78669e-09
3.79397e-09
3.81125e-09
3.81423e-09
3.81829e-09
3.81486e-09
3.81251e-09
3.79561e-09
3.78847e-09
3.76816e-09
3.7897e-09
3.76045e-09
3.47241e-09
3.38179e-09
3.407e-09
3.38724e-09
3.40563e-09
3.40711e-09
3.4227e-09
3.42185e-09
3.42697e-09
3.42219e-09
3.42337e-09
3.40794e-09
3.40649e-09
3.38777e-09
3.40711e-09
3.38148e-09
0.0157685
0.0157877
0.0160587
0.0156649
0.0153238
0.0151387
0.015088
0.0150845
0.0150859
0.0150888
0.0150961
0.0151487
0.0153333
0.0156708
0.0160599
0.0157856
0.0161265
0.0160116
0.016092
0.0156976
0.0153858
0.0152327
0.0151998
0.0152075
0.0152108
0.0152117
0.0152077
0.0152424
0.0153949
0.0157033
0.0160927
0.0160084
0.0164364
0.0161982
0.0161043
0.0157096
0.015426
0.0153024
0.0152868
0.0153049
0.0153101
0.015309
0.0152943
0.0153118
0.0154349
0.0157149
0.0161044
0.016194
0.0166973
0.0163462
0.0160961
0.015702
0.0154442
0.0153483
0.0153487
0.0153765
0.0153831
0.0153803
0.015356
0.0153573
0.0154528
0.0157069
0.0160957
0.0163411
0.0169076
0.0164552
0.0160685
0.0156762
0.0154418
0.0153711
0.015386
0.0154224
0.0154302
0.0154261
0.015393
0.0153798
0.01545
0.0156808
0.0160677
0.0164492
0.0170673
0.0165255
0.0160224
0.0156334
0.01542
0.015372
0.0153997
0.0154433
0.015452
0.0154469
0.0154063
0.0153803
0.0154279
0.0156376
0.0160213
0.0165187
0.017178
0.0165584
0.0159589
0.0155753
0.0153816
0.0153538
0.0153924
0.0154421
0.0154513
0.0154455
0.0153988
0.0153618
0.0153892
0.0155793
0.0159575
0.016551
0.0172421
0.0165558
0.0158808
0.0155069
0.0153328
0.0153231
0.0153706
0.0154247
0.0154342
0.0154281
0.0153769
0.015331
0.0153403
0.0155108
0.0158792
0.0165478
0.0172624
0.016521
0.0157931
0.0154344
0.0152795
0.0152855
0.0153398
0.0153968
0.0154064
0.0154002
0.015346
0.0152933
0.015287
0.0154383
0.0157914
0.0165127
0.0172421
0.0164588
0.0156998
0.01536
0.015223
0.0152422
0.0153016
0.0153605
0.01537
0.0153639
0.0153078
0.01525
0.0152304
0.0153639
0.0156982
0.0164503
0.0171846
0.0163734
0.0156023
0.0152832
0.0151624
0.0151927
0.0152558
0.0153158
0.015325
0.0153192
0.015262
0.0152005
0.0151698
0.0152871
0.0156007
0.0163649
0.0170935
0.016268
0.0154999
0.0152025
0.0150964
0.015136
0.0152016
0.015262
0.0152709
0.0152654
0.0152077
0.0151436
0.0151037
0.0152063
0.0154983
0.0162595
0.0169723
0.0161447
0.0153914
0.0151158
0.0150232
0.0150705
0.0151378
0.015198
0.0152065
0.0152014
0.0151438
0.015078
0.0150304
0.0151196
0.01539
0.0161363
0.0168246
0.0160049
0.0152755
0.0150215
0.0149408
0.0149946
0.0150628
0.0151226
0.0151306
0.0151259
0.0150687
0.015002
0.0149479
0.0150252
0.0152741
0.0159967
0.0166534
0.0158498
0.0151505
0.0149175
0.0148477
0.0149068
0.0149753
0.0150343
0.0150419
0.0150376
0.0149811
0.0149141
0.0148547
0.0149212
0.0151492
0.0158418
0.0164613
0.01568
0.015015
0.0148021
0.0147421
0.0148056
0.0148739
0.0149319
0.014939
0.0149351
0.0148796
0.0148127
0.0147489
0.0148058
0.0150138
0.0156724
0.0162508
0.0154962
0.0148677
0.014674
0.0146226
0.0146897
0.0147574
0.0148143
0.0148209
0.0148174
0.0147629
0.0146966
0.0146293
0.0146776
0.0148665
0.0154889
0.0160239
0.0152989
0.0147077
0.0145319
0.0144882
0.0145582
0.0146249
0.0146806
0.0146868
0.0146836
0.0146303
0.0145649
0.0144947
0.0145354
0.0147066
0.0152918
0.0157829
0.0150886
0.0145344
0.0143752
0.0143383
0.0144105
0.0144761
0.0145305
0.0145362
0.0145335
0.0144814
0.014417
0.0143446
0.0143786
0.0145333
0.0150819
0.0155293
0.0148664
0.0143479
0.0142039
0.0141728
0.0142469
0.0143112
0.0143643
0.0143695
0.0143671
0.0143163
0.0142532
0.0141789
0.0142072
0.0143469
0.01486
0.0152649
0.0146332
0.0141489
0.0140186
0.0139925
0.0140681
0.014131
0.0141828
0.0141877
0.0141856
0.0141359
0.0140742
0.0139985
0.0140219
0.014148
0.0146272
0.0149908
0.0143902
0.0139384
0.0138206
0.0137989
0.0138756
0.0139371
0.0139875
0.013992
0.0139903
0.0139419
0.0138816
0.0138047
0.0138239
0.0139375
0.0143845
0.0147078
0.0141381
0.0137174
0.0136114
0.0135935
0.013671
0.0137309
0.01378
0.013784
0.0137826
0.0137355
0.0136768
0.0135993
0.0136146
0.0137166
0.0141327
0.0144166
0.0138774
0.0134868
0.0133922
0.0133778
0.0134556
0.0135135
0.0135611
0.0135648
0.0135637
0.013518
0.0134612
0.0133834
0.0133953
0.0134861
0.0138723
0.0141176
0.0136085
0.013247
0.0131635
0.0131525
0.01323
0.0132858
0.0133318
0.013335
0.0133343
0.0132902
0.0132354
0.013158
0.0131666
0.0132463
0.0136038
0.0138115
0.013332
0.0129985
0.012926
0.0129182
0.0129948
0.0130485
0.0130927
0.0130954
0.0130952
0.0130527
0.0130002
0.0129235
0.0129291
0.012998
0.0133277
0.0134985
0.013048
0.0127417
0.0126797
0.0126748
0.0127503
0.0128016
0.012844
0.0128463
0.0128464
0.0128058
0.0127555
0.01268
0.0126827
0.0127413
0.013044
0.0131789
0.0127564
0.0124763
0.0124243
0.0124221
0.0124961
0.0125451
0.0125856
0.0125875
0.012588
0.0125491
0.0125012
0.0124272
0.0124274
0.012476
0.0127528
0.012853
0.0124574
0.0122027
0.0121599
0.0121601
0.0122322
0.0122788
0.0123175
0.0123191
0.0123198
0.0122828
0.0122371
0.0121651
0.012163
0.0122026
0.0124541
0.0125212
0.0121515
0.0119214
0.0118869
0.0118892
0.0119592
0.0120035
0.0120402
0.0120414
0.0120424
0.0120074
0.011964
0.0118941
0.01189
0.0119215
0.0121485
0.0121842
0.0118392
0.0116329
0.011606
0.0116101
0.0116777
0.0117197
0.0117542
0.0117551
0.0117564
0.0117234
0.0116823
0.0116148
0.0116091
0.0116331
0.0118365
0.0118422
0.0115209
0.0113376
0.0113175
0.0113232
0.0113882
0.0114276
0.0114601
0.0114607
0.0114622
0.0114313
0.0113927
0.0113278
0.0113206
0.011338
0.0115186
0.0114959
0.0111972
0.0110358
0.0110217
0.0110286
0.0110909
0.0111278
0.0111581
0.0111584
0.0111602
0.0111313
0.0110953
0.0110331
0.0110247
0.0110363
0.0111952
0.0111453
0.0108682
0.0107277
0.0107187
0.0107267
0.0107861
0.0108203
0.0108486
0.0108486
0.0108506
0.0108238
0.0107904
0.010731
0.0107217
0.0107283
0.0108665
0.0107909
0.0105342
0.0104134
0.0104086
0.0104175
0.010474
0.0105056
0.0105319
0.0105317
0.0105338
0.0105089
0.0104781
0.0104217
0.0104117
0.0104142
0.0105328
0.010433
0.0101956
0.0100932
0.0100919
0.0101014
0.0101549
0.010184
0.0102083
0.0102079
0.0102103
0.0101872
0.0101589
0.0101055
0.010095
0.0100942
0.0101944
0.0100719
0.00985265
0.00976731
0.00976895
0.00977881
0.0098294
0.00985601
0.00987845
0.00987778
0.00988031
0.00985913
0.00983329
0.00978286
0.00977198
0.00976842
0.00985168
0.00970779
0.00950572
0.009436
0.0094401
0.00945015
0.00949787
0.00952211
0.00954275
0.00954189
0.00954455
0.00952513
0.00950165
0.0094541
0.00944312
0.00943725
0.00950499
0.0093411
0.00915528
0.00909952
0.00910571
0.00911575
0.00916072
0.00918275
0.00920165
0.00920064
0.0092034
0.00918568
0.00916438
0.0091196
0.0091087
0.00910087
0.00915474
0.0089721
0.00880146
0.00875792
0.00876591
0.0087758
0.00881818
0.00883818
0.00885541
0.00885429
0.00885711
0.00884101
0.00882173
0.00877955
0.00876889
0.00875937
0.00880111
0.0086008
0.00844433
0.00841136
0.00842091
0.00843049
0.00847045
0.0084886
0.00850425
0.00850303
0.00850589
0.00849134
0.0084739
0.00843415
0.00842386
0.0084129
0.00844416
0.0082273
0.00808405
0.00806008
0.00807097
0.00808013
0.00811785
0.00813431
0.00814845
0.00814718
0.00815004
0.00813696
0.00812119
0.00808369
0.00807391
0.0080617
0.00808402
0.00785159
0.00772066
0.00770428
0.00771633
0.00772496
0.00776059
0.00777553
0.00778824
0.00778694
0.00778978
0.00777809
0.00776383
0.00772843
0.00771923
0.00770596
0.00772077
0.00747363
0.0073542
0.0073441
0.00735715
0.00736517
0.00739887
0.00741245
0.00742379
0.00742249
0.00742528
0.00741492
0.00740201
0.00736856
0.00736003
0.00734583
0.00735443
0.00709337
0.00698471
0.00697971
0.00699362
0.00700098
0.00703288
0.00704523
0.00705528
0.00705399
0.00705672
0.00704762
0.00703593
0.00700429
0.00699648
0.00698149
0.00698503
0.0067108
0.00661227
0.00661135
0.006626
0.00663264
0.00666286
0.00667411
0.00668294
0.00668169
0.00668433
0.00667642
0.00666581
0.00663587
0.00662882
0.00661317
0.00661269
0.00632605
0.0062371
0.00623934
0.00625461
0.00626051
0.00628915
0.00629941
0.00630708
0.00630588
0.00630842
0.00630163
0.00629201
0.00626366
0.00625739
0.00624119
0.0062376
0.00593941
0.00585956
0.00586417
0.00587994
0.0058851
0.00591224
0.00592161
0.00592818
0.00592705
0.00592947
0.00592375
0.00591501
0.00588817
0.00588269
0.00586604
0.00586013
0.00555137
0.00548021
0.00548651
0.00550267
0.0055071
0.00553279
0.00554135
0.0055469
0.00554585
0.00554814
0.00554341
0.00553548
0.0055101
0.00550539
0.0054884
0.00548084
0.00516271
0.00509986
0.00510728
0.00512372
0.00512744
0.00515174
0.00515954
0.00516414
0.00516319
0.00516534
0.00516152
0.00515434
0.00513036
0.00512639
0.00510918
0.00510054
0.00477449
0.0047196
0.00472768
0.00474429
0.00474733
0.00477026
0.00477737
0.0047811
0.00478024
0.00478225
0.00477927
0.00477278
0.00475017
0.00474691
0.00472958
0.00472032
0.0043881
0.00434081
0.00434921
0.00436586
0.00436829
0.00438986
0.00439631
0.00439926
0.00439848
0.00440036
0.00439814
0.00439228
0.00437104
0.00436842
0.00435109
0.00434157
0.00400526
0.0039652
0.00397365
0.00399021
0.00399211
0.00401231
0.00401814
0.00402039
0.0040197
0.00402144
0.00401988
0.00401463
0.00399476
0.0039927
0.00397551
0.00396599
0.00362802
0.00359477
0.0036031
0.00361942
0.00362087
0.00363969
0.00364493
0.00364656
0.00364595
0.00364756
0.00364659
0.00364192
0.00362342
0.00362183
0.00360492
0.00359557
0.00325875
0.00323182
0.00323345
0.00323804
0.0032412
0.00325863
0.00326837
0.00326795
0.00326959
0.00326896
0.00327001
0.00326079
0.00324362
0.00324021
0.0032349
0.00323262
0.00286698
0.0028317
0.00282994
0.00283463
0.00283685
0.0028531
0.00286206
0.00286141
0.00286296
0.00286236
0.00286361
0.00285516
0.00283917
0.00283671
0.00283133
0.00283222
0.00247822
0.00244901
0.0024472
0.00245394
0.00245519
0.00247004
0.00247722
0.00247672
0.00247777
0.00247758
0.00247863
0.00247194
0.00245734
0.0024559
0.00244854
0.00244952
0.00212032
0.00209891
0.00209782
0.00210603
0.00210663
0.00211993
0.00212545
0.00212513
0.00212574
0.0021259
0.00212672
0.00212165
0.00210859
0.00210784
0.0020991
0.00209943
0.00179832
0.00178355
0.00178338
0.00179222
0.00179248
0.00180418
0.00180836
0.00180817
0.00180845
0.00180884
0.00180948
0.00180571
0.00179424
0.00179387
0.00178458
0.00178407
0.00151158
0.00150196
0.00150266
0.00151148
0.00151159
0.00152171
0.00152485
0.00152475
0.00152481
0.00152533
0.00152583
0.00152307
0.00151315
0.00151296
0.00150376
0.00150246
0.00125805
0.00125228
0.0012537
0.00126207
0.00126215
0.00127078
0.00127311
0.00127306
0.00127298
0.00127356
0.00127396
0.00127196
0.00126352
0.00126338
0.0012547
0.00125275
0.00103535
0.00103236
0.00103432
0.00104197
0.00104208
0.00104932
0.00105104
0.00105102
0.00105086
0.00105144
0.00105177
0.00105034
0.00104326
0.0010431
0.0010352
0.00103279
0.000840989
0.000839946
0.000842247
0.00084902
0.000849201
0.000855179
0.000856445
0.000856424
0.000856236
0.000856783
0.000857062
0.000856042
0.000850208
0.000849996
0.000843012
0.000840336
0.000672462
0.000672726
0.000675186
0.000681024
0.000681284
0.000686128
0.000687058
0.00068703
0.000686842
0.000687328
0.000687573
0.000686851
0.000682129
0.000681848
0.000675841
0.000673068
0.00052653
0.000527609
0.00053017
0.000535058
0.000535413
0.000539247
0.00053994
0.00053988
0.000539719
0.000540124
0.000540363
0.000539843
0.000536112
0.000535746
0.000530724
0.000527905
0.000387769
0.000389776
0.000393663
0.000397622
0.000398405
0.000401254
0.000401889
0.000401572
0.000401527
0.000401781
0.000402256
0.000401775
0.000399021
0.000398238
0.000394175
0.000390064
0.000270374
0.000272099
0.000275366
0.000278263
0.000278988
0.000281032
0.000281534
0.000281248
0.000281242
0.000281406
0.000281812
0.000281428
0.000279457
0.000278734
0.00027576
0.000272322
0.000177057
0.000178336
0.000180842
0.000182815
0.00018341
0.000184795
0.000185172
0.00018494
0.000184956
0.000185052
0.00018537
0.000185076
0.000183745
0.000183151
0.000181124
0.000178497
0.000107462
0.000108288
0.000110018
0.000111251
0.000111684
0.000112554
0.000112818
0.00011265
0.000112673
0.000112723
0.000112947
0.000112739
0.000111904
0.000111471
0.000110203
0.000108394
5.96626e-05
6.01275e-05
6.11842e-05
6.18827e-05
6.21594e-05
6.26575e-05
6.28233e-05
6.27183e-05
6.27385e-05
6.27613e-05
6.28997e-05
6.27666e-05
6.22889e-05
6.20127e-05
6.12935e-05
6.01898e-05
2.99303e-05
3.01583e-05
3.07224e-05
3.10767e-05
3.12302e-05
3.14861e-05
3.15779e-05
3.15215e-05
3.15348e-05
3.1544e-05
3.16179e-05
3.15434e-05
3.12981e-05
3.11447e-05
3.07796e-05
3.01908e-05
1.33947e-05
1.34925e-05
1.37529e-05
1.39123e-05
1.39857e-05
1.4102e-05
1.41458e-05
1.41202e-05
1.41271e-05
1.41305e-05
1.41643e-05
1.41282e-05
1.40169e-05
1.39434e-05
1.37791e-05
1.35073e-05
5.25428e-06
5.29087e-06
5.39367e-06
5.45636e-06
5.48628e-06
5.53224e-06
5.55012e-06
5.54034e-06
5.54322e-06
5.54445e-06
5.55743e-06
5.54265e-06
5.49861e-06
5.46867e-06
5.404e-06
5.29672e-06
1.75295e-06
1.76466e-06
1.79857e-06
1.81955e-06
1.82972e-06
1.84509e-06
1.85116e-06
1.8481e-06
1.84906e-06
1.84947e-06
1.8536e-06
1.84855e-06
1.83382e-06
1.82364e-06
1.802e-06
1.7666e-06
4.70975e-07
4.74008e-07
4.82922e-07
4.88575e-07
4.91327e-07
4.95451e-07
4.97088e-07
4.96341e-07
4.96587e-07
4.96707e-07
4.97739e-07
4.96375e-07
4.92419e-07
4.89662e-07
4.8383e-07
4.74522e-07
9.21665e-08
9.2736e-08
9.44338e-08
9.55402e-08
9.60808e-08
9.6883e-08
9.7203e-08
9.70723e-08
9.71177e-08
9.71431e-08
9.73289e-08
9.70613e-08
9.62913e-08
9.57498e-08
9.46083e-08
9.28347e-08
1.10369e-08
1.10956e-08
1.12938e-08
1.14217e-08
1.14878e-08
1.15804e-08
1.16192e-08
1.16048e-08
1.16107e-08
1.1613e-08
1.16339e-08
1.16011e-08
1.15123e-08
1.1446e-08
1.1314e-08
1.1107e-08
9.99271e-10
9.96004e-10
1.01465e-09
1.02044e-09
1.02813e-09
1.03284e-09
1.03721e-09
1.03508e-09
1.03671e-09
1.03566e-09
1.03827e-09
1.03432e-09
1.02987e-09
1.02216e-09
1.01608e-09
9.96803e-10
6.38445e-10
6.31679e-10
6.44285e-10
6.44803e-10
6.5073e-10
6.51677e-10
6.54955e-10
6.5305e-10
6.5473e-10
6.53331e-10
6.55485e-10
6.52413e-10
6.51597e-10
6.45641e-10
6.44984e-10
6.32066e-10
0.0189142
0.0172525
0.0155091
0.0151512
0.0152079
0.015206
0.0151726
0.0151356
0.0151277
0.0151387
0.0151788
0.0152151
0.0152194
0.0151645
0.0155202
0.0172547
0.0185282
0.0170249
0.0155465
0.0152376
0.0152836
0.0152657
0.0152189
0.015173
0.0151612
0.0151763
0.0152254
0.0152752
0.0152956
0.0152516
0.0155585
0.0170284
0.0181242
0.0167815
0.015557
0.0152962
0.0153348
0.0153034
0.0152447
0.0151911
0.0151762
0.0151945
0.0152514
0.015313
0.0153471
0.0153107
0.0155697
0.0167864
0.0177116
0.0165304
0.0155431
0.0153287
0.0153626
0.0153198
0.015251
0.0151908
0.0151736
0.0151942
0.0152578
0.0153296
0.0153751
0.0153436
0.0155565
0.0165365
0.0172987
0.016278
0.0155076
0.015337
0.0153682
0.0153163
0.0152389
0.0151732
0.0151542
0.0151767
0.0152459
0.0153262
0.0153809
0.0153523
0.0155216
0.0162851
0.0168925
0.0160284
0.0154529
0.0153237
0.0153537
0.0152943
0.0152098
0.0151396
0.0151191
0.0151432
0.0152168
0.0153042
0.0153665
0.0153392
0.0154674
0.0160365
0.0164984
0.0157847
0.0153814
0.0152942
0.0153241
0.0152568
0.0151654
0.0150914
0.0150697
0.015095
0.0151725
0.0152668
0.0153372
0.01531
0.0153963
0.0157937
0.0161204
0.0155489
0.0152968
0.0152546
0.0152859
0.0152096
0.0151105
0.0150325
0.0150097
0.0150362
0.0151177
0.0152199
0.0152991
0.0152707
0.0153121
0.0155588
0.015761
0.0153224
0.0152045
0.0152072
0.0152408
0.0151569
0.0150507
0.0149687
0.0149449
0.0149725
0.0150581
0.0151674
0.0152542
0.0152234
0.0152202
0.0153331
0.0154215
0.0151057
0.0151076
0.0151519
0.0151886
0.015099
0.0149872
0.0149022
0.0148778
0.0149061
0.0149948
0.0151097
0.0152021
0.0151681
0.0151237
0.0151172
0.015102
0.0148985
0.0150067
0.0150875
0.0151277
0.0150345
0.0149188
0.014832
0.0148073
0.014836
0.0149265
0.0150451
0.0151411
0.0151037
0.0150229
0.0149107
0.0148017
0.0147
0.0149007
0.0150127
0.0150565
0.0149612
0.0148435
0.014756
0.0147315
0.0147601
0.0148513
0.0149719
0.0150697
0.0150287
0.014917
0.0147128
0.0145192
0.0145089
0.014788