-0.0075 	373
-0.00715932 	349.914
-0.00676191 	345.573
-0.00629832 	344.324
-0.00575752 	343.778
-0.00512667 	343.47
-0.00439077 	343.277
-0.00353231 	343.156
-0.00253089 	343.082
-0.00136271 	343.038
0 	343.012
0.00136271 	342.994
0.00253089 	342.974
0.00353231 	342.943
0.00439077 	342.888
0.00512667 	342.792
0.00575752 	342.62
0.00629832 	342.272
0.00676191 	341.229
0.00715932 	333.956
0.0075 	313
