/*--------------------------------*- C++ -*----------------------------------*\
| =========                 |                                                 |
| \\      /  F ield         | OpenFOAM: The Open Source CFD Toolbox           |
|  \\    /   O peration     | Version:  v1906                                 |
|   \\  /    A nd           | Web:      www.OpenFOAM.com                      |
|    \\/     M anipulation  |                                                 |
\*---------------------------------------------------------------------------*/
FoamFile
{
    version     2.0;
    format      ascii;
    class       volScalarField;
    location    "97.2";
    object      p;
}
// * * * * * * * * * * * * * * * * * * * * * * * * * * * * * * * * * * * * * //

dimensions      [1 -1 -2 0 0 0 0];


internalField   nonuniform List<scalar> 
630
(
99622.7
99609.6
99671.1
99589.5
99619.3
99613.3
99669.3
99592.3
99615.7
99617.2
99667.4
99595.2
99611.8
99621.3
99665.2
99598.4
99607.7
99625.8
99662.9
99601.6
99603.4
99630.4
99660.5
99605.1
99598.8
99635.3
99657.9
99608.7
99594.3
99640.5
99655.1
99612.5
99590.7
99645.8
99652.1
99616.3
99587.9
99651.3
99649
99620.4
99585.9
99657
99645.8
99624.5
99583.9
99662.8
99642.4
99628.8
99581
99668.8
99638.8
99633.2
99576.3
99674.8
99635.1
99637.6
99570.3
99680.9
99631.3
99642
99563.9
99687
99627.3
99646.5
99557.5
99693.1
99623.2
99651
99551.1
99699.3
99619
99655.6
99544.6
99705.5
99614.8
99660.2
99538.1
99711.8
99610.4
99664.9
99531.4
99718
99606
99669.6
99524.7
99724.2
99601.4
99674.3
99518
99730.3
99596.9
99679.1
99511.2
99736.5
99592.2
99684
99504.5
99742.6
99587.6
99688.8
99497.7
99748.6
99582.9
99693.6
99490.9
99754.7
99578.2
99698.4
99484.1
99760.6
99573.5
99703.2
99477.4
99766.5
99568.8
99707.9
99470.8
99772.3
99564.1
99712.6
99464.4
99778.1
99559.4
99717.2
99458
99783.8
99554.8
99721.7
99451.8
99789.5
99550.2
99726.2
99445.7
99795.1
99545.6
99730.6
99439.7
99800.6
99541.2
99734.9
99433.8
99806
99536.7
99739.2
99428.1
99811.3
99532.4
99743.3
99422.4
99816.5
99528.1
99747.4
99416.9
99821.6
99523.9
99751.3
99411.5
99826.6
99519.9
99755.1
99406.4
99831.4
99515.9
99758.8
99401.6
99836.2
99512
99762.4
99397
99840.7
99508.3
99765.8
99392.5
99845.2
99504.7
99769.1
99388.1
99849.5
99501.2
99772.2
99383.9
99853.6
99497.8
99775.2
99379.8
99857.6
99494.6
99778
99376
99861.4
99491.6
99780.7
99372.4
99865.1
99488.6
99783.2
99369.1
99868.6
99485.8
99785.6
99365.9
99871.9
99483.2
99787.9
99363
99875
99480.7
99790
99360.2
99878
99478.4
99791.9
99357.7
99880.8
99476.2
99793.7
99355.4
99883.3
99474.2
99795.4
99353.2
99885.7
99472.4
99796.9
99351.3
99887.9
99470.7
99798.2
99349.5
99890
99469.2
99799.5
99347.9
99891.8
99467.8
99800.6
99346.4
99893.4
99466.6
99801.6
99345.2
99894.9
99465.5
99802.5
99344
99896.2
99464.5
99803.3
99343
99897.4
99463.7
99804
99342.1
99898.4
99462.9
99804.6
99341.3
99899.3
99462.3
99805.2
99340.7
99900
99461.7
99805.7
99340.1
99900.7
99461.2
99806.1
99339.6
99901.2
99460.8
99806.5
99339.2
99901.6
99460.5
99806.8
99338.8
99902
99460.2
99807.2
99338.5
99902.3
99459.9
99807.5
99338.2
99902.6
99459.7
99807.7
99337.9
99902.8
99459.5
99807.9
99337.7
99903
99459.3
99808.1
99337.5
99903.1
99459.1
99808.3
99337.3
99903.3
99459
99808.4
99337.2
99903.4
99458.9
99808.5
99337.1
99903.5
99458.8
99808.6
99337.1
99903.5
99458.8
99808.7
99009.5
99001.6
98996.7
99012.7
99009.9
99001.5
98996.9
99012.5
99010.3
99001.4
98997.1
99012.2
99010.7
99001.2
98997.3
99011.9
99011.2
99001
98997.5
99011.6
99011.8
99000.8
98997.8
99011.3
99012.3
99000.6
98998
99011
99012.6
99000.4
98998.3
99010.6
99012.9
99000.1
98998.5
99010.1
99013.2
98999.8
98998.8
99009.7
99013.7
98999.5
98999.1
99009.2
99014.4
98999.2
98999.5
99008.7
99015.2
98998.9
98999.8
99008.2
99016
98998.5
99000.2
99007.8
99016.8
98998.1
99000.6
99007.5
99017.6
98997.7
99001
99007.2
99018.5
98997.3
99001.4
99006.8
99019.4
98996.9
99001.9
99006.3
99020.3
98996.4
99002.3
99005.6
99021.2
98996
99002.8
99004.8
99021.9
98995.7
99003.4
99004.1
99022.4
98995.4
99003.9
99003.3
99023
98995
99004.4
99002.5
99023.7
98994.6
99005
99001.8
99024.6
98994
99005.6
99001
99025.5
98993.5
99006.2
99000.2
99026.6
98993
99006.8
98999.4
99027.5
98992.4
99007.3
98998.9
99028.4
98991.9
99007.9
98998.5
99029.2
98991.3
99008.5
98998.2
99030
98990.7
99009.1
98997.7
99030.8
98990.2
99009.7
98997
99031.5
98989.8
99010.3
98996.2
99032.3
98989.4
99010.8
98995.5
99033.1
98989.1
99011.4
98994.7
99033.9
98988.7
99011.9
98994
99034.6
98988.2
99012.5
98993.3
99035.3
98987.7
99013
98992.7
99036
98987.2
99013.6
98992
99036.7
98986.7
99014.1
98991.4
99037.4
98986.2
99014.6
98990.8
99038
98985.7
99015.1
98990.4
99038.7
98985.3
99015.5
98990
99039.3
98985
99016
98989.6
99039.9
98984.6
99016.4
98989.2
99040.4
98984.3
99016.8
98988.8
99040.9
98983.9
99017.2
98988.3
99041.5
98983.6
99017.6
98987.9
99041.9
98983.3
99018
98987.4
99042.4
98982.9
99018.3
98987
99042.8
98982.7
99018.6
98986.7
99043.2
98982.4
99018.9
98986.4
99043.6
98982.1
99019.2
98986.1
99044
98981.9
99019.5
98985.8
99044.3
98981.7
99019.7
98985.5
99044.6
98981.5
99020
98985.3
99044.9
98981.3
99020.2
98985.1
99045.1
98981.1
99020.3
98984.9
99045.3
98980.9
99020.5
98984.7
99045.6
98980.8
99020.7
98984.5
99045.7
98980.7
99020.8
98984.4
99045.9
98980.6
99020.9
98984.2
99046
98980.5
99021
98984.1
99046.2
98980.4
99021.1
98984
99046.3
98980.3
99021.2
98983.9
99046.4
98980.2
99021.3
98983.8
99046.4
98980.2
99021.3
98983.8
99046.5
98980.1
99021.4
98983.7
99046.6
98980.1
99021.4
98983.7
99046.6
98980
99021.5
98983.6
99046.7
98980
99021.5
98983.6
99046.7
98979.9
99021.5
98983.5
99046.7
98979.9
99021.6
98983.5
99046.8
98979.9
99021.6
98983.5
99046.8
98979.9
99021.6
98983.5
99046.8
98979.9
99021.6
98983.4
99046.8
98979.8
99021.6
98983.4
99046.8
98979.8
99021.7
98983.4
99046.8
98979.8
)
;

boundaryField
{
    leftWall
    {
        type            calculated;
        value           nonuniform 0();
    }
    rightWall
    {
        type            calculated;
        value           nonuniform List<scalar> 8(99337.1 99021.7 99903.5 98983.4 99458.8 99046.8 99808.7 98979.8);
    }
    leftSides_periodic0
    {
        type            cyclic;
    }
    leftSides_periodic1
    {
        type            cyclic;
    }
    rightSides_periodic0
    {
        type            cyclic;
    }
    rightSides_periodic1
    {
        type            cyclic;
    }
    leftInOut_periodic0
    {
        type            cyclic;
    }
    leftInOut_periodic1
    {
        type            cyclic;
    }
    rightInOut_periodic0
    {
        type            cyclic;
    }
    rightInOut_periodic1
    {
        type            cyclic;
    }
    procBoundary3to1
    {
        type            processor;
        value           nonuniform List<scalar> 
316
(
100041
100037
100033
100037
100041
100037
100033
100037
100041
100037
100032
100038
100040
100037
100031
100038
100040
100037
100031
100038
100040
100037
100030
100038
100040
100037
100030
100039
100039
100038
100029
100039
100039
100038
100028
100039
100039
100038
100027
100040
100038
100038
100027
100040
100038
100038
100026
100040
100038
100038
100025
100041
100037
100039
100025
100041
100037
100039
100024
100041
100037
100039
100023
100042
100036
100039
100022
100042
100036
100039
100022
100042
100035
100039
100021
100043
100035
100040
100020
100043
100035
100040
100019
100044
100034
100040
100019
100044
100034
100040
100018
100044
100033
100041
100017
100045
100033
100041
100017
100045
100033
100041
100016
100046
100032
100042
100015
100046
100032
100042
100015
100046
100032
100042
100014
100047
100031
100042
100013
100047
100031
100043
100013
100048
100031
100043
100012
100048
100030
100043
100011
100048
100030
100044
100011
100049
100030
100044
100010
100049
100029
100044
100010
100049
100029
100045
100009
100050
100029
100045
100009
100050
100028
100045
100008
100050
100028
100045
100008
100051
100028
100045
100007
100051
100028
100046
100007
100051
100027
100046
100006
100052
100027
100046
100006
100052
100027
100046
100005
100052
100027
100046
100005
100052
100027
100047
100005
100052
100027
100047
100004
100053
100026
100047
100004
100053
100026
100047
100004
100053
100026
100047
100003
100053
100026
100047
100003
100053
100026
100047
100003
100054
100026
100047
100003
100054
100026
100048
100003
100054
100026
100048
100002
100054
100025
100048
100002
100054
100025
100048
100002
100054
100025
100048
100002
100054
100025
100048
100002
100054
100025
100048
100002
100054
100025
100048
100002
100054
100025
100048
100002
100054
100025
100048
100002
100054
100025
100048
100001
100054
100025
100048
100001
100054
100025
100048
100001
100055
100025
100048
100001
100055
100025
100048
100001
100055
100025
100048
100001
100055
100025
100048
100001
100055
100025
100048
100001
100055
100025
100048
100001
100055
100025
100048
100001
100055
100025
100048
100001
100055
100025
100048
100001
100055
100025
100048
100001
100055
100025
100048
100001
100055
100025
100048
100001
100055
)
;
    }
    procBoundary3to1throughrightSides_periodic1
    {
        type            processorCyclic;
        value           nonuniform List<scalar> 
314
(
100015
100015
100015
100015
100015
100016
100016
100016
100016
100016
100016
100016
100016
100016
100016
100016
100016
100016
100016
100016
100016
100015
100015
100015
100015
100015
100015
100015
100014
100014
100014
100014
100014
100014
100014
100013
100013
100013
100013
100013
100013
100013
100013
100012
100012
100012
100012
100012
100012
100012
100012
100012
100012
100012
100012
100012
100012
100011
100011
100011
100011
100011
100011
100011
100011
100011
100011
100011
100011
100011
100011
100011
100011
100011
100011
100011
100011
100011
100021
100021
100021
100021
100022
100022
100022
100022
100023
100023
100023
100024
100024
100024
100024
100025
100025
100025
100025
100026
100026
100026
100026
100027
100027
100027
100027
100027
100028
100028
100028
100028
100028
100029
100029
100029
100029
100029
100029
100030
100030
100030
100030
100030
100030
100031
100031
100031
100031
100031
100031
100031
100031
100031
100031
100032
100032
100032
100032
100032
100032
100032
100032
100032
100032
100032
100032
100032
100032
100032
100032
100032
100032
100032
100032
100032
100032
100032
100015
100015
100015
100015
100015
100015
100015
100015
100015
100015
100015
100015
100015
100015
100015
100015
100015
100015
100015
100015
100015
100015
100015
100015
100015
100015
100015
100015
100014
100014
100014
100014
100014
100014
100014
100014
100014
100014
100014
100014
100013
100013
100013
100013
100013
100013
100013
100013
100013
100013
100013
100013
100013
100013
100013
100013
100013
100013
100012
100012
100012
100012
100012
100012
100012
100012
100012
100012
100012
100012
100012
100012
100012
100012
100012
100012
100012
100012
100012
99996.5
99996.6
99996.7
99996.9
99997.1
99997.4
99997.6
99997.8
99998
99998.3
99998.5
99998.7
99999
99999.2
99999.4
99999.6
99999.8
100000
100000
100000
100001
100001
100001
100001
100001
100002
100002
100002
100002
100002
100003
100003
100003
100003
100003
100003
100004
100004
100004
100004
100004
100004
100004
100004
100004
100005
100005
100005
100005
100005
100005
100005
100005
100005
100005
100005
100005
100005
100005
100005
100005
100005
100005
100005
100006
100006
100006
100006
100006
100006
100006
100006
100006
100006
100006
100006
100006
100006
100006
)
;
    }
    procBoundary3to2
    {
        type            processor;
        value           nonuniform List<scalar> 
11
(
99625.8
99606.2
99672.7
99586.8
99009.1
99001.8
98996.5
99012.9
98996.5
99012.9
99012.9
)
;
    }
    procBoundary3to2throughrightInOut_periodic0
    {
        type            processorCyclic;
        value           uniform 98996.5;
    }
}


// ************************************************************************* //
