-0.0075 	0 	0 	0
-0.0075 	-5.90207e-35 	5.51681e-39 	-7.859e-33
-0.00745622 	-7.75709e-05 	7.25074e-09 	-0.0103291
-0.00745622 	-7.75709e-05 	7.25074e-09 	-0.0103291
-0.00741165 	-3.31808e-06 	8.02701e-07 	-0.0208395
-0.00741165 	-3.31808e-06 	8.02701e-07 	-0.0208395
-0.00736628 	0.000157761 	3.8365e-06 	-0.0314536
-0.00736628 	0.000157761 	3.8365e-06 	-0.0314536
-0.0073201 	0.000304108 	8.38685e-06 	-0.0420707
-0.0073201 	0.000304108 	8.38685e-06 	-0.0420707
-0.00727309 	0.000414769 	1.22532e-05 	-0.0526333
-0.00727309 	0.000414769 	1.22532e-05 	-0.0526333
-0.00722524 	0.000502131 	1.66453e-05 	-0.0630632
-0.00722524 	0.000502131 	1.66453e-05 	-0.0630632
-0.00717653 	0.000571654 	2.12849e-05 	-0.0732648
-0.00717653 	0.000571654 	2.12849e-05 	-0.0732648
-0.00712695 	0.000625876 	2.60246e-05 	-0.083145
-0.00712695 	0.000625876 	2.60246e-05 	-0.083145
-0.00707647 	0.000666361 	3.1137e-05 	-0.0926213
-0.00707647 	0.000666361 	3.1137e-05 	-0.0926213
-0.0070251 	0.000694034 	3.69937e-05 	-0.101633
-0.0070251 	0.000694034 	3.69937e-05 	-0.101633
-0.0069728 	0.00070961 	4.32275e-05 	-0.110152
-0.0069728 	0.00070961 	4.32275e-05 	-0.110152
-0.00691956 	0.000714899 	4.95488e-05 	-0.11818
-0.00691956 	0.000714899 	4.95488e-05 	-0.11818
-0.00686537 	0.000712408 	5.63939e-05 	-0.125749
-0.00686537 	0.000712408 	5.63939e-05 	-0.125749
-0.00681021 	0.000704645 	6.43866e-05 	-0.132904
-0.00681021 	0.000704645 	6.43866e-05 	-0.132904
-0.00675406 	0.00069403 	7.36e-05 	-0.139678
-0.00675406 	0.00069403 	7.36e-05 	-0.139678
-0.0066969 	0.000681981 	8.34408e-05 	-0.1461
-0.0066969 	0.000681981 	8.34408e-05 	-0.1461
-0.00663871 	0.000669039 	9.37038e-05 	-0.152195
-0.00663871 	0.000669039 	9.37038e-05 	-0.152195
-0.00657949 	0.000655685 	0.000104628 	-0.157984
-0.00657949 	0.000655685 	0.000104628 	-0.157984
-0.0065192 	0.000642403 	0.000116244 	-0.163487
-0.0065192 	0.000642403 	0.000116244 	-0.163487
-0.00645783 	0.000629583 	0.000128431 	-0.168723
-0.00645783 	0.000629583 	0.000128431 	-0.168723
-0.00639535 	0.000617547 	0.000141123 	-0.173709
-0.00639535 	0.000617547 	0.000141123 	-0.173709
-0.00633176 	0.000606531 	0.000154387 	-0.178464
-0.00633176 	0.000606531 	0.000154387 	-0.178464
-0.00626703 	0.000596584 	0.000168295 	-0.183
-0.00626703 	0.000596584 	0.000168295 	-0.183
-0.00620114 	0.000587512 	0.00018284 	-0.187326
-0.00620114 	0.000587512 	0.00018284 	-0.187326
-0.00613406 	0.000578916 	0.000197815 	-0.191448
-0.00613406 	0.000578916 	0.000197815 	-0.191448
-0.00606579 	0.000570456 	0.000212772 	-0.195368
-0.00606579 	0.000570456 	0.000212772 	-0.195368
-0.00599629 	0.000562241 	0.000227361 	-0.199101
-0.00599629 	0.000562241 	0.000227361 	-0.199101
-0.00592554 	0.000554871 	0.000241738 	-0.20267
-0.00592554 	0.000554871 	0.000241738 	-0.20267
-0.00585352 	0.000548859 	0.000256874 	-0.206097
-0.00585352 	0.000548859 	0.000256874 	-0.206097
-0.00578022 	0.000543695 	0.000273463 	-0.209394
-0.00578022 	0.000543695 	0.000273463 	-0.209394
-0.00570559 	0.000537555 	0.000290635 	-0.212551
-0.00570559 	0.000537555 	0.000290635 	-0.212551
-0.00562963 	0.000528357 	0.000306752 	-0.215565
-0.00562963 	0.000528357 	0.000306752 	-0.215565
-0.00555231 	0.000515177 	0.000320463 	-0.218447
-0.00555231 	0.000515177 	0.000320463 	-0.218447
-0.0054736 	0.000498907 	0.000332837 	-0.221212
-0.0054736 	0.000498907 	0.000332837 	-0.221212
-0.00539348 	0.00048222 	0.00034323 	-0.223865
-0.00539348 	0.00048222 	0.00034323 	-0.223865
-0.00531193 	0.000469105 	0.000352497 	-0.2264
-0.00531193 	0.000469105 	0.000352497 	-0.2264
-0.00522891 	0.000461291 	0.000367792 	-0.228806
-0.00522891 	0.000461291 	0.000367792 	-0.228806
-0.0051444 	0.000454527 	0.000392712 	-0.231088
-0.0051444 	0.000454527 	0.000392712 	-0.231088
-0.00505838 	0.000438374 	0.000423949 	-0.233272
-0.00505838 	0.000438374 	0.000423949 	-0.233272
-0.00497081 	0.000399604 	0.000445501 	-0.235395
-0.00497081 	0.000399604 	0.000445501 	-0.235395
-0.00488168 	0.000333782 	0.00044175 	-0.237482
-0.00488168 	0.000333782 	0.00044175 	-0.237482
-0.00479094 	0.000252641 	0.000420154 	-0.239536
-0.00479094 	0.000252641 	0.000420154 	-0.239536
-0.00469858 	0.000177987 	0.000413995 	-0.241523
-0.00469858 	0.000177987 	0.000413995 	-0.241523
-0.00460456 	0.000124388 	0.000447709 	-0.243399
-0.00460456 	0.000124388 	0.000447709 	-0.243399
-0.00450886 	8.75282e-05 	0.000495599 	-0.245158
-0.00450886 	8.75282e-05 	0.000495599 	-0.245158
-0.00441144 	5.32254e-05 	0.000521721 	-0.246837
-0.00441144 	5.32254e-05 	0.000521721 	-0.246837
-0.00431227 	7.44644e-06 	0.00052251 	-0.248469
-0.00431227 	7.44644e-06 	0.00052251 	-0.248469
-0.00421133 	-5.42596e-05 	0.000519596 	-0.250058
-0.00421133 	-5.42596e-05 	0.000519596 	-0.250058
-0.00410857 	-0.00012532 	0.000529371 	-0.251599
-0.00410857 	-0.00012532 	0.000529371 	-0.251599
-0.00400397 	-0.000200957 	0.000544227 	-0.253086
-0.00400397 	-0.000200957 	0.000544227 	-0.253086
-0.0038975 	-0.000280979 	0.000557561 	-0.254523
-0.0038975 	-0.000280979 	0.000557561 	-0.254523
-0.00378912 	-0.000365562 	0.000570947 	-0.255909
-0.00378912 	-0.000365562 	0.000570947 	-0.255909
-0.00367879 	-0.000454759 	0.00058463 	-0.257244
-0.00367879 	-0.000454759 	0.00058463 	-0.257244
-0.00356649 	-0.000548577 	0.000598643 	-0.258526
-0.00356649 	-0.000548577 	0.000598643 	-0.258526
-0.00345217 	-0.000647011 	0.000613055 	-0.259757
-0.00345217 	-0.000647011 	0.000613055 	-0.259757
-0.0033358 	-0.00075001 	0.000628052 	-0.260935
-0.0033358 	-0.00075001 	0.000628052 	-0.260935
-0.00321735 	-0.000857446 	0.000643734 	-0.26206
-0.00321735 	-0.000857446 	0.000643734 	-0.26206
-0.00309677 	-0.00096912 	0.000659516 	-0.26313
-0.00309677 	-0.00096912 	0.000659516 	-0.26313
-0.00297403 	-0.0010848 	0.000674069 	-0.264143
-0.00297403 	-0.0010848 	0.000674069 	-0.264143
-0.00284909 	-0.00120431 	0.000686559 	-0.265102
-0.00284909 	-0.00120431 	0.000686559 	-0.265102
-0.0027219 	-0.00132744 	0.00069775 	-0.266013
-0.0027219 	-0.00132744 	0.00069775 	-0.266013
-0.00259244 	-0.00145361 	0.000709526 	-0.266884
-0.00259244 	-0.00145361 	0.000709526 	-0.266884
-0.00246065 	-0.00158172 	0.000723513 	-0.267718
-0.00246065 	-0.00158172 	0.000723513 	-0.267718
-0.00232651 	-0.00171045 	0.000740243 	-0.268516
-0.00232651 	-0.00171045 	0.000740243 	-0.268516
-0.00218995 	-0.00183843 	0.000759115 	-0.26928
-0.00218995 	-0.00183843 	0.000759115 	-0.26928
-0.00205095 	-0.00196439 	0.000779034 	-0.270009
-0.00205095 	-0.00196439 	0.000779034 	-0.270009
-0.00190946 	-0.00208725 	0.000799385 	-0.2707
-0.00190946 	-0.00208725 	0.000799385 	-0.2707
-0.00176543 	-0.00220641 	0.000820216 	-0.271342
-0.00176543 	-0.00220641 	0.000820216 	-0.271342
-0.00161881 	-0.00232231 	0.000841115 	-0.271911
-0.00161881 	-0.00232231 	0.000841115 	-0.271911
-0.00146957 	-0.00243616 	0.000860563 	-0.272382
-0.00146957 	-0.00243616 	0.000860563 	-0.272382
-0.00131765 	-0.00254865 	0.000878181 	-0.272744
-0.00131765 	-0.00254865 	0.000878181 	-0.272744
-0.001163 	-0.00265888 	0.000895601 	-0.273006
-0.001163 	-0.00265888 	0.000895601 	-0.273006
-0.00100559 	-0.00276502 	0.000913477 	-0.273181
-0.00100559 	-0.00276502 	0.000913477 	-0.273181
-0.000845345 	-0.0028656 	0.00093473 	-0.273275
-0.000845345 	-0.0028656 	0.00093473 	-0.273275
-0.000682232 	-0.00295971 	0.000955486 	-0.273292
-0.000682232 	-0.00295971 	0.000955486 	-0.273292
-0.000516194 	-0.00304751 	0.0009713 	-0.27323
-0.000516194 	-0.00304751 	0.0009713 	-0.27323
-0.000347178 	-0.00313141 	0.000985157 	-0.27309
-0.000347178 	-0.00313141 	0.000985157 	-0.27309
-0.000175132 	-0.00321465 	0.000983566 	-0.272874
-0.000175132 	-0.00321465 	0.000983566 	-0.272874
0 	-0.00329989 	0.000980843 	-0.272592
0 	-0.00329989 	0.000980843 	-0.272592
0 	-0.00329989 	0.000980843 	-0.272592
0 	-0.00329989 	0.000980843 	-0.272592
0.000175132 	-0.003385 	0.000992963 	-0.272256
0.000175132 	0.00242318 	0.0072728 	-0.274667
0.000347178 	-0.0034631 	0.00100312 	-0.271869
0.000347178 	0.00276174 	0.00724758 	-0.274778
0.000516194 	-0.00353205 	0.00101738 	-0.271429
0.000516194 	0.00313977 	0.00720587 	-0.274741
0.000682232 	-0.00359421 	0.00103426 	-0.270937
0.000682232 	0.00354314 	0.00715778 	-0.274539
0.000845345 	-0.00364987 	0.00104625 	-0.270395
0.000845345 	0.00396123 	0.00709518 	-0.274184
0.00100559 	-0.00369758 	0.00105801 	-0.269803
0.00100559 	0.00438349 	0.00701962 	-0.273688
0.001163 	-0.00373649 	0.00106915 	-0.269159
0.001163 	0.00479971 	0.00693336 	-0.273059
0.00131765 	-0.00376637 	0.00107918 	-0.268462
0.00131765 	0.00520064 	0.00683684 	-0.272311
0.00146957 	-0.00378693 	0.00108794 	-0.267706
0.00146957 	0.00557795 	0.00673153 	-0.271455
0.00161881 	-0.00379779 	0.0010963 	-0.266886
0.00161881 	0.0059232 	0.00662137 	-0.270496
0.00176543 	-0.00379842 	0.00110432 	-0.265994
0.00176543 	0.00622825 	0.00650609 	-0.269414
0.00190946 	-0.00378756 	0.00111071 	-0.265028
0.00190946 	0.00648923 	0.00637928 	-0.268185
0.00205095 	-0.00376337 	0.00111569 	-0.263988
0.00205095 	0.00670643 	0.00624323 	-0.266825
0.00218995 	-0.00372428 	0.00112024 	-0.262884
0.00218995 	0.00688034 	0.00610645 	-0.265393
0.00232651 	-0.00366939 	0.00112387 	-0.261726
0.00232651 	0.0070108 	0.00596945 	-0.263934
0.00246065 	-0.00359857 	0.0011259 	-0.260522
0.00246065 	0.00709787 	0.00582972 	-0.262456
0.00259244 	-0.00351225 	0.00112653 	-0.259278
0.00259244 	0.00714256 	0.00568808 	-0.260959
0.0027219 	-0.00341112 	0.00112611 	-0.257997
0.0027219 	0.00714685 	0.00554584 	-0.259443
0.00284909 	-0.00329609 	0.00112457 	-0.256682
0.00284909 	0.00711295 	0.00540331 	-0.257908
0.00297403 	-0.00316822 	0.00112157 	-0.255334
0.00297403 	0.00704314 	0.00526042 	-0.256353
0.00309677 	-0.00302864 	0.00111715 	-0.253954
0.00309677 	0.00694002 	0.00511792 	-0.254778
0.00321735 	-0.00287848 	0.00111215 	-0.252545
0.00321735 	0.00680649 	0.0049774 	-0.253185
0.0033358 	-0.00271906 	0.00110768 	-0.251104
0.0033358 	0.00664553 	0.00483966 	-0.25157
0.00345217 	-0.00255169 	0.00110395 	-0.249631
0.00345217 	0.00645991 	0.00470367 	-0.249928
0.00356649 	-0.00237717 	0.00110017 	-0.248124
0.00356649 	0.00625218 	0.00456851 	-0.248249
0.00367879 	-0.0021959 	0.00109563 	-0.246585
0.00367879 	0.00602485 	0.00443548 	-0.246532
0.00378912 	0.0057803 	0.00430537 	-0.244785
0.00378912 	-0.00200819 	0.00109029 	-0.245016
0.0038975 	-0.00181444 	0.00108415 	-0.243418
0.0038975 	0.00552069 	0.00417744 	-0.243014
0.00400397 	-0.00161522 	0.00107699 	-0.241789
0.00400397 	0.00524812 	0.0040524 	-0.241212
0.00410857 	-0.00141125 	0.00106863 	-0.240129
0.00410857 	0.00496434 	0.00393382 	-0.239371
0.00421133 	-0.00120309 	0.00105909 	-0.238436
0.00421133 	0.00466953 	0.00382253 	-0.237496
0.00431227 	-0.000990946 	0.00104851 	-0.236709
0.00431227 	0.00436255 	0.00370965 	-0.23562
0.00441144 	-0.000774689 	0.00103682 	-0.234948
0.00441144 	0.00404438 	0.00358753 	-0.233789
0.00450886 	-0.000554299 	0.00102374 	-0.233151
0.00450886 	0.00372209 	0.00346067 	-0.23201
0.00460456 	-0.000330355 	0.00100916 	-0.231315
0.00460456 	0.00340926 	0.00334224 	-0.230223
0.00469858 	-0.000104133 	0.000993507 	-0.229436
0.00469858 	0.00311698 	0.00324075 	-0.228343
0.00479094 	0.000122753 	0.000977525 	-0.227509
0.00479094 	0.00284401 	0.00314845 	-0.226346
0.00488168 	0.000348927 	0.000961681 	-0.225527
0.00488168 	0.00258087 	0.00305385 	-0.224267
0.00497081 	0.000573545 	0.000945758 	-0.223485
0.00497081 	0.0023204 	0.00295411 	-0.222148
0.00505838 	0.000796156 	0.000929193 	-0.221377
0.00505838 	0.0020618 	0.00285266 	-0.220002
0.0051444 	0.00101635 	0.00091166 	-0.219201
0.0051444 	0.00180809 	0.00275386 	-0.217823
0.00522891 	0.00123353 	0.000893122 	-0.216951
0.00522891 	0.00156242 	0.00265881 	-0.215594
0.00531193 	0.00132668 	0.0025662 	-0.213307
0.00531193 	0.00144684 	0.000873556 	-0.21462
0.00539348 	0.00165516 	0.000852983 	-0.212203
0.00539348 	0.00110183 	0.00247502 	-0.210952
0.0054736 	0.00185712 	0.000831797 	-0.209691
0.0054736 	0.000888381 	0.00238498 	-0.208522
0.00555231 	0.00205174 	0.000809284 	-0.207075
0.00555231 	0.00068653 	0.00229586 	-0.206011
0.00562963 	0.0022389 	0.00078537 	-0.204349
0.00562963 	0.000496276 	0.00220746 	-0.203411
0.00570559 	0.00242135 	0.000761342 	-0.201503
0.00570559 	0.000317572 	0.00211964 	-0.200715
0.00578022 	0.00260561 	0.000735932 	-0.198529
0.00578022 	0.000150396 	0.00203234 	-0.197912
0.00585352 	0.00279725 	0.00070889 	-0.195413
0.00585352 	-5.3073e-06 	0.00194573 	-0.194992
0.00592554 	0.00299801 	0.000681175 	-0.192134
0.00592554 	-0.000149669 	0.00185985 	-0.191943
0.00599629 	0.00320642 	0.000653159 	-0.188667
0.00599629 	-0.000282849 	0.00177424 	-0.188752
0.00606579 	-0.000404943 	0.00168864 	-0.185403
0.00606579 	0.00342005 	0.00062539 	-0.184988
0.00613406 	0.00363808 	0.00059572 	-0.181071
0.00613406 	-0.000515812 	0.00160319 	-0.181877
0.00620114 	0.0038585 	0.000563006 	-0.176897
0.00620114 	-0.000615031 	0.00151832 	-0.178155
0.00626703 	0.00407559 	0.000528973 	-0.172445
0.00626703 	-0.000702074 	0.00143431 	-0.174211
0.00633176 	0.00428171 	0.000494676 	-0.167692
0.00633176 	-0.000776422 	0.00135098 	-0.170018
0.00639535 	0.00446937 	0.000460044 	-0.162616
0.00639535 	-0.000837513 	0.00126813 	-0.165546
0.00645783 	0.00463168 	0.000425089 	-0.157189
0.00645783 	-0.000884723 	0.00118604 	-0.160761
0.0065192 	0.0047632 	0.000390339 	-0.151386
0.0065192 	-0.000917414 	0.00110524 	-0.155629
0.00657949 	0.00486123 	0.000355833 	-0.145185
0.00657949 	-0.000934952 	0.0010256 	-0.150115
0.00663871 	0.00492354 	0.000321065 	-0.138563
0.00663871 	-0.000936686 	0.000946372 	-0.144175
0.0066969 	0.00494433 	0.000285639 	-0.131497
0.0066969 	-0.000921855 	0.000866867 	-0.137753
0.00675406 	0.00491197 	0.000250039 	-0.12397
0.00675406 	-0.000889604 	0.000787481 	-0.130796
0.00681021 	0.00481069 	0.000215748 	-0.115984
0.00681021 	-0.000839818 	0.000709228 	-0.123286
0.00686537 	0.00462781 	0.000183876 	-0.107559
0.00686537 	-0.000773923 	0.000632319 	-0.115233
0.00691956 	0.00435981 	0.000154769 	-0.098743
0.00691956 	-0.000694712 	0.00055703 	-0.106677
0.0069728 	0.00401406 	0.000128245 	-0.0896233
0.0069728 	-0.000605961 	0.000484202 	-0.0976949
0.0070251 	0.00360759 	0.000104132 	-0.0803309
0.0070251 	-0.0005121 	0.000414957 	-0.0884098
0.00707647 	0.00316227 	8.29194e-05 	-0.0710233
0.00707647 	-0.000417564 	0.000350327 	-0.0789715
0.00712695 	0.00270051 	6.50853e-05 	-0.0618562
0.00712695 	-0.000325928 	0.000290881 	-0.0695322
0.00717653 	0.0022434 	5.08229e-05 	-0.0529537
0.00717653 	-0.000239146 	0.000236961 	-0.0602166
0.00722524 	0.00181139 	4.01177e-05 	-0.044389
0.00722524 	-0.000157287 	0.000188125 	-0.0511033
0.00727309 	0.00142927 	3.26618e-05 	-0.0361839
0.00727309 	-7.8723e-05 	0.000144944 	-0.0422232
0.0073201 	0.00113443 	2.78756e-05 	-0.0283209
0.0073201 	-3.7499e-07 	0.000110908 	-0.0335708
0.00736628 	0.000987954 	2.17546e-05 	-0.0207476
0.00736628 	8.24045e-05 	6.5649e-05 	-0.0251061
0.00741165 	0.000929779 	1.52969e-05 	-0.0134472
0.00741165 	0.000140634 	4.26572e-05 	-0.0167081
0.00745622 	0.000668987 	8.14999e-06 	-0.00651473
0.00745622 	0.000112967 	2.09452e-05 	-0.00828266
0.0075 	0 	0 	0
0.0075 	0 	0 	0
