-0.0075 	0 	0 	0
-0.00745622 	0.000943928 	4.68986e-06 	0.0153038
-0.00741165 	0.00107085 	1.02444e-05 	0.0306001
-0.00736628 	0.00072036 	1.87265e-05 	0.0451709
-0.0073201 	0.00036437 	2.63982e-05 	0.0586586
-0.00727309 	0.000101228 	3.35252e-05 	0.0712045
-0.00722524 	-0.000123012 	4.03972e-05 	0.0829754
-0.00717653 	-0.000328348 	4.68276e-05 	0.0940515
-0.00712695 	-0.000522534 	5.28154e-05 	0.104481
-0.00707647 	-0.000708559 	5.85477e-05 	0.114289
-0.0070251 	-0.000887315 	6.43343e-05 	0.12349
-0.0069728 	-0.00105815 	6.96921e-05 	0.132095
-0.00691956 	-0.00121829 	7.37648e-05 	0.140125
-0.00686537 	-0.00136385 	7.67887e-05 	0.147616
-0.00681021 	-0.00149215 	7.96036e-05 	0.154606
-0.00675406 	-0.00160286 	8.24032e-05 	0.161135
-0.0066969 	-0.00169803 	8.46804e-05 	0.16724
-0.00663871 	-0.00178021 	8.61818e-05 	0.172952
-0.00657949 	-0.00185069 	8.71102e-05 	0.178299
-0.0065192 	-0.00190998 	8.75797e-05 	0.183309
-0.00645783 	-0.00195853 	8.7651e-05 	0.188011
-0.00639535 	-0.00199672 	8.71077e-05 	0.192431
-0.00633176 	-0.00202419 	8.56932e-05 	0.196592
-0.00626703 	-0.00203985 	8.38793e-05 	0.200518
-0.00620114 	-0.00204332 	8.22139e-05 	0.204229
-0.00613406 	-0.0020358 	8.07935e-05 	0.207748
-0.00606579 	-0.00202007 	7.92527e-05 	0.211093
-0.00599629 	-0.00199953 	7.73775e-05 	0.21428
-0.00592554 	-0.00197666 	7.57774e-05 	0.217325
-0.00585352 	-0.00195291 	7.46259e-05 	0.220239
-0.00578022 	-0.00192928 	7.3573e-05 	0.223034
-0.00570559 	-0.00190643 	7.27764e-05 	0.22572
-0.00562963 	-0.00188483 	7.21648e-05 	0.228305
-0.00555231 	-0.00186478 	7.12671e-05 	0.230797
-0.0054736 	-0.0018463 	6.98642e-05 	0.233202
-0.00539348 	-0.00182939 	6.80904e-05 	0.235527
-0.00531193 	-0.00181422 	6.66307e-05 	0.23778
-0.00522891 	-0.00180093 	6.58148e-05 	0.239965
-0.0051444 	-0.0017895 	6.52467e-05 	0.242088
-0.00505838 	-0.00177996 	6.48457e-05 	0.24415
-0.00497081 	-0.00177237 	6.47293e-05 	0.246154
-0.00488168 	-0.00176674 	6.48842e-05 	0.248103
-0.00479094 	-0.00176295 	6.53143e-05 	0.25
-0.00469858 	-0.00176079 	6.59107e-05 	0.251845
-0.00460456 	-0.00176034 	6.6378e-05 	0.253641
-0.00450886 	-0.00176219 	6.65313e-05 	0.255389
-0.00441144 	-0.00176732 	6.66698e-05 	0.257088
-0.00431227 	-0.00177658 	6.73287e-05 	0.258737
-0.00421133 	-0.00178986 	6.91017e-05 	0.260336
-0.00410857 	-0.00180601 	7.21682e-05 	0.261889
-0.00400397 	-0.00182387 	7.59136e-05 	0.263399
-0.0038975 	-0.00184329 	7.99646e-05 	0.264866
-0.00378912 	-0.00186581 	8.43506e-05 	0.266284
-0.00367879 	-0.00189371 	8.8783e-05 	0.267642
-0.00356649 	-0.00192768 	9.23293e-05 	0.268942
-0.00345217 	-0.00196508 	9.48442e-05 	0.270197
-0.0033358 	-0.00200183 	9.77614e-05 	0.271425
-0.00321735 	-0.00203762 	0.000100945 	0.272617
-0.00309677 	-0.00207654 	0.00010443 	0.273746
-0.00297403 	-0.00212637 	0.000111099 	0.274775
-0.00284909 	-0.0022037 	0.000119569 	0.275634
-0.0027219 	-0.00232401 	0.000120717 	0.276247
-0.00259244 	-0.00246641 	0.000105823 	0.276713
-0.00246065 	-0.00251988 	8.23562e-05 	0.277595
-0.00232651 	-0.00236342 	8.8196e-05 	0.279527
-0.00218995 	-0.00214424 	0.0001198 	0.281676
-0.00205095 	-0.00204479 	0.000131342 	0.283025
-0.00190946 	-0.00205034 	0.000122866 	0.283731
-0.00176543 	-0.00211307 	0.000118481 	0.284106
-0.00161881 	-0.00218381 	0.000120693 	0.284377
-0.00146957 	-0.0022481 	0.000122002 	0.284586
-0.00131765 	-0.00230816 	0.000122204 	0.284712
-0.001163 	-0.00236419 	0.000121581 	0.284746
-0.00100559 	-0.0024162 	0.000120487 	0.284681
-0.000845345 	-0.00246462 	0.000119906 	0.284512
-0.000682232 	-0.00251001 	0.000121058 	0.284233
-0.000516194 	-0.00255318 	0.000125448 	0.283837
-0.000347178 	-0.00259567 	0.000122826 	0.283319
-0.000175132 	-0.00263788 	0.000114734 	0.282696
0 	-0.00267521 	0.000114694 	0.282017
0.000175132 	-0.00270324 	0.000119856 	0.281319
0.000347178 	-0.00272392 	0.000129667 	0.280598
0.000516194 	-0.00273906 	0.00013587 	0.279827
0.000682232 	-0.00274446 	0.000136844 	0.279018
0.000845345 	-0.00274809 	0.00014892 	0.278135
0.00100559 	-0.0027857 	0.000168318 	0.276948
0.001163 	-0.00288323 	0.000161812 	0.275192
0.00131765 	-0.00303374 	0.000122733 	0.272798
0.00146957 	-0.00311437 	0.000111096 	0.270728
0.00161881 	-0.00304507 	0.000132104 	0.269651
0.00176543 	-0.00291237 	0.000138278 	0.268905
0.00190946 	-0.002783 	0.000127837 	0.267992
0.00205095 	-0.00266553 	0.000116477 	0.26685
0.00218995 	-0.00254635 	0.000113754 	0.265575
0.00232651 	-0.00241484 	0.00011451 	0.264231
0.00246065 	-0.00226743 	0.000109993 	0.262826
0.00259244 	-0.00210174 	9.93771e-05 	0.261369
0.0027219 	-0.0019159 	8.68457e-05 	0.259878
0.00284909 	-0.00171101 	7.55324e-05 	0.258364
0.00297403 	-0.0014917 	6.6694e-05 	0.256824
0.00309677 	-0.00126498 	6.10225e-05 	0.255241
0.00321735 	-0.00103845 	5.64394e-05 	0.253597
0.0033358 	-0.000817334 	5.11775e-05 	0.251879
0.00345217 	-0.000601793 	4.87225e-05 	0.250108
0.00356649 	-0.000387077 	5.46475e-05 	0.24833
0.00367879 	-0.000167493 	6.5968e-05 	0.246579
0.00378912 	6.02437e-05 	6.91901e-05 	0.244839
0.0038975 	0.000297668 	5.86545e-05 	0.243071
0.00400397 	0.000545097 	3.72057e-05 	0.241255
0.00410857 	0.000801899 	7.88333e-06 	0.239324
0.00421133 	0.00106763 	-1.30874e-05 	0.237106
0.00431227 	0.00133983 	-6.52068e-06 	0.23443
0.00441144 	0.00161127 	2.25845e-05 	0.231326
0.00450886 	0.001868 	3.67187e-05 	0.22833
0.00460456 	0.00210023 	2.21539e-05 	0.22589
0.00469858 	0.00231058 	6.0172e-06 	0.223785
0.00479094 	0.00250256 	5.91364e-07 	0.221652
0.00488168 	0.00267534 	3.66428e-06 	0.219344
0.00497081 	0.00282991 	1.10938e-05 	0.216884
0.00505838 	0.0029755 	1.81374e-05 	0.214324
0.0051444 	0.00312699 	2.31543e-05 	0.211672
0.00522891 	0.00329467 	2.41647e-05 	0.208918
0.00531193 	0.00347813 	2.15029e-05 	0.206058
0.00539348 	0.003669 	2.00714e-05 	0.203086
0.0054736 	0.0038587 	2.18375e-05 	0.199998
0.00555231 	0.00404326 	2.40631e-05 	0.196781
0.00562963 	0.00422217 	2.58584e-05 	0.193403
0.00570559 	0.00439583 	2.87238e-05 	0.189825
0.00578022 	0.00456414 	3.29387e-05 	0.186025
0.00585352 	0.00472548 	3.69346e-05 	0.182016
0.00592554 	0.0048772 	3.96401e-05 	0.177836
0.00599629 	0.0050171 	4.16669e-05 	0.1735
0.00606579 	0.00514373 	4.3406e-05 	0.168998
0.00613406 	0.00525584 	4.45681e-05 	0.164312
0.00620114 	0.00535181 	4.52694e-05 	0.159424
0.00626703 	0.00542944 	4.60889e-05 	0.154318
0.00633176 	0.00548637 	4.67895e-05 	0.148983
0.00639535 	0.00552039 	4.65258e-05 	0.143407
0.00645783 	0.00552926 	4.4837e-05 	0.137574
0.0065192 	0.00551044 	4.1987e-05 	0.131471
0.00657949 	0.00546104 	3.86724e-05 	0.125081
0.00663871 	0.00537768 	3.50219e-05 	0.11839
0.0066969 	0.00525665 	3.03692e-05 	0.111391
0.00675406 	0.00509125 	2.43716e-05 	0.104087
0.00681021 	0.00487117 	1.82716e-05 	0.0964904
0.00686537 	0.00459073 	1.35478e-05 	0.0886276
0.00691956 	0.00425616 	1.07081e-05 	0.0805416
0.0069728 	0.00388904 	8.92541e-06 	0.0723096
0.0070251 	0.00352159 	7.14924e-06 	0.0640484
0.00707647 	0.00318115 	5.75944e-06 	0.0559021
0.00712695 	0.00287919 	5.01576e-06 	0.048023
0.00717653 	0.00260547 	4.82751e-06 	0.0405401
0.00722524 	0.00232516 	5.48531e-06 	0.0335298
0.00727309 	0.00198104 	7.10833e-06 	0.0270002
0.0073201 	0.00149261 	9.42517e-06 	0.0208909
0.00736628 	0.000743082 	9.75169e-06 	0.0150589
0.00741165 	-0.000115438 	8.31142e-06 	0.0094382
0.00745622 	-0.000481384 	5.18164e-06 	0.00430171
0.0075 	0 	0 	0
