/*--------------------------------*- C++ -*----------------------------------*\
| =========                 |                                                 |
| \\      /  F ield         | OpenFOAM: The Open Source CFD Toolbox           |
|  \\    /   O peration     | Version:  v1912                                 |
|   \\  /    A nd           | Website:  www.openfoam.com                      |
|    \\/     M anipulation  |                                                 |
\*---------------------------------------------------------------------------*/
FoamFile
{
    version     2.0;
    format      ascii;
    class       volScalarField;
    location    "196.4";
    object      alphat;
}
// * * * * * * * * * * * * * * * * * * * * * * * * * * * * * * * * * * * * * //

dimensions      [1 -1 -1 0 0 0 0];


internalField   nonuniform List<scalar> 
10147
(
0.0190661
0.0172635
0.0153096
0.0148856
0.0149385
0.0149209
0.0148907
0.0148588
0.0148562
0.0148611
0.0148961
0.0149294
0.0149506
0.0149001
0.0153222
0.0172659
0.0152636
0.0150397
0.0149668
0.0149546
0.0149548
0.0149588
0.014975
0.0150501
0.0152733
0.0156503
0.0160151
0.0153893
0.0151265
0.0151407
0.015114
0.0150279
0.0154223
0.0175258
0.0153384
0.0187155
0.0170572
0.0153617
0.0149965
0.0150366
0.0149899
0.0149384
0.0148925
0.0148863
0.014895
0.0149441
0.014999
0.0150494
0.0150118
0.0153756
0.0170606
0.0183353
0.0168312
0.0153826
0.0150777
0.0151065
0.0150382
0.0149678
0.0149094
0.0149
0.0149122
0.0149738
0.0150475
0.0151198
0.0150937
0.0153975
0.0168356
0.0179376
0.0165908
0.015378
0.0151323
0.0151527
0.0150664
0.0149797
0.0149105
0.0148982
0.0149134
0.014986
0.015076
0.0151662
0.0151488
0.0153938
0.0165964
0.0175317
0.0163428
0.0153506
0.0151616
0.0151766
0.0150754
0.0149749
0.0148966
0.0148818
0.0148997
0.0149815
0.0150853
0.0151902
0.0151784
0.0153672
0.0163494
0.0171178
0.0160919
0.0153032
0.0151672
0.0151796
0.0150665
0.0149548
0.0148689
0.014852
0.0148722
0.0149615
0.0150765
0.0151932
0.0151844
0.0153205
0.0160996
0.0167045
0.0158426
0.0152387
0.0151516
0.0151634
0.015041
0.0149205
0.0148286
0.0148099
0.014832
0.0149274
0.0150511
0.0151771
0.015169
0.0152565
0.0158512
0.0163017
0.0155983
0.0151596
0.015117
0.0151299
0.0150006
0.0148735
0.0147771
0.014757
0.0147806
0.0148805
0.0150109
0.0151436
0.0151345
0.0151779
0.0156078
0.0159166
0.0153616
0.0150686
0.015068
0.0150834
0.0149481
0.0148156
0.0147155
0.0146943
0.0147191
0.0148227
0.0149585
0.0150971
0.0150857
0.0150872
0.0153719
0.0155535
0.0151343
0.0149687
0.0150107
0.0150296
0.0148885
0.0147508
0.0146473
0.0146252
0.014651
0.0147581
0.0148991
0.0150435
0.0150285
0.0149877
0.0151453
0.0152151
0.0149172
0.0148648
0.0149483
0.0149717
0.0148261
0.0146839
0.0145773
0.0145545
0.0145812
0.0146915
0.0148369
0.0149857
0.0149662
0.0148841
0.0149289
0.0149023
0.0147105
0.0147607
0.0148816
0.0149099
0.0147619
0.0146167
0.014508
0.0144848
0.014512
0.0146245
0.0147728
0.0149239
0.0148994
0.0147801
0.0147226
0.0146123
0.0145133
0.0146573
0.0148101
0.0148435
0.0146948
0.0145483
0.0144387
0.0144155
0.0144428
0.0145562
0.0147058
0.0148573
0.0148277
0.0146768
0.0145258
0.0143414
0.0143249
0.0145541
0.0147328
0.0147711
0.0146235
0.0144772
0.0143678
0.0143449
0.014372
0.0144852
0.0146345
0.0147847
0.0147501
0.0145735
0.0143377
0.0140888
0.0141457
0.0144499
0.0146486
0.0146915
0.0145466
0.0144018
0.0142936
0.0142713
0.0142979
0.0144098
0.0145574
0.0147049
0.0146656
0.0144691
0.0141587
0.0138535
0.0139764
0.0143431
0.0145565
0.0146035
0.0144624
0.0143204
0.0142143
0.0141929
0.0142186
0.0143283
0.0144731
0.0146167
0.0145731
0.0143619
0.0139896
0.0136333
0.0138165
0.0142324
0.0144556
0.0145062
0.0143699
0.0142315
0.0141285
0.0141079
0.0141327
0.0142394
0.0143804
0.0145189
0.0144716
0.0142507
0.0138297
0.0134269
0.0136639
0.0141162
0.0143449
0.0143985
0.0142679
0.0141341
0.0140346
0.0140152
0.0140387
0.0141418
0.0142781
0.0144109
0.0143604
0.014134
0.0136769
0.0132337
0.013516
0.0139935
0.014224
0.01428
0.0141556
0.014027
0.0139316
0.0139134
0.0139357
0.0140346
0.0141656
0.014292
0.0142389
0.0140106
0.0135289
0.0130527
0.0133705
0.0138631
0.0140924
0.0141503
0.0140326
0.0139097
0.0138186
0.0138018
0.0138226
0.013917
0.0140422
0.0141619
0.0141066
0.0138795
0.0133831
0.0128817
0.0132248
0.0137244
0.01395
0.0140095
0.0138985
0.0137815
0.013695
0.0136795
0.0136989
0.0137886
0.0139078
0.0140206
0.0139636
0.01374
0.013237
0.0127176
0.0130768
0.0135767
0.0137971
0.0137891
0.0137493
0.0136424
0.0135606
0.0135464
0.0135644
0.0136493
0.0137572
0.013799
0.0138102
0.0135916
0.0130886
0.0125573
0.0129246
0.0134201
0.0134894
0.0134456
0.013419
0.0133702
0.0133297
0.0133264
0.0133319
0.0133751
0.0134264
0.0134553
0.013501
0.0134342
0.0129359
0.0123979
0.0127666
0.013144
0.0131499
0.0131104
0.0130763
0.0130376
0.0130042
0.0130027
0.0130062
0.0130423
0.0130837
0.0131203
0.0131613
0.0131545
0.0127774
0.0122368
0.0126019
0.0128194
0.012848
0.0128279
0.0127831
0.0127378
0.0127002
0.0126975
0.0127025
0.0127429
0.0127909
0.0128379
0.0128594
0.0128292
0.0126122
0.012072
0.0124302
0.0125302
0.0126008
0.0126017
0.0125494
0.0124954
0.0124516
0.0124476
0.0124544
0.012501
0.0125575
0.0126116
0.0126121
0.0125402
0.0124401
0.0119026
0.0122518
0.0122916
0.0124005
0.0124196
0.0123637
0.0123032
0.0122546
0.0122495
0.0122577
0.0123092
0.0123719
0.0124293
0.0124115
0.012302
0.0122612
0.0117278
0.0120667
0.0120929
0.0122307
0.0122646
0.0122076
0.0121434
0.012092
0.0120864
0.0120952
0.0121496
0.0122157
0.0122739
0.0122413
0.0121035
0.0120757
0.0115475
0.0118745
0.0119163
0.0120745
0.01212
0.0120632
0.0119976
0.0119448
0.0119393
0.0119482
0.0120038
0.0120712
0.0121289
0.0120847
0.0119268
0.0118831
0.0113614
0.0116311
0.0117463
0.0119185
0.0119734
0.0119173
0.0118515
0.0117985
0.0117932
0.0118019
0.0118577
0.0119251
0.0119819
0.0119283
0.0117565
0.0116384
0.0111627
0.0113879
0.0115734
0.0117553
0.0118177
0.0117625
0.0116975
0.011645
0.0116401
0.0116483
0.0117036
0.0117701
0.0118259
0.0117646
0.0115833
0.0113952
0.0109144
0.0111573
0.0113933
0.0115819
0.0116506
0.0115964
0.0115327
0.0114809
0.0114766
0.0114842
0.0115386
0.0116037
0.0116584
0.0115908
0.0114028
0.0111646
0.0106683
0.0109375
0.011205
0.0113976
0.0114708
0.0114178
0.0113558
0.0113053
0.0113015
0.0113085
0.0113616
0.0114249
0.0114782
0.011406
0.0112142
0.0109448
0.0104349
0.0107237
0.0110091
0.0112006
0.0112758
0.0112248
0.0111652
0.0111172
0.0111138
0.0111203
0.0111708
0.0112315
0.0112828
0.0112086
0.0110178
0.0107309
0.010214
0.0105101
0.0108055
0.0109843
0.0110566
0.0110097
0.0109541
0.0109117
0.0109085
0.0109145
0.0109592
0.0110158
0.011063
0.0109916
0.0108137
0.0105171
0.0100026
0.0102888
0.0105909
0.0107332
0.0107916
0.0107543
0.0107075
0.0106771
0.0106732
0.0106795
0.0107118
0.0107595
0.0107972
0.0107394
0.0105984
0.0102952
0.00979649
0.0100377
0.0103488
0.010449
0.0105055
0.0104714
0.0104283
0.010401
0.0103974
0.0104033
0.0104324
0.0104764
0.0105108
0.0104548
0.0103551
0.010043
0.00958611
0.00977093
0.0100657
0.0101565
0.0102108
0.0101799
0.0101404
0.0101159
0.0101126
0.0101181
0.0101443
0.0101847
0.0102159
0.0101619
0.0100715
0.00977587
0.00934614
0.009496
0.00977419
0.0098561
0.00990817
0.00988029
0.00984418
0.00982244
0.00981941
0.00982454
0.00984793
0.00988482
0.00991298
0.00986121
0.00977958
0.00950057
0.00908268
0.00921319
0.00947483
0.00954828
0.00959788
0.00957292
0.00954007
0.00952092
0.00951811
0.00952293
0.00954366
0.00957724
0.00960245
0.00955307
0.00947982
0.00921739
0.00881094
0.00892263
0.0091679
0.00923333
0.00928032
0.00925819
0.00922844
0.00921172
0.0092091
0.00921363
0.00923186
0.0092623
0.00928466
0.00923781
0.00917252
0.00892647
0.00853105
0.00862446
0.00885366
0.00891149
0.00895578
0.00893636
0.00890956
0.00889512
0.00889267
0.00889694
0.00891283
0.00894028
0.00895989
0.00891569
0.00885792
0.00862796
0.00824315
0.00831892
0.00853238
0.00858304
0.00862453
0.00860773
0.00858373
0.00857142
0.00856911
0.00857315
0.00858684
0.00861146
0.00862843
0.00858696
0.0085363
0.00832209
0.00794737
0.00800622
0.00820434
0.00824824
0.00828689
0.00827259
0.00825125
0.00824092
0.00823873
0.00824257
0.00825421
0.00827614
0.00829059
0.0082519
0.00820794
0.00800908
0.00764381
0.00768654
0.00786977
0.00790733
0.0079431
0.0079312
0.00791238
0.00790388
0.00790179
0.00790544
0.00791519
0.00793457
0.00794661
0.00791074
0.00787306
0.00768909
0.00733257
0.00736004
0.0075289
0.00756053
0.00759341
0.00758379
0.00756734
0.00756052
0.00755853
0.007562
0.00757
0.00758699
0.00759674
0.00756371
0.0075319
0.00736231
0.00701378
0.00702693
0.00718193
0.00720806
0.00723807
0.00723061
0.00721638
0.00721111
0.0072092
0.0072125
0.0072189
0.00723364
0.00724122
0.00721101
0.00718466
0.00702894
0.0066876
0.00668744
0.00682913
0.00685016
0.00687734
0.00687191
0.00685977
0.0068559
0.00685406
0.00685722
0.00686216
0.00687478
0.00688033
0.00685291
0.00683161
0.0066892
0.00635428
0.00634188
0.00647081
0.00648717
0.00651157
0.00650804
0.00649784
0.00649525
0.00649347
0.00649648
0.00650009
0.00651075
0.00651439
0.00648972
0.00647305
0.0063434
0.00601415
0.00599063
0.00610738
0.00611946
0.00614117
0.0061394
0.006131
0.00612956
0.00612783
0.00613072
0.00613313
0.00614196
0.00614384
0.00612183
0.00610939
0.00599194
0.00566766
0.00563422
0.00573934
0.00574758
0.00576668
0.00576653
0.0057598
0.00575937
0.00575769
0.00576046
0.0057618
0.00576895
0.0057692
0.00574977
0.00574114
0.00563533
0.00531542
0.00527333
0.00536738
0.00537218
0.00538881
0.00539012
0.00538491
0.00538539
0.00538375
0.0053864
0.00538679
0.0053924
0.00539119
0.00537422
0.00536899
0.00527425
0.00495825
0.00490883
0.00499237
0.00499417
0.00500845
0.00501107
0.00500724
0.00500851
0.00500691
0.00500945
0.00500899
0.00501322
0.0050107
0.00499605
0.00499381
0.00490959
0.00459719
0.00454184
0.00461545
0.00461465
0.00462677
0.00463052
0.00462791
0.00462986
0.00462831
0.00463074
0.00462955
0.00463253
0.00462889
0.00461639
0.00461673
0.00454245
0.00423358
0.00417378
0.00423803
0.00423505
0.00424519
0.00424989
0.00424836
0.00425089
0.00424939
0.0042517
0.00424988
0.00425178
0.00424719
0.00423666
0.00423916
0.00417426
0.0038691
0.00380637
0.00386184
0.00385711
0.00386549
0.00387093
0.00387033
0.00387334
0.00387189
0.00387408
0.00387174
0.0038727
0.00386737
0.00385859
0.00386285
0.00380674
0.00350579
0.00344168
0.00348897
0.00348289
0.00348973
0.00349572
0.00349589
0.00349929
0.0034979
0.00349997
0.0034972
0.00349737
0.00349149
0.00348426
0.00348986
0.00344195
0.00314607
0.00308204
0.00312176
0.00311473
0.00312024
0.0031266
0.0031274
0.00313109
0.00312977
0.00313171
0.0031286
0.00312812
0.00312189
0.003116
0.00312255
0.00308223
0.00279268
0.00273005
0.00276285
0.00275525
0.00275963
0.00276616
0.00276745
0.00277136
0.00277011
0.00277192
0.00276855
0.00276757
0.00276115
0.00275642
0.00276355
0.00273018
0.00244858
0.00238856
0.0024151
0.00240728
0.00241072
0.00241726
0.00241891
0.00242294
0.00242176
0.00242345
0.00241991
0.00241855
0.00241212
0.00240835
0.00241572
0.00238864
0.00211697
0.00206059
0.00208158
0.00207384
0.00207653
0.00208291
0.0020848
0.00208886
0.00208777
0.00208932
0.0020857
0.00208408
0.00207782
0.00207482
0.00208212
0.00206062
0.00180111
0.00174925
0.00176542
0.00175804
0.00176016
0.00176621
0.00176822
0.00177224
0.00177123
0.00177264
0.00176903
0.00176727
0.00176133
0.00175892
0.0017659
0.00174926
0.00150427
0.00145759
0.0014697
0.00146287
0.0014646
0.00147018
0.00147222
0.00147608
0.00147517
0.00147643
0.00147292
0.00147112
0.00146564
0.00146366
0.00147012
0.00145758
0.0012295
0.00118844
0.00119725
0.00119112
0.00119258
0.00119758
0.00119956
0.00120317
0.00120238
0.00120347
0.00120016
0.0011984
0.0011935
0.00119181
0.00119761
0.00118843
0.00097727
0.00094112
0.000947813
0.000942463
0.000943451
0.000947978
0.000949792
0.000952998
0.000952265
0.000953247
0.000950307
0.000948682
0.000944242
0.000943063
0.000948126
0.000941099
0.000749927
0.000719396
0.000724217
0.000719753
0.00072042
0.000724337
0.000725935
0.000728681
0.000728045
0.000728884
0.000726359
0.000724922
0.000721081
0.000720256
0.000724479
0.000719375
0.000552145
0.000527504
0.000530826
0.000527266
0.000527737
0.000530952
0.000532297
0.000534548
0.00053403
0.000534707
0.000532633
0.000531419
0.000528266
0.00052767
0.000531037
0.000527485
0.000386919
0.000368049
0.000370266
0.000367564
0.000367923
0.000370405
0.000371479
0.000373223
0.000372831
0.000373342
0.000371733
0.00037076
0.000368326
0.000367873
0.000370427
0.000368034
0.000255427
0.000241871
0.000243316
0.000241385
0.000241674
0.000243456
0.000244261
0.000245519
0.000245246
0.000245603
0.00024444
0.000243709
0.000241962
0.000241607
0.000243432
0.00024186
0.000156872
0.000147879
0.000148797
0.000147519
0.000147747
0.000148922
0.000149478
0.00015031
0.000150138
0.000150364
0.000149596
0.000149089
0.000147938
0.000147666
0.000148875
0.000147872
8.8337e-05
8.29341e-05
8.34907e-05
8.27226e-05
8.28895e-05
8.35879e-05
8.39355e-05
8.44308e-05
8.43348e-05
8.44634e-05
8.4006e-05
8.36878e-05
8.30036e-05
8.28111e-05
8.3538e-05
8.29306e-05
4.48885e-05
4.20119e-05
4.23217e-05
4.19132e-05
4.20197e-05
4.23883e-05
4.25805e-05
4.28415e-05
4.27943e-05
4.28589e-05
4.2618e-05
4.24417e-05
4.20807e-05
4.19607e-05
4.23474e-05
4.20105e-05
2.02345e-05
1.89055e-05
1.90573e-05
1.88696e-05
1.89271e-05
1.90969e-05
1.91888e-05
1.93087e-05
1.92884e-05
1.93168e-05
1.92063e-05
1.91219e-05
1.89557e-05
1.8892e-05
1.90696e-05
1.89051e-05
7.92841e-06
7.4064e-06
7.46952e-06
7.39686e-06
7.42242e-06
7.48952e-06
7.52667e-06
7.57394e-06
7.56639e-06
7.57723e-06
7.53374e-06
7.49954e-06
7.43386e-06
7.40585e-06
7.47454e-06
7.40636e-06
2.62089e-06
2.45114e-06
2.47264e-06
2.44962e-06
2.45875e-06
2.48093e-06
2.49331e-06
2.50891e-06
2.50651e-06
2.51002e-06
2.49569e-06
2.4843e-06
2.46258e-06
2.45265e-06
2.47436e-06
2.45117e-06
6.94635e-07
6.51032e-07
6.56757e-07
6.51068e-07
6.53583e-07
6.59437e-07
6.62679e-07
6.66791e-07
6.66162e-07
6.67089e-07
6.63314e-07
6.60333e-07
6.54603e-07
6.51879e-07
6.5722e-07
6.5105e-07
1.35253e-07
1.27164e-07
1.28261e-07
1.27256e-07
1.27753e-07
1.28874e-07
1.29489e-07
1.30275e-07
1.30156e-07
1.30333e-07
1.29612e-07
1.29047e-07
1.2795e-07
1.27413e-07
1.28352e-07
1.27169e-07
1.79633e-08
1.70192e-08
1.71589e-08
1.70429e-08
1.71123e-08
1.72408e-08
1.73202e-08
1.74089e-08
1.73987e-08
1.74159e-08
1.73348e-08
1.72612e-08
1.71353e-08
1.70612e-08
1.71694e-08
1.70198e-08
3.87683e-09
3.76025e-09
3.78777e-09
3.76666e-09
3.78561e-09
3.79253e-09
3.81012e-09
3.81332e-09
3.81736e-09
3.81394e-09
3.81136e-09
3.79413e-09
3.78736e-09
3.7679e-09
3.78831e-09
3.76e-09
3.46769e-09
3.38034e-09
3.40482e-09
3.386e-09
3.40365e-09
3.40556e-09
3.42153e-09
3.42079e-09
3.42584e-09
3.42114e-09
3.42221e-09
3.40638e-09
3.40449e-09
3.3865e-09
3.4049e-09
3.38001e-09
0.0155252
0.0156571
0.0160625
0.0156928
0.0153435
0.0151544
0.0151002
0.0150999
0.0151023
0.0151041
0.0151084
0.0151646
0.0153529
0.0156985
0.0160631
0.0156549
0.015902
0.0158909
0.0160933
0.0157227
0.0154047
0.0152472
0.0152114
0.0152224
0.015227
0.0152265
0.0152194
0.0152571
0.0154137
0.0157281
0.0160935
0.0158878
0.016231
0.0160872
0.0161039
0.0157325
0.0154437
0.0153163
0.015298
0.0153196
0.015326
0.0153235
0.0153057
0.0153259
0.0154526
0.0157376
0.0161037
0.0160831
0.0165097
0.0162445
0.0160949
0.0157232
0.0154612
0.015362
0.0153598
0.0153909
0.0153989
0.0153948
0.0153673
0.0153713
0.0154697
0.015728
0.0160943
0.0162394
0.0167363
0.0163622
0.016067
0.0156961
0.0154583
0.0153849
0.0153973
0.0154367
0.015446
0.0154405
0.0154045
0.0153938
0.0154666
0.0157006
0.0160661
0.0163563
0.0169112
0.0164407
0.016021
0.0156523
0.0154363
0.015386
0.0154113
0.0154578
0.0154678
0.0154613
0.0154181
0.0153945
0.0154443
0.0156565
0.0160198
0.016434
0.0170357
0.0164809
0.0159579
0.0155933
0.0153977
0.015368
0.0154043
0.0154565
0.015467
0.01546
0.0154108
0.0153762
0.0154054
0.0155973
0.0159564
0.0164736
0.0171125
0.0164851
0.0158801
0.0155238
0.0153484
0.0153372
0.0153825
0.0154389
0.0154496
0.0154423
0.015389
0.0153454
0.015356
0.0155277
0.0158785
0.0164772
0.0171443
0.0164569
0.0157927
0.0154502
0.0152945
0.0152994
0.0153516
0.0154107
0.0154214
0.0154141
0.015358
0.0153075
0.0153021
0.0154541
0.0157911
0.0164487
0.0171344
0.0164013
0.0156998
0.0153749
0.0152375
0.0152558
0.0153132
0.0153739
0.0153844
0.0153774
0.0153196
0.0152639
0.0152451
0.0153788
0.0156982
0.0163928
0.0170865
0.0163223
0.0156027
0.0152973
0.0151766
0.0152062
0.0152672
0.0153287
0.0153388
0.0153322
0.0152736
0.0152142
0.0151841
0.0153012
0.0156011
0.0163137
0.0170043
0.0162226
0.0155008
0.015216
0.0151103
0.0151492
0.0152127
0.0152744
0.0152841
0.0152779
0.0152191
0.0151572
0.0151178
0.0152199
0.0154993
0.0162141
0.0168914
0.0161044
0.015393
0.0151291
0.0150369
0.0150835
0.0151485
0.0152098
0.015219
0.0152133
0.0151548
0.0150913
0.0150442
0.0151329
0.0153915
0.016096
0.0167513
0.0159692
0.0152776
0.0150345
0.0149544
0.0150073
0.0150732
0.0151338
0.0151424
0.0151372
0.0150794
0.0150151
0.0149617
0.0150383
0.0152763
0.015961
0.0165869
0.0158181
0.0151532
0.0149304
0.0148612
0.0149193
0.0149853
0.0150448
0.0150529
0.0150482
0.0149913
0.0149268
0.0148683
0.0149342
0.015152
0.0158102
0.0164007
0.0156518
0.0150183
0.0148151
0.0147555
0.0148177
0.0148834
0.0149418
0.0149493
0.014945
0.0148893
0.0148251
0.0147625
0.0148188
0.0150172
0.0156442
0.0161952
0.015471
0.0148716
0.0146871
0.014636
0.0147015
0.0147664
0.0148234
0.0148304
0.0148266
0.0147722
0.0147087
0.0146428
0.0146907
0.0148706
0.0154636
0.0159727
0.0152761
0.0147122
0.0145451
0.0145015
0.0145696
0.0146335
0.014689
0.0146955
0.0146922
0.0146391
0.0145766
0.0145082
0.0145487
0.0147111
0.015269
0.0157352
0.0150679
0.0145394
0.0143886
0.0143515
0.0144216
0.0144842
0.0145383
0.0145442
0.0145413
0.0144896
0.0144283
0.014358
0.0143921
0.0145384
0.0150612
0.0154848
0.0148474
0.0143533
0.0142174
0.014186
0.0142576
0.0143189
0.0143715
0.0143769
0.0143744
0.0143241
0.0142641
0.0141923
0.0142208
0.0143524
0.014841
0.0152231
0.0146158
0.0141547
0.0140322
0.0140056
0.0140785
0.0141384
0.0141896
0.0141946
0.0141924
0.0141434
0.0140849
0.0140117
0.0140356
0.0141538
0.0146098
0.0149513
0.0143742
0.0139445
0.0138343
0.0138118
0.0138858
0.0139442
0.013994
0.0139985
0.0139967
0.0139491
0.0138919
0.0138178
0.0138375
0.0139437
0.0143685
0.0146704
0.0141234
0.0137237
0.013625
0.0136063
0.0136809
0.0137377
0.0137861
0.0137902
0.0137888
0.0137425
0.0136869
0.0136121
0.0136282
0.013723
0.014118
0.014381
0.0138638
0.0134932
0.0134056
0.0133903
0.0134651
0.0135202
0.013567
0.0135707
0.0135696
0.0135248
0.0134709
0.013396
0.0134087
0.0134925
0.0138588
0.0140836
0.013596
0.0132535
0.0131767
0.0131647
0.0132392
0.0132923
0.0133374
0.0133406
0.0133399
0.0132968
0.0132448
0.0131702
0.0131798
0.0132529
0.0135914
0.013779
0.0133205
0.013005
0.0129389
0.01293
0.0130037
0.0130547
0.013098
0.0131008
0.0131005
0.013059
0.0130092
0.0129354
0.012942
0.0130046
0.0133162
0.0134673
0.0130374
0.0127482
0.0126923
0.0126863
0.0127588
0.0128076
0.012849
0.0128514
0.0128515
0.0128118
0.0127641
0.0126915
0.0126954
0.0127478
0.0130334
0.013149
0.0127465
0.0124828
0.0124366
0.0124332
0.0125043
0.0125508
0.0125904
0.0125923
0.0125928
0.012555
0.0125094
0.0124383
0.0124397
0.0124826
0.012743
0.0128242
0.0124482
0.0122091
0.0121718
0.0121708
0.01224
0.0122844
0.012322
0.0123236
0.0123243
0.0122884
0.012245
0.0121758
0.0121749
0.0122091
0.012445
0.0124936
0.012143
0.0119278
0.0118985
0.0118995
0.0119666
0.0120088
0.0120444
0.0120456
0.0120466
0.0120127
0.0119714
0.0119043
0.0119016
0.0119279
0.0121401
0.0121576
0.0118313
0.0116393
0.0116172
0.0116199
0.0116847
0.0117246
0.0117581
0.0117589
0.0117602
0.0117284
0.0116894
0.0116247
0.0116203
0.0116396
0.0118288
0.0118167
0.0115137
0.011344
0.0113283
0.0113326
0.0113948
0.0114322
0.0114635
0.011464
0.0114656
0.0114359
0.0113993
0.0113372
0.0113314
0.0113444
0.0115115
0.0114713
0.0111906
0.0110421
0.0110321
0.0110376
0.0110971
0.0111319
0.0111611
0.0111613
0.0111632
0.0111355
0.0111015
0.0110421
0.0110352
0.0110428
0.0111886
0.0111217
0.0108622
0.010734
0.0107288
0.0107352
0.0107918
0.0108241
0.0108512
0.0108511
0.0108532
0.0108275
0.0107961
0.0107396
0.0107318
0.0107348
0.0108605
0.0107682
0.0105288
0.0104198
0.0104184
0.0104256
0.0104792
0.0105089
0.0105341
0.0105337
0.010536
0.0105123
0.0104834
0.0104299
0.0104215
0.0104207
0.0105274
0.0104112
0.0101907
0.0100997
0.0101014
0.0101091
0.0101597
0.0101869
0.0102102
0.0102096
0.0102121
0.0101902
0.0101637
0.0101133
0.0101045
0.0101008
0.0101896
0.010051
0.00984838
0.0097739
0.00977818
0.00978611
0.00983367
0.00985851
0.00987991
0.00987907
0.00988175
0.00986166
0.0098376
0.00979018
0.00978123
0.00977511
0.00984752
0.00968783
0.00950209
0.00944268
0.00944905
0.00945705
0.0095017
0.00952421
0.00954385
0.00954281
0.00954563
0.00952726
0.0095055
0.00946101
0.00945208
0.00944402
0.00950145
0.00932207
0.00915228
0.00910627
0.00911436
0.00912225
0.00916413
0.00918448
0.00920242
0.00920122
0.00920414
0.00918743
0.00916781
0.0091261
0.00911738
0.00910771
0.00915185
0.00895401
0.00879908
0.00876473
0.00877426
0.00878189
0.00882118
0.00883955
0.00885588
0.00885455
0.00885754
0.0088424
0.00882475
0.00878565
0.00877727
0.00876627
0.00879885
0.0085837
0.00844256
0.0084182
0.00842894
0.00843618
0.00847307
0.00848964
0.00850443
0.00850301
0.00850604
0.00849239
0.00847652
0.00843985
0.00843193
0.00841983
0.00844249
0.00821121
0.00808285
0.00806694
0.00807868
0.00808542
0.00812009
0.00813504
0.00814838
0.0081469
0.00814994
0.0081377
0.00812344
0.008089
0.00808165
0.00806864
0.00808293
0.00783653
0.00772
0.00771112
0.00772371
0.00772986
0.00776248
0.00777598
0.00778794
0.00778643
0.00778945
0.00777854
0.00776572
0.00773334
0.00772665
0.00771289
0.00772021
0.0074596
0.00735404
0.0073509
0.00736419
0.00736969
0.00740043
0.00741263
0.00742329
0.00742177
0.00742474
0.0074151
0.00740357
0.00737309
0.00736711
0.00735273
0.00735436
0.00708035
0.00698499
0.00698646
0.00700032
0.00700512
0.00703413
0.00704517
0.0070546
0.0070531
0.007056
0.00704756
0.00703717
0.00700843
0.00700321
0.00698833
0.00698542
0.00669879
0.00661297
0.00661802
0.00663235
0.00663642
0.00666382
0.00667384
0.00668209
0.00668064
0.00668344
0.00667613
0.00666676
0.00663965
0.00663521
0.00661993
0.00661349
0.00631504
0.00623818
0.00624591
0.00626061
0.00626394
0.00628984
0.00629894
0.0063061
0.00630471
0.0063074
0.00630116
0.00629269
0.00626709
0.00626344
0.00624785
0.00623878
0.00592937
0.00586098
0.00587063
0.0058856
0.00588819
0.00591268
0.00592097
0.00592709
0.00592577
0.00592835
0.0059231
0.00591544
0.00589127
0.00588839
0.00587259
0.00586164
0.0055423
0.00548193
0.00549284
0.00550799
0.00550987
0.00553302
0.00554057
0.00554573
0.0055445
0.00554694
0.00554262
0.00553569
0.00551287
0.00551074
0.00549482
0.00548265
0.00515459
0.00510184
0.00511346
0.00512869
0.00512991
0.00515177
0.00515865
0.00516292
0.00516178
0.00516408
0.00516062
0.00515435
0.00513283
0.0051314
0.00511544
0.00510261
0.00476732
0.00472181
0.0047337
0.00474891
0.00474952
0.00477012
0.00477639
0.00477985
0.00477881
0.00478096
0.00477828
0.00477262
0.00475236
0.00475157
0.00473567
0.00472262
0.00438186
0.00434323
0.00435504
0.00437014
0.00437021
0.00438958
0.00439527
0.004398
0.00439706
0.00439906
0.00439708
0.00439198
0.00437296
0.00437274
0.004357
0.00434407
0.00399993
0.00396779
0.00397927
0.00399415
0.00399377
0.00401192
0.00401707
0.00401914
0.0040183
0.00402015
0.00401879
0.00401423
0.00399643
0.00399669
0.0039812
0.00396864
0.00362358
0.00359749
0.00360849
0.00362304
0.00362231
0.00363922
0.00364385
0.00364536
0.0036446
0.00364632
0.00364549
0.00364143
0.00362487
0.00362549
0.00361038
0.00359835
0.00325516
0.00323463
0.0032391
0.00324189
0.00324272
0.00325911
0.00326813
0.00326805
0.0032695
0.00326902
0.00326973
0.0032612
0.00324507
0.003244
0.0032405
0.00323549
0.00286913
0.00283712
0.00283519
0.0028381
0.00283823
0.00285355
0.00286191
0.00286161
0.00286299
0.00286252
0.00286342
0.00285555
0.00284048
0.00284013
0.00283654
0.00283762
0.00248086
0.00245423
0.00245194
0.00245699
0.00245642
0.00247036
0.00247705
0.00247684
0.00247776
0.00247766
0.00247842
0.0024722
0.00245851
0.0024589
0.00245326
0.00245472
0.00212253
0.00210344
0.00210208
0.00210865
0.00210768
0.00212011
0.00212525
0.00212515
0.00212566
0.00212588
0.00212648
0.00212178
0.00210959
0.00211043
0.00210335
0.00210394
0.00180015
0.00178745
0.00178718
0.00179446
0.00179335
0.00180425
0.00180813
0.00180812
0.00180832
0.00180876
0.00180922
0.00180575
0.00179508
0.00179608
0.00178837
0.00178796
0.00151316
0.00150532
0.00150601
0.00151337
0.00151229
0.00152171
0.00152461
0.00152465
0.00152465
0.00152521
0.00152557
0.00152303
0.00151383
0.00151483
0.00150712
0.00150583
0.00125947
0.00125519
0.00125663
0.00126364
0.00126271
0.00127072
0.00127287
0.00127294
0.00127282
0.00127342
0.0012737
0.00127188
0.00126406
0.00126494
0.00125763
0.00125567
0.00103664
0.00103487
0.00103684
0.00104325
0.00104251
0.00104923
0.00105081
0.00105088
0.0010507
0.00105129
0.00105152
0.00105022
0.00104368
0.00104439
0.00103773
0.00103531
0.000842152
0.000842084
0.000844389
0.00085006
0.000849517
0.000855063
0.00085622
0.000856287
0.000856078
0.000856633
0.000856823
0.000855911
0.000850516
0.000851038
0.000845165
0.000842482
0.000673501
0.000674524
0.000676976
0.000681851
0.000681511
0.000686004
0.000686852
0.000686899
0.000686697
0.000687186
0.000687355
0.000686715
0.000682352
0.00068268
0.000677642
0.000674874
0.000527427
0.00052909
0.000531635
0.000535704
0.000535568
0.000539122
0.000539754
0.000539759
0.000539588
0.000539994
0.000540167
0.000539709
0.000536265
0.000536396
0.000532199
0.000529393
0.000388421
0.00039094
0.000394838
0.000398094
0.00039847
0.000401088
0.000401676
0.000401426
0.000401371
0.000401628
0.000402034
0.0004016
0.000399084
0.000398716
0.00039536
0.000391235
0.000270913
0.000272981
0.000276232
0.000278595
0.00027902
0.000280903
0.000281373
0.000281143
0.000281128
0.000281295
0.000281644
0.000281292
0.000279486
0.000279069
0.000276632
0.000273209
0.000177468
0.00017896
0.000181437
0.000183034
0.000183421
0.000184702
0.00018506
0.000184869
0.00018488
0.000184977
0.000185252
0.000184978
0.000183754
0.000183371
0.000181724
0.000179124
0.000107746
0.000108694
0.000110395
0.000111385
0.000111686
0.000112494
0.000112746
0.000112608
0.000112627
0.000112678
0.000112872
0.000112675
0.000111904
0.000111606
0.000110583
0.000108802
5.98368e-05
6.03653e-05
6.14009e-05
6.19574e-05
6.2158e-05
6.26229e-05
6.27824e-05
6.26951e-05
6.27134e-05
6.27365e-05
6.28565e-05
6.27297e-05
6.22864e-05
6.20876e-05
6.15116e-05
6.04287e-05
3.00244e-05
3.02823e-05
3.08337e-05
3.11144e-05
3.12289e-05
3.14687e-05
3.15573e-05
3.15105e-05
3.15228e-05
3.15321e-05
3.15962e-05
3.15247e-05
3.12962e-05
3.11824e-05
3.08916e-05
3.03153e-05
1.34389e-05
1.35494e-05
1.38034e-05
1.39293e-05
1.39851e-05
1.40944e-05
1.41368e-05
1.41157e-05
1.41221e-05
1.41256e-05
1.41547e-05
1.41201e-05
1.40159e-05
1.39604e-05
1.38299e-05
1.35644e-05
5.27202e-06
5.31352e-06
5.41362e-06
5.4631e-06
5.4861e-06
5.52939e-06
5.54672e-06
5.53874e-06
5.54144e-06
5.54269e-06
5.55381e-06
5.53958e-06
5.49831e-06
5.47542e-06
5.42405e-06
5.31945e-06
1.75891e-06
1.7723e-06
1.80525e-06
1.82183e-06
1.8297e-06
1.84419e-06
1.85008e-06
1.84763e-06
1.84853e-06
1.84895e-06
1.85244e-06
1.84759e-06
1.83376e-06
1.82593e-06
1.80871e-06
1.77426e-06
4.72567e-07
4.76074e-07
4.84716e-07
4.892e-07
4.91334e-07
4.95227e-07
4.96814e-07
4.9623e-07
4.96461e-07
4.96582e-07
4.97446e-07
4.96132e-07
4.92415e-07
4.90289e-07
4.85633e-07
4.76595e-07
9.24716e-08
9.31416e-08
9.47828e-08
9.56645e-08
9.60844e-08
9.68423e-08
9.71522e-08
9.70537e-08
9.70966e-08
9.7122e-08
9.72746e-08
9.70171e-08
9.6293e-08
9.58744e-08
9.49591e-08
9.32417e-08
1.10701e-08
1.11427e-08
1.13331e-08
1.14361e-08
1.14884e-08
1.1576e-08
1.16136e-08
1.16031e-08
1.16088e-08
1.16111e-08
1.16279e-08
1.15963e-08
1.15126e-08
1.14605e-08
1.13535e-08
1.11543e-08
9.99193e-10
9.98204e-10
1.01543e-09
1.02088e-09
1.02802e-09
1.03266e-09
1.03691e-09
1.03524e-09
1.03682e-09
1.03579e-09
1.03792e-09
1.03408e-09
1.02971e-09
1.02254e-09
1.01681e-09
9.9898e-10
6.36682e-10
6.31886e-10
6.43197e-10
6.44574e-10
6.50576e-10
6.5168e-10
6.54862e-10
6.53317e-10
6.54945e-10
6.53574e-10
6.55351e-10
6.52357e-10
6.51377e-10
6.45343e-10
6.43838e-10
6.32238e-10
0.019077
0.0173106
0.0154819
0.0151323
0.0152047
0.0152147
0.015188
0.0151533
0.0151461
0.0151561
0.0151933
0.0152231
0.015216
0.0151459
0.015494
0.0173124
0.0186696
0.0170754
0.0155238
0.0152217
0.0152822
0.0152749
0.0152342
0.0151902
0.0151789
0.0151932
0.0152399
0.0152836
0.0152939
0.015236
0.0155365
0.0170786
0.0182456
0.0168248
0.0155382
0.0152831
0.015335
0.015313
0.01526
0.0152081
0.0151932
0.0152113
0.015266
0.015322
0.015347
0.0152979
0.0155515
0.0168294
0.0178149
0.0165673
0.0155278
0.0153181
0.0153642
0.0153299
0.0152664
0.0152079
0.0151901
0.0152112
0.0152726
0.0153392
0.0153765
0.0153333
0.0155417
0.0165731
0.0173857
0.0163092
0.0154954
0.0153287
0.0153712
0.015327
0.0152544
0.0151905
0.0151707
0.0151938
0.0152608
0.0153364
0.0153836
0.0153442
0.0155098
0.0163161
0.016965
0.0160545
0.0154435
0.0153174
0.0153578
0.0153055
0.0152255
0.0151572
0.015136
0.0151606
0.0152319
0.0153149
0.0153704
0.0153331
0.0154584
0.0160625
0.0165581
0.0158062
0.0153744
0.0152895
0.0153292
0.0152682
0.0151811
0.0151092
0.015087
0.0151126
0.0151877
0.0152779
0.015342
0.0153056
0.0153897
0.0158152
0.0161688
0.0155664
0.015292
0.0152514
0.0152915
0.0152209
0.0151259
0.0150501
0.015027
0.0150536
0.0151327
0.0152308
0.0153045
0.0152677
0.0153077
0.0155764
0.0157998
0.0153364
0.0152016
0.0152052
0.0152468
0.0151678
0.0150653
0.0149855
0.0149615
0.0149891
0.0150723
0.015178
0.01526
0.0152217
0.0152177
0.0153472
0.015452
0.0151167
0.0151065
0.015151
0.0151948
0.0151093
0.0150007
0.0149177
0.0148932
0.0149215
0.015008
0.0151196
0.0152081
0.0151675
0.0151229
0.0151283
0.0151255
0.0149068
0.0150071
0.0150877
0.0151341
0.015044
0.0149312
0.0148461
0.0148213
0.01485
0.0149385
0.0150544
0.0151473
0.0151041
0.0150238
0.0149191
0.0148195
0.0147057
0.0149026
0.0150137
0.0150628
0.01497
0.0148546
0.0147686
0.014744
0.0147726
0.0148621
0.0149804
0.015076
0.01503
0.0149193