/*--------------------------------*- C++ -*----------------------------------*\
| =========                 |                                                 |
| \\      /  F ield         | OpenFOAM: The Open Source CFD Toolbox           |
|  \\    /   O peration     | Version:  v1912                                 |
|   \\  /    A nd           | Website:  www.openfoam.com                      |
|    \\/     M anipulation  |                                                 |
\*---------------------------------------------------------------------------*/
FoamFile
{
    version     2.0;
    format      ascii;
    class       volVectorField;
    location    "196.4";
    object      UMean;
}
// * * * * * * * * * * * * * * * * * * * * * * * * * * * * * * * * * * * * * //

dimensions      [0 1 -1 0 0 0 0];


internalField   nonuniform List<vector> 
10147
(
(3.44529e-05 0.00511236 0.271308)
(0.00182553 0.00256995 0.27394)
(0.000628007 0.00162173 0.278089)
(0.000537561 0.0018444 0.279196)
(9.10487e-05 0.00174497 0.279319)
(0.000149005 0.00205534 0.279032)
(2.31112e-05 0.0020775 0.278867)
(2.77819e-05 0.00224077 0.27873)
(9.54371e-07 0.00220349 0.27867)
(-2.84493e-05 0.0022562 0.278684)
(-1.28667e-05 0.0021049 0.278786)
(-0.00013451 0.00208607 0.278909)
(-5.68564e-05 0.00177825 0.279149)
(-0.000485995 0.00186768 0.27895)
(-0.000566488 0.00163353 0.277858)
(-0.00175327 0.00256805 0.273799)
(6.4733e-05 -0.00317776 0.279261)
(4.46396e-05 -0.00331297 0.279649)
(7.57309e-05 -0.00336994 0.279816)
(4.08646e-05 -0.00343877 0.279802)
(1.60367e-05 -0.00342242 0.27978)
(-1.08577e-05 -0.00342707 0.279761)
(-4.48192e-05 -0.00334959 0.279748)
(-1.54111e-05 -0.0032906 0.27955)
(-3.27285e-05 -0.00315607 0.279131)
(0.000228056 -0.00302918 0.278219)
(2.6818e-05 -0.00320966 0.277367)
(0.000677845 -0.00319507 0.2768)
(-1.97079e-05 -0.00227867 0.275626)
(-3.88193e-05 -0.00235531 0.275806)
(-0.000106971 -0.002409 0.276079)
(-0.000166096 -0.00243787 0.27605)
(-0.000615044 -0.00243116 0.274821)
(-0.000468396 -0.00142972 0.271181)
(0.000416821 -0.0019938 0.27596)
(3.51321e-05 0.00498179 0.271734)
(0.00178122 0.00253746 0.274116)
(0.000636026 0.00166082 0.277948)
(0.000553596 0.00185129 0.27899)
(0.000100307 0.00174877 0.279131)
(0.00015648 0.00204879 0.278894)
(2.5053e-05 0.00207054 0.278769)
(2.84803e-05 0.00223108 0.27866)
(6.66689e-08 0.00219404 0.278609)
(-3.08712e-05 0.0022467 0.27862)
(-1.60601e-05 0.00209822 0.278697)
(-0.000142442 0.00207974 0.278784)
(-6.56161e-05 0.00178207 0.278977)
(-0.00050067 0.00187471 0.278754)
(-0.000572772 0.00167258 0.27772)
(-0.00170731 0.00253572 0.273975)
(3.58192e-05 0.00485393 0.27207)
(0.00172986 0.00250351 0.274209)
(0.000634315 0.00169575 0.277731)
(0.000568431 0.00185619 0.278702)
(0.000109357 0.00175069 0.278857)
(0.000163351 0.00204056 0.278666)
(2.70748e-05 0.0020618 0.278578)
(2.9319e-05 0.00221952 0.278496)
(-8.1844e-07 0.00218273 0.278455)
(-3.34168e-05 0.0022353 0.278463)
(-1.92873e-05 0.00208974 0.278517)
(-0.000149732 0.00207167 0.278569)
(-7.41616e-05 0.00178395 0.278718)
(-0.000514162 0.00187971 0.278476)
(-0.000569354 0.00170746 0.277507)
(-0.00165431 0.00250195 0.274067)
(3.6514e-05 0.00473093 0.272315)
(0.00167504 0.00246817 0.274219)
(0.000625357 0.00172547 0.277442)
(0.000581384 0.00185896 0.27834)
(0.000118145 0.00175057 0.278504)
(0.000169712 0.00203057 0.278354)
(2.90921e-05 0.00205131 0.278301)
(3.02395e-05 0.00220616 0.278245)
(-1.6984e-06 0.00216962 0.278212)
(-3.60202e-05 0.00222208 0.278217)
(-2.24676e-05 0.00207946 0.27825)
(-0.000156483 0.00206184 0.27827)
(-8.24373e-05 0.00178376 0.27838)
(-0.000525792 0.00188254 0.278123)
(-0.000558723 0.00173715 0.277222)
(-0.00159786 0.00246681 0.274078)
(3.72233e-05 0.00461285 0.272472)
(0.0016197 0.00243258 0.274149)
(0.000612768 0.00175013 0.277083)
(0.000592574 0.00185953 0.277906)
(0.000126558 0.00174859 0.278075)
(0.000175681 0.00201899 0.277964)
(3.10587e-05 0.00203915 0.277942)
(3.11815e-05 0.0021911 0.277911)
(-2.58005e-06 0.00215484 0.277886)
(-3.86324e-05 0.00220714 0.277888)
(-2.55717e-05 0.00206748 0.2779)
(-0.000162822 0.00205035 0.277891)
(-9.03231e-05 0.00178165 0.277965)
(-0.000535672 0.00188313 0.277699)
(-0.000544486 0.00176176 0.276867)
(-0.00154088 0.00243142 0.274007)
(3.795e-05 0.00449893 0.272543)
(0.00156506 0.0023966 0.274)
(0.000598234 0.0017702 0.276657)
(0.00060217 0.00185791 0.277404)
(0.000134573 0.00174481 0.277575)
(0.000181325 0.00200588 0.277498)
(3.29549e-05 0.00202543 0.277507)
(3.21198e-05 0.00217446 0.277498)
(-3.46513e-06 0.00213848 0.277481)
(-4.12304e-05 0.00219058 0.277481)
(-2.85843e-05 0.00205389 0.277474)
(-0.000168819 0.00203729 0.277437)
(-9.77956e-05 0.0017777 0.277479)
(-0.00054397 0.00188151 0.277206)
(-0.000528323 0.00178179 0.276445)
(-0.0014846 0.00239565 0.273858)
(3.86953e-05 0.004389 0.272531)
(0.00151182 0.00236038 0.273774)
(0.000582755 0.00178594 0.276166)
(0.000610331 0.00185415 0.276837)
(0.000142194 0.0017393 0.277008)
(0.000186695 0.00199134 0.276961)
(3.47696e-05 0.00201023 0.276998)
(3.30403e-05 0.00215631 0.27701)
(-4.35341e-06 0.00212065 0.277001)
(-4.38002e-05 0.00217251 0.276998)
(-3.14962e-05 0.00203878 0.276973)
(-0.000174525 0.00202274 0.276911)
(-0.000104861 0.00177198 0.276925)
(-0.000550844 0.00187772 0.276648)
(-0.000511235 0.00179746 0.275958)
(-0.00142971 0.00235965 0.273632)
(3.9459e-05 0.0042828 0.272435)
(0.00146046 0.00232401 0.273471)
(0.000567016 0.00179761 0.275612)
(0.000617213 0.00184835 0.276208)
(0.000149434 0.00173212 0.276376)
(0.000191828 0.00197544 0.276356)
(3.64959e-05 0.00199363 0.276419)
(3.39334e-05 0.00213676 0.276452)
(-5.2439e-06 0.00210142 0.276449)
(-4.63322e-05 0.00215301 0.276444)
(-3.43011e-05 0.00202224 0.276403)
(-0.000179978 0.00200678 0.276318)
(-0.000111531 0.00176455 0.276305)
(-0.000556451 0.00187184 0.276028)
(-0.000493908 0.00180906 0.275407)
(-0.00137671 0.0023235 0.273329)
(4.02401e-05 0.00418009 0.272259)
(0.00141128 0.00228753 0.273095)
(0.000551463 0.00180546 0.274996)
(0.00062296 0.00184057 0.275519)
(0.000156307 0.00172334 0.275682)
(0.000196752 0.00195825 0.275687)
(3.81301e-05 0.00197571 0.275774)
(3.47928e-05 0.0021159 0.275826)
(-6.13606e-06 0.00208089 0.275829)
(-4.88204e-05 0.00213217 0.275822)
(-3.69957e-05 0.00200433 0.275766)
(-0.000185207 0.00198949 0.275659)
(-0.000117824 0.00175549 0.275623)
(-0.000560939 0.00186397 0.275347)
(-0.000476791 0.00181683 0.274795)
(-0.00132588 0.00228725 0.272953)
(4.10368e-05 0.00408063 0.272003)
(0.00136445 0.00225097 0.272646)
(0.00053637 0.00180974 0.27432)
(0.000627706 0.00183091 0.274773)
(0.000162827 0.00171301 0.274929)
(0.000201488 0.00193983 0.274957)
(3.967e-05 0.00195654 0.275066)
(3.56147e-05 0.00209378 0.275135)
(-7.0299e-06 0.00205914 0.275144)
(-5.12612e-05 0.00211006 0.275136)
(-3.9578e-05 0.00198514 0.275066)
(-0.000190231 0.00197093 0.274938)
(-0.000123755 0.00174486 0.274882)
(-0.000564443 0.0018542 0.274609)
(-0.000460158 0.00182103 0.274124)
(-0.00127742 0.00225092 0.272505)
(4.18464e-05 0.00398417 0.271669)
(0.00132006 0.00221436 0.272127)
(0.000521889 0.00181071 0.273587)
(0.000631572 0.00181947 0.273972)
(0.000169004 0.00170121 0.274121)
(0.00020605 0.00192025 0.274168)
(4.1113e-05 0.0019362 0.274298)
(3.63961e-05 0.0020705 0.274383)
(-7.92514e-06 0.00203624 0.274398)
(-5.36515e-05 0.00208677 0.274388)
(-4.20459e-05 0.00196473 0.274305)
(-0.000195065 0.00195116 0.274159)
(-0.000129336 0.00173271 0.274084)
(-0.000567087 0.00184262 0.273816)
(-0.000444167 0.0018219 0.273394)
(-0.0012314 0.00221452 0.271986)
(4.26661e-05 0.00389051 0.271259)
(0.00127813 0.00217768 0.271539)
(0.000508101 0.00180859 0.272798)
(0.000634672 0.00180633 0.273119)
(0.000174848 0.00168799 0.27326)
(0.000210449 0.00189958 0.273324)
(4.24565e-05 0.00191475 0.273472)
(3.71337e-05 0.00204612 0.273573)
(-8.82128e-06 0.00201226 0.273592)
(-5.59883e-05 0.00206236 0.273582)
(-4.43974e-05 0.00194318 0.273486)
(-0.000199719 0.00193026 0.273323)
(-0.00013458 0.00171911 0.273233)
(-0.000568987 0.00182932 0.272969)
(-0.0004289 0.00181968 0.272609)
(-0.00118786 0.00217807 0.271398)
(4.34926e-05 0.00379943 0.270774)
(0.00123864 0.00214097 0.270884)
(0.000495047 0.00180361 0.271955)
(0.000637111 0.00179158 0.272215)
(0.000180368 0.00167341 0.272347)
(0.000214695 0.00187786 0.272428)
(4.36993e-05 0.00189225 0.272592)
(3.78247e-05 0.00202071 0.272707)
(-9.71805e-06 0.00198727 0.272731)
(-5.827e-05 0.0020369 0.27272)
(-4.6631e-05 0.00192055 0.272614)
(-0.000204203 0.00190828 0.272435)
(-0.000139495 0.00170412 0.27233)
(-0.000570249 0.00181439 0.272073)
(-0.000414402 0.00181458 0.27177)
(-0.00114678 0.00214156 0.270744)
(4.43224e-05 0.00371074 0.270216)
(0.00120153 0.00210422 0.270165)
(0.000482742 0.00179597 0.271061)
(0.000638988 0.00177532 0.271264)
(0.000185572 0.00165754 0.271387)
(0.000218799 0.00185516 0.27148)
(4.48436e-05 0.00186878 0.271661)
(3.84689e-05 0.00199435 0.271789)
(-1.06153e-05 0.00196134 0.271817)
(-6.04964e-05 0.00201047 0.271806)
(-4.87466e-05 0.00189691 0.271689)
(-0.000208531 0.00188528 0.271496)
(-0.000144092 0.00168781 0.271379)
(-0.000570973 0.00179794 0.271128)
(-0.00040069 0.00180682 0.270879)
(-0.00110811 0.00210502 0.270026)
(4.51519e-05 0.00362427 0.269587)
(0.00116673 0.00206745 0.269383)
(0.000471188 0.00178588 0.270116)
(0.000640393 0.00175764 0.270267)
(0.000190471 0.00164044 0.27038)
(0.000222776 0.00183153 0.270485)
(4.58937e-05 0.0018444 0.27068)
(3.90686e-05 0.00196709 0.27082)
(-1.15132e-05 0.00193454 0.270852)
(-6.26685e-05 0.00198313 0.270841)
(-5.07465e-05 0.00187233 0.270715)
(-0.000212715 0.00186133 0.270509)
(-0.00014838 0.00167025 0.270381)
(-0.000571251 0.00178004 0.270137)
(-0.000387768 0.00179659 0.269937)
(-0.00107177 0.00206844 0.269244)
(4.59777e-05 0.00353985 0.268888)
(0.00113416 0.00203067 0.268539)
(0.000460374 0.00177352 0.269124)
(0.00064141 0.00173862 0.269225)
(0.000195077 0.00162219 0.269329)
(0.000226641 0.00180705 0.269444)
(4.68536e-05 0.00181919 0.269652)
(3.9626e-05 0.00193902 0.269802)
(-1.24121e-05 0.00190693 0.269838)
(-6.47885e-05 0.00195495 0.269827)
(-5.26354e-05 0.00184688 0.269693)
(-0.00021677 0.00183648 0.269476)
(-0.000152371 0.0016515 0.269338)
(-0.000571168 0.00176079 0.269101)
(-0.000375626 0.00178408 0.268948)
(-0.0010377 0.00203184 0.268402)
(4.6797e-05 0.00345736 0.268122)
(0.00110373 0.00199388 0.267637)
(0.000450284 0.00175907 0.268084)
(0.000642115 0.00171835 0.26814)
(0.000199402 0.00160284 0.268234)
(0.000230406 0.00178177 0.268358)
(4.77278e-05 0.0017932 0.268578)
(4.01425e-05 0.0019102 0.268738)
(-1.33107e-05 0.00187859 0.268778)
(-6.68591e-05 0.00192601 0.268767)
(-5.44197e-05 0.00182062 0.268625)
(-0.000220709 0.00181081 0.268398)
(-0.000156079 0.00163164 0.268251)
(-0.0005708 0.00174029 0.268021)
(-0.000364247 0.00176949 0.267912)
(-0.00100581 0.00199524 0.2675)
(4.7607e-05 0.00337668 0.26729)
(0.00107538 0.00195712 0.266677)
(0.000440893 0.00174273 0.266999)
(0.000642582 0.00169693 0.267013)
(0.000203459 0.00158249 0.267098)
(0.000234085 0.00175577 0.267229)
(4.85216e-05 0.00176652 0.267459)
(4.0621e-05 0.00188072 0.267629)
(-1.42066e-05 0.00184961 0.267671)
(-6.88834e-05 0.00189639 0.267661)
(-5.6109e-05 0.00179365 0.267512)
(-0.000224549 0.00178439 0.267276)
(-0.000159518 0.00161075 0.267122)
(-0.00057022 0.00171861 0.2669)
(-0.000353608 0.00175298 0.26683)
(-0.000976026 0.00195864 0.266541)
(4.84052e-05 0.0032977 0.266393)
(0.00104902 0.00192041 0.265661)
(0.000432181 0.00172465 0.265869)
(0.000642877 0.00167446 0.265844)
(0.000207262 0.00156122 0.26592)
(0.000237692 0.00172912 0.266057)
(4.92423e-05 0.00173925 0.266296)
(4.10658e-05 0.00185066 0.266475)
(-1.50972e-05 0.00182006 0.26652)
(-7.08638e-05 0.00186618 0.266511)
(-5.77152e-05 0.00176604 0.266355)
(-0.00022831 0.00175731 0.266111)
(-0.000162706 0.00158893 0.265952)
(-0.000569489 0.00169588 0.265736)
(-0.000343683 0.00173474 0.265703)
(-0.000948287 0.00192208 0.265526)
(4.91894e-05 0.00322034 0.265432)
(0.00102459 0.00188376 0.264589)
(0.000424124 0.00170503 0.264695)
(0.000643061 0.00165104 0.264635)
(0.000210823 0.0015391 0.264701)
(0.000241241 0.00170187 0.264843)
(4.98984e-05 0.00171139 0.265091)
(4.14808e-05 0.00182005 0.265278)
(-1.5981e-05 0.00178997 0.265325)
(-7.28023e-05 0.0018354 0.265316)
(-5.92505e-05 0.00173783 0.265156)
(-0.000232013 0.00172958 0.264904)
(-0.000165661 0.00156623 0.26474)
(-0.000568665 0.00167218 0.264532)
(-0.000334447 0.00171493 0.264533)
(-0.000922515 0.00188558 0.264456)
(4.99582e-05 0.00314443 0.26441)
(0.00100202 0.00184714 0.263464)
(0.000416705 0.00168394 0.263478)
(0.000643206 0.00162669 0.263384)
(0.000214145 0.00151615 0.263441)
(0.000244745 0.00167399 0.263588)
(5.04978e-05 0.00168293 0.263842)
(4.1869e-05 0.00178885 0.264036)
(-1.68569e-05 0.00175931 0.264086)
(-7.47008e-05 0.00180402 0.264079)
(-6.07247e-05 0.001709 0.263912)
(-0.000235676 0.00170122 0.263655)
(-0.000168393 0.0015427 0.263488)
(-0.000567817 0.00164756 0.263287)
(-0.000325873 0.00169366 0.263318)
(-0.000898633 0.00184909 0.263331)
(5.07119e-05 0.0030698 0.263327)
(0.000981205 0.00181044 0.262285)
(0.000409927 0.00166144 0.262216)
(0.000643375 0.00160149 0.262093)
(0.000217232 0.0014924 0.262138)
(0.000248218 0.00164549 0.26229)
(5.1045e-05 0.00165382 0.262551)
(4.22307e-05 0.00175699 0.262752)
(-1.77247e-05 0.00172798 0.262804)
(-7.65595e-05 0.00177197 0.262798)
(-6.21434e-05 0.00167949 0.262627)
(-0.000239313 0.00167221 0.262364)
(-0.000170915 0.00151835 0.262192)
(-0.000567006 0.00162208 0.262)
(-0.000317959 0.00167098 0.26206)
(-0.000876548 0.00181253 0.262154)
(5.14528e-05 0.00299617 0.262184)
(0.000962058 0.00177351 0.261053)
(0.000403839 0.00163754 0.260911)
(0.000643575 0.00157538 0.260755)
(0.000220113 0.00146773 0.260785)
(0.000251694 0.00161624 0.260945)
(5.15478e-05 0.00162398 0.261214)
(4.25692e-05 0.00172442 0.261423)
(-1.85853e-05 0.00169594 0.261476)
(-7.83826e-05 0.00173919 0.261471)
(-6.35165e-05 0.00164924 0.261295)
(-0.000242964 0.00164245 0.261025)
(-0.000173259 0.00149308 0.260846)
(-0.000566238 0.00159567 0.260667)
(-0.000310747 0.00164689 0.260758)
(-0.000856158 0.00177572 0.260924)
(5.2183e-05 0.00292329 0.260983)
(0.000944475 0.00173618 0.25977)
(0.000398424 0.0016122 0.259559)
(0.000643767 0.00154822 0.259363)
(0.000222834 0.00144204 0.259376)
(0.000255198 0.00158611 0.259544)
(5.20173e-05 0.00159326 0.259824)
(4.28948e-05 0.00169098 0.260042)
(-1.9441e-05 0.00166305 0.260097)
(-8.01838e-05 0.00170554 0.260093)
(-6.48585e-05 0.0016181 0.259909)
(-0.000246661 0.00161178 0.25963)
(-0.000175481 0.00146679 0.259443)
(-0.000565481 0.00156823 0.25928)
(-0.000304212 0.00162137 0.259409)
(-0.000837359 0.00173851 0.259642)
(5.29032e-05 0.00285095 0.259726)
(0.000928353 0.00169834 0.258437)
(0.000393512 0.00158536 0.258153)
(0.00064389 0.00152002 0.257916)
(0.000225435 0.00141535 0.257912)
(0.000258716 0.0015551 0.258088)
(5.24543e-05 0.00156165 0.258377)
(4.32158e-05 0.00165663 0.258604)
(-2.02929e-05 0.00162923 0.258661)
(-8.19718e-05 0.00167096 0.258658)
(-6.61716e-05 0.00158604 0.258467)
(-0.000250394 0.00158023 0.258179)
(-0.000177624 0.00143948 0.257985)
(-0.000564679 0.00153974 0.257837)
(-0.00029818 0.00159435 0.258006)
(-0.000820047 0.00170078 0.25831)
(5.36128e-05 0.00277897 0.258414)
(0.000913593 0.00165989 0.257054)
(0.000388857 0.00155709 0.256691)
(0.000643896 0.0014908 0.256418)
(0.000227931 0.00138766 0.256399)
(0.000262226 0.00152325 0.256582)
(5.28521e-05 0.00152919 0.256879)
(4.35321e-05 0.00162143 0.257113)
(-2.11395e-05 0.00159456 0.257172)
(-8.37441e-05 0.00163553 0.25717)
(-6.74482e-05 0.00155313 0.256974)
(-0.00025415 0.00154783 0.256678)
(-0.000179714 0.00141117 0.256479)
(-0.000563789 0.00151022 0.256344)
(-0.000292407 0.0015659 0.256548)
(-0.000804124 0.00166244 0.256929)
(5.43112e-05 0.00270723 0.257049)
(0.000900099 0.00162079 0.255624)
(0.00038426 0.0015275 0.255179)
(0.000643785 0.00146057 0.254876)
(0.000230315 0.00135897 0.254845)
(0.000265712 0.00149058 0.255032)
(5.32031e-05 0.00149593 0.255336)
(4.38394e-05 0.00158542 0.255576)
(-2.19793e-05 0.00155908 0.255637)
(-8.54943e-05 0.00159928 0.255635)
(-6.86798e-05 0.00151939 0.255434)
(-0.000257913 0.00151459 0.255133)
(-0.000181754 0.00138186 0.254929)
(-0.000562814 0.00147968 0.254806)
(-0.000286699 0.00153613 0.255038)
(-0.000789497 0.00162344 0.2555)
(5.49973e-05 0.00263566 0.255633)
(0.000887794 0.00158104 0.254147)
(0.000379658 0.00149666 0.25362)
(0.000643588 0.00142933 0.253293)
(0.000232576 0.00132931 0.253253)
(0.000269163 0.00145708 0.253444)
(5.35016e-05 0.00146187 0.253753)
(4.41322e-05 0.00154863 0.253999)
(-2.28117e-05 0.00152283 0.25406)
(-8.72169e-05 0.00156224 0.25406)
(-6.98602e-05 0.00148486 0.253855)
(-0.00026168 0.00148052 0.253549)
(-0.000183734 0.00135155 0.253341)
(-0.000561784 0.00144812 0.253227)
(-0.000280998 0.00150511 0.253483)
(-0.000776088 0.00158379 0.254025)
(5.56692e-05 0.0025642 0.254168)
(0.000876624 0.00154069 0.252624)
(0.000375084 0.00146466 0.252021)
(0.000643351 0.00139711 0.251675)
(0.000234697 0.00129867 0.251626)
(0.000272578 0.00142278 0.251822)
(5.37451e-05 0.00142704 0.252135)
(4.44071e-05 0.00151108 0.252386)
(-2.36371e-05 0.00148581 0.252447)
(-8.89097e-05 0.00152444 0.252448)
(-7.09868e-05 0.00144954 0.252239)
(-0.000265451 0.00144564 0.25193)
(-0.000185638 0.00132028 0.251718)
(-0.000560745 0.00141557 0.251612)
(-0.000275334 0.00147291 0.251886)
(-0.000763839 0.00154352 0.252503)
(5.63252e-05 0.00249282 0.252654)
(0.000866509 0.00149974 0.251054)
(0.00037059 0.00143154 0.250383)
(0.000643121 0.00136393 0.250023)
(0.000236669 0.00126707 0.249968)
(0.000275964 0.00138768 0.250167)
(5.3934e-05 0.00139145 0.250484)
(4.46635e-05 0.0014728 0.250738)
(-2.44575e-05 0.00144806 0.250799)
(-9.05738e-05 0.0014859 0.250802)
(-7.20602e-05 0.00141346 0.25059)
(-0.000269234 0.00140996 0.250278)
(-0.000187452 0.00128804 0.250063)
(-0.000559741 0.00138205 0.249962)
(-0.000269761 0.00143961 0.25025)
(-0.000752665 0.00150266 0.250934)
(5.69647e-05 0.00242156 0.251092)
(0.000857352 0.00145822 0.249435)
(0.000366217 0.00139738 0.248709)
(0.000642938 0.0013298 0.248338)
(0.000238484 0.00123453 0.248278)
(0.000279331 0.00135178 0.24848)
(5.40716e-05 0.0013551 0.2488)
(4.49031e-05 0.00143378 0.249057)
(-2.52754e-05 0.00140958 0.249118)
(-9.22131e-05 0.00144663 0.249122)
(-7.30827e-05 0.00137662 0.248908)
(-0.00027304 0.00137349 0.248593)
(-0.000189163 0.00125486 0.248375)
(-0.000558811 0.00134756 0.248279)
(-0.000264319 0.00140526 0.248577)
(-0.000742463 0.00146121 0.249316)
(5.75886e-05 0.00235035 0.24948)
(0.000849071 0.00141614 0.247768)
(0.000361986 0.00136221 0.246997)
(0.000642836 0.00129472 0.246619)
(0.000240142 0.00120103 0.246556)
(0.000282689 0.00131508 0.246761)
(5.41618e-05 0.00131799 0.247084)
(4.51293e-05 0.00139403 0.247344)
(-2.60932e-05 0.00137035 0.247404)
(-9.38336e-05 0.00140661 0.247409)
(-7.40587e-05 0.00133901 0.247193)
(-0.000276878 0.00133622 0.246876)
(-0.000190763 0.00122072 0.246655)
(-0.000557987 0.00131212 0.246562)
(-0.000259029 0.00136989 0.246867)
(-0.000733146 0.0014192 0.247649)
(5.81986e-05 0.00227913 0.247813)
(0.000841601 0.00137351 0.246054)
(0.000357899 0.00132601 0.245249)
(0.000642846 0.00125868 0.244867)
(0.000241642 0.00116655 0.244803)
(0.000286046 0.00127753 0.24501)
(5.42088e-05 0.00128007 0.245334)
(4.53469e-05 0.00135349 0.245596)
(-2.69134e-05 0.00133035 0.245657)
(-9.5443e-05 0.00136581 0.245663)
(-7.4992e-05 0.0013006 0.245445)
(-0.000280758 0.00129811 0.245126)
(-0.000192246 0.00118562 0.244903)
(-0.000557298 0.00127571 0.244811)
(-0.000253894 0.00133351 0.24512)
(-0.000724649 0.00137663 0.245936)
(5.8797e-05 0.00220786 0.246094)
(0.000834903 0.00133027 0.244296)
(0.000353949 0.00128877 0.243464)
(0.000642995 0.00122164 0.243081)
(0.000242984 0.00113105 0.243016)
(0.000289412 0.00123909 0.243225)
(5.42157e-05 0.0012413 0.243551)
(4.55601e-05 0.00131212 0.243815)
(-2.77374e-05 0.00128952 0.243876)
(-9.70487e-05 0.00132416 0.243882)
(-7.58854e-05 0.00126133 0.243664)
(-0.000284685 0.0012591 0.243343)
(-0.000193605 0.00114949 0.243117)
(-0.000556768 0.00123828 0.243026)
(-0.000248906 0.00129607 0.243336)
(-0.000716927 0.00133346 0.244178)
(5.93855e-05 0.00213646 0.244323)
(0.000828944 0.00128636 0.242494)
(0.000350127 0.00125042 0.241641)
(0.000643312 0.00118353 0.241261)
(0.000244168 0.00109448 0.241196)
(0.000292793 0.00119967 0.241407)
(5.41857e-05 0.00120159 0.241734)
(4.57728e-05 0.00126983 0.242)
(-2.85667e-05 0.00124776 0.24206)
(-9.86577e-05 0.0012816 0.242067)
(-7.67423e-05 0.00122114 0.241848)
(-0.000288663 0.00121913 0.241526)
(-0.000194835 0.0011123 0.241298)
(-0.000556424 0.00119977 0.241206)
(-0.000244059 0.00125752 0.241515)
(-0.000709948 0.0012896 0.242377)
(5.99657e-05 0.00206482 0.242504)
(0.000823697 0.00124166 0.240649)
(0.000346441 0.00121087 0.239782)
(0.000643826 0.00114425 0.239403)
(0.000245195 0.00105672 0.239339)
(0.000296196 0.00115918 0.239552)
(5.41213e-05 0.00116084 0.23988)
(4.59884e-05 0.00122652 0.240147)
(-2.94029e-05 0.00120499 0.240207)
(-0.000100278 0.00123802 0.240216)
(-7.75681e-05 0.0011799 0.239995)
(-0.000292696 0.0011781 0.239672)
(-0.000195933 0.00107392 0.239441)
(-0.000556295 0.00116009 0.239349)
(-0.000239362 0.00121777 0.239656)
(-0.000703682 0.00124494 0.240533)
(6.05389e-05 0.00199276 0.240638)
(0.000819125 0.00119605 0.238762)
(0.0003429 0.00117001 0.237885)
(0.000644552 0.00110368 0.237505)
(0.000246066 0.00101765 0.23744)
(0.000299631 0.00111747 0.237656)
(5.40248e-05 0.00111891 0.237985)
(4.62109e-05 0.00118205 0.238255)
(-3.0248e-05 0.00116104 0.238315)
(-0.000101919 0.00119326 0.238325)
(-7.8371e-05 0.00113748 0.238101)
(-0.000296789 0.00113584 0.237777)
(-0.000196897 0.00103423 0.237543)
(-0.000556396 0.0011191 0.237451)
(-0.000234827 0.00117671 0.23776)
(-0.000698091 0.00119937 0.238646)
(6.11061e-05 0.00192011 0.238727)
(0.000815164 0.00114936 0.236832)
(0.000339485 0.0011277 0.235948)
(0.000645499 0.00106168 0.235564)
(0.000246791 0.000977129 0.235499)
(0.000303104 0.00107439 0.235717)
(5.38976e-05 0.00107564 0.236047)
(4.64442e-05 0.00113625 0.236319)
(-3.11038e-05 0.00111578 0.236379)
(-0.000103589 0.00114718 0.23639)
(-7.91588e-05 0.00109372 0.236165)
(-0.000300945 0.00109222 0.23584)
(-0.00019773 0.000993109 0.235603)
(-0.000556735 0.00107667 0.235511)
(-0.000230439 0.00113419 0.235823)
(-0.000693112 0.00115272 0.236717)
(6.1668e-05 0.00184672 0.236774)
(0.000811739 0.00110142 0.234855)
(0.000336146 0.00108378 0.233966)
(0.000646667 0.00101812 0.233579)
(0.000247374 0.000935039 0.233515)
(0.000306614 0.00102981 0.233735)
(5.3741e-05 0.00103091 0.234065)
(4.66918e-05 0.001089 0.23434)
(-3.19711e-05 0.00106906 0.234399)
(-0.000105295 0.00109964 0.234411)
(-7.99355e-05 0.0010485 0.234184)
(-0.000305161 0.00104711 0.233859)
(-0.000198432 0.000950413 0.233619)
(-0.000557314 0.00103267 0.233526)
(-0.000226154 0.00109006 0.233843)
(-0.000688673 0.0011048 0.234741)
(6.22254e-05 0.00177238 0.234776)
(0.000808785 0.00105207 0.23283)
(0.000332825 0.0010381 0.23194)
(0.000648052 0.000972855 0.23155)
(0.000247818 0.000891233 0.231487)
(0.000310161 0.000983592 0.231709)
(5.35562e-05 0.000984561 0.23204)
(4.69568e-05 0.00104015 0.232316)
(-3.28504e-05 0.00102074 0.232375)
(-0.000107042 0.0010505 0.232388)
(-8.07027e-05 0.00100167 0.23216)
(-0.000309432 0.00100036 0.231834)
(-0.000199003 0.000906002 0.231592)
(-0.000558134 0.000986965 0.231498)
(-0.00022192 0.00104417 0.231817)
(-0.000684714 0.00105546 0.232717)
(6.27789e-05 0.00169687 0.23273)
(0.000806249 0.00100114 0.230758)
(0.000329478 0.000990548 0.229867)
(0.000649656 0.000925756 0.229476)
(0.000248122 0.000845573 0.229415)
(0.000313739 0.000935581 0.229639)
(5.33445e-05 0.000936457 0.229971)
(4.72423e-05 0.00098956 0.230249)
(-3.37421e-05 0.000970675 0.230306)
(-0.000108832 0.000999604 0.230321)
(-8.14615e-05 0.000953085 0.230091)
(-0.000313747 0.000951817 0.229765)
(-0.000199439 0.000859738 0.229521)
(-0.0005592 0.000939406 0.229424)
(-0.000217699 0.000996393 0.229747)
(-0.000681184 0.00100454 0.230646)
(6.33283e-05 0.00162 0.230636)
(0.000804077 0.000948504 0.228638)
(0.000326071 0.000940974 0.227749)
(0.000651484 0.000876689 0.227357)
(0.000248286 0.000797931 0.2273)
(0.000317342 0.000885647 0.227526)
(5.31068e-05 0.00088646 0.227857)
(4.75512e-05 0.000937088 0.228136)
(-3.46465e-05 0.000918728 0.228193)
(-0.000110669 0.000946827 0.228209)
(-8.22123e-05 0.000902603 0.227978)
(-0.000318096 0.000901356 0.227651)
(-0.000199733 0.000811494 0.227405)
(-0.000560516 0.000889869 0.227306)
(-0.000213465 0.000946593 0.22763)
(-0.000678034 0.000951899 0.228528)
(6.38732e-05 0.00154163 0.228491)
(0.000802213 0.000894016 0.226471)
(0.000322572 0.000889263 0.225586)
(0.000653534 0.000825538 0.225194)
(0.000248306 0.000748195 0.22514)
(0.00032096 0.000833671 0.225368)
(5.28435e-05 0.000834449 0.225699)
(4.78857e-05 0.000882617 0.22598)
(-3.55637e-05 0.000864781 0.226036)
(-0.000112557 0.000892046 0.226053)
(-8.29553e-05 0.000850108 0.22582)
(-0.000322463 0.000848854 0.225494)
(-0.00019988 0.000761158 0.225245)
(-0.000562087 0.000838239 0.225143)
(-0.00020919 0.000894649 0.225468)
(-0.000675212 0.000897396 0.226361)
(6.44129e-05 0.00146163 0.226298)
(0.000800596 0.000837563 0.224255)
(0.000318949 0.000835311 0.223376)
(0.000655809 0.000772205 0.222986)
(0.000248176 0.000696267 0.222936)
(0.000324578 0.000779551 0.223166)
(5.25544e-05 0.000780321 0.223497)
(4.8248e-05 0.000826046 0.223779)
(-3.64934e-05 0.000808733 0.223834)
(-0.000114498 0.000835162 0.223852)
(-8.36902e-05 0.000795497 0.223617)
(-0.000326832 0.00079421 0.223292)
(-0.00019987 0.000708634 0.223041)
(-0.000563913 0.000784419 0.222936)
(-0.000204849 0.00084046 0.22326)
(-0.000672661 0.000840918 0.224147)
(6.49462e-05 0.00137986 0.224054)
(0.000799164 0.000779051 0.221991)
(0.000315171 0.000779038 0.221121)
(0.000658304 0.000716613 0.220732)
(0.000247887 0.000642074 0.220688)
(0.000328179 0.000723206 0.22092)
(5.22388e-05 0.000723996 0.22125)
(4.86402e-05 0.000767294 0.221533)
(-3.7435e-05 0.000750505 0.221587)
(-0.000116494 0.000776093 0.221606)
(-8.44162e-05 0.000738688 0.22137)
(-0.00033118 0.000737345 0.221045)
(-0.000199696 0.000653849 0.220792)
(-0.000565994 0.000728333 0.220682)
(-0.000200413 0.000783943 0.221006)
(-0.000670323 0.00078237 0.221884)
(6.54722e-05 0.00129622 0.221761)
(0.000797851 0.00071841 0.219678)
(0.000311204 0.000720384 0.21882)
(0.000661014 0.000658708 0.218433)
(0.000247431 0.000585567 0.218395)
(0.00033174 0.000664581 0.218628)
(5.1896e-05 0.000665413 0.218958)
(4.90643e-05 0.000706304 0.219241)
(-3.83874e-05 0.00069004 0.219295)
(-0.000118547 0.000714784 0.219314)
(-8.5132e-05 0.000679622 0.219078)
(-0.000335484 0.0006782 0.218753)
(-0.000199346 0.000596757 0.218498)
(-0.000568326 0.00066993 0.218384)
(-0.000195856 0.000725041 0.218706)
(-0.000668138 0.000721684 0.219573)
(6.59893e-05 0.00121066 0.219417)
(0.000796588 0.0006556 0.217316)
(0.000307016 0.000659319 0.216471)
(0.000663932 0.000598464 0.216087)
(0.000246793 0.000526723 0.216057)
(0.000335236 0.000603649 0.216292)
(5.15248e-05 0.000604546 0.216621)
(4.95222e-05 0.000643051 0.216904)
(-3.93491e-05 0.000627313 0.216957)
(-0.000120656 0.000651207 0.216977)
(-8.58356e-05 0.000618271 0.21674)
(-0.000339715 0.00061675 0.216415)
(-0.000198806 0.000537337 0.216159)
(-0.000570904 0.000609183 0.216039)
(-0.000191147 0.000663725 0.216359)
(-0.000666039 0.000658818 0.217212)
(6.64952e-05 0.00112315 0.217021)
(0.000795298 0.000590612 0.214903)
(0.000302574 0.000595846 0.214075)
(0.000667042 0.000535891 0.213694)
(0.000245959 0.000465559 0.213672)
(0.000338634 0.000540416 0.213908)
(5.11239e-05 0.000541397 0.214236)
(5.00155e-05 0.00057754 0.214519)
(-4.03178e-05 0.00056233 0.214572)
(-0.000122822 0.000585371 0.214592)
(-8.65247e-05 0.000554638 0.214354)
(-0.000343838 0.000553001 0.21403)
(-0.00019806 0.000475602 0.213772)
(-0.000573717 0.0005461 0.213646)
(-0.000186262 0.000599997 0.213965)
(-0.000663956 0.000593765 0.214801)
(6.69874e-05 0.00103367 0.214572)
(0.000793899 0.000523479 0.212438)
(0.000297843 0.000530007 0.211629)
(0.000670326 0.000471035 0.211252)
(0.000244909 0.000402128 0.211239)
(0.000341894 0.000474929 0.211476)
(5.0692e-05 0.000476013 0.211803)
(5.05457e-05 0.000509818 0.212086)
(-4.1291e-05 0.00049514 0.212138)
(-0.000125041 0.00051732 0.212158)
(-8.71961e-05 0.000488767 0.21192)
(-0.000347811 0.000486999 0.211596)
(-0.000197088 0.000411608 0.211337)
(-0.000576749 0.000480729 0.211204)
(-0.000181173 0.000533901 0.21152)
(-0.000661815 0.000526559 0.212338)
(6.74627e-05 0.000942302 0.212067)
(0.000792301 0.00045428 0.209917)
(0.00029279 0.00046189 0.209131)
(0.000673756 0.000403991 0.208757)
(0.000243622 0.000336533 0.208755)
(0.000344972 0.000407283 0.208993)
(5.02276e-05 0.000408483 0.209319)
(5.11141e-05 0.000439978 0.209601)
(-4.2265e-05 0.000425838 0.209653)
(-0.00012731 0.00044715 0.209672)
(-8.78458e-05 0.000420749 0.209434)
(-0.000351588 0.000418836 0.209111)
(-0.000195872 0.000345459 0.208851)
(-0.000579976 0.00041317 0.208709)
(-0.000175853 0.000465523 0.209024)
(-0.000659531 0.000457277 0.209819)
(6.79168e-05 0.000849139 0.209503)
(0.000790403 0.000383145 0.207338)
(0.000287377 0.000391634 0.206578)
(0.000677294 0.000334908 0.206207)
(0.000242069 0.000268931 0.206216)
(0.000347811 0.000337625 0.206455)
(4.97288e-05 0.000338953 0.20678)
(5.17215e-05 0.00036817 0.207061)
(-4.32351e-05 0.000354573 0.207112)
(-0.000129622 0.000375009 0.207131)
(-8.84687e-05 0.000350728 0.206894)
(-0.000355111 0.000348661 0.20657)
(-0.000194389 0.000277311 0.206309)
(-0.000583367 0.000343573 0.20616)
(-0.000170273 0.000395005 0.206473)
(-0.000657016 0.000386052 0.207242)
(6.83446e-05 0.000754358 0.206875)
(0.000788092 0.000310272 0.204696)
(0.000281565 0.000319446 0.203964)
(0.000680891 0.000263996 0.203597)
(0.000240222 0.000199546 0.203618)
(0.000350349 0.000266168 0.203857)
(4.91941e-05 0.000267634 0.204181)
(5.23682e-05 0.000294606 0.204461)
(-4.41955e-05 0.000281561 0.204512)
(-0.000131968 0.00030111 0.20453)
(-8.90583e-05 0.000278912 0.204293)
(-0.000358314 0.000276685 0.20397)
(-0.000192616 0.000207388 0.203708)