/*--------------------------------*- C++ -*----------------------------------*\
| =========                 |                                                 |
| \\      /  F ield         | OpenFOAM: The Open Source CFD Toolbox           |
|  \\    /   O peration     | Version:  v1912                                 |
|   \\  /    A nd           | Website:  www.openfoam.com                      |
|    \\/     M anipulation  |                                                 |
\*---------------------------------------------------------------------------*/
FoamFile
{
    version     2.0;
    format      ascii;
    class       volVectorField;
    location    "196.4";
    object      wallShearStress;
}
// * * * * * * * * * * * * * * * * * * * * * * * * * * * * * * * * * * * * * //

dimensions      [1 -1 -2 0 0 0 0];


internalField   uniform (0 0 0);

boundaryField
{
    leftWall
    {
        type            calculated;
        value           nonuniform 0();
    }
    rightWall
    {
        type            calculated;
        value           nonuniform List<vector> 
128
(
(-3.42826e-05 0.0010582 -0.773685)
(-6.45299e-05 0.000716169 -0.330477)
(-0.000142102 0.000127862 -0.27943)
(-0.000153855 0.000108293 -0.244719)
(-0.000123752 1.11072e-05 -0.238607)
(-5.71379e-05 2.20233e-05 -0.232403)
(-3.40331e-05 3.71684e-06 -0.2343)
(-5.12026e-05 1.51761e-05 -0.228824)
(6.26329e-05 0.000959191 -0.763979)
(0.00345024 0.000618268 -0.329406)
(-0.00170463 0.000117598 -0.278171)
(0.00163856 8.44041e-05 -0.245866)
(-0.00106707 1.20808e-05 -0.235751)
(0.000585407 1.65262e-05 -0.233724)
(-0.00101542 5.69228e-06 -0.230807)
(0.000532752 1.18848e-05 -0.230924)
(0.0029135 0.00106688 -0.766801)
(0.00123035 0.00061784 -0.332462)
(-0.0016294 0.000153511 -0.274494)
(0.00148313 7.55092e-05 -0.247258)
(-0.000863344 2.25128e-05 -0.232509)
(0.000438332 1.52658e-05 -0.235292)
(-0.000586082 1.08722e-05 -0.227766)
(0.000327001 1.0572e-05 -0.232652)
(0.00355329 0.000887065 -0.76496)
(0.00173212 0.000631232 -0.333419)
(-0.000667793 0.000136477 -0.275907)
(0.00180088 5.59196e-05 -0.248437)
(-0.000466437 2.16706e-05 -0.233575)
(0.00048848 1.21445e-05 -0.236732)
(-0.000367968 8.15774e-06 -0.228534)
(0.000333091 1.00662e-05 -0.234369)
(0.00104309 0.000768759 -0.766895)
(-0.000848344 0.000684003 -0.33554)
(-0.000590187 0.000113482 -0.274951)
(0.000606951 6.15742e-05 -0.248981)
(-0.000270749 2.28573e-05 -0.233139)
(0.000256276 1.38723e-05 -0.237248)
(-0.000117119 9.39058e-06 -0.228137)
(0.000177552 1.09027e-05 -0.235052)
(-0.00278705 0.000948981 -0.767183)
(0.0008399 0.00068449 -0.335556)
(-0.000482054 0.000133114 -0.276428)
(0.000785264 6.56085e-05 -0.249508)
(0.000166434 2.35396e-05 -0.234494)
(0.000324239 1.35859e-05 -0.237893)
(0.00018647 8.14625e-06 -0.229228)
(0.000167416 1.02911e-05 -0.235603)
(-0.000513892 0.000951474 -0.769076)
(5.8525e-05 0.000674332 -0.33627)
(-0.000355146 0.000137876 -0.277224)
(0.000300065 6.5417e-05 -0.250017)
(0.000156836 2.22832e-05 -0.235467)
(0.000166294 1.44096e-05 -0.238411)
(0.00017954 7.53019e-06 -0.230219)
(5.59464e-05 1.17268e-05 -0.235993)
(0.000275614 0.000903583 -0.768959)
(0.000451336 0.000667389 -0.335993)
(7.57471e-05 0.000132754 -0.27755)
(0.000390566 5.99278e-05 -0.249572)
(0.000215086 2.01309e-05 -0.235798)
(0.000170135 1.19562e-05 -0.238143)
(0.000152752 5.91436e-06 -0.230546)
(6.5829e-05 1.0347e-05 -0.235809)
(-3.81719e-05 0.000910097 -0.769499)
(2.59281e-05 0.000671588 -0.336433)
(6.80444e-05 0.000130056 -0.277725)
(0.000123489 6.10708e-05 -0.249826)
(0.000131645 1.94742e-05 -0.235978)
(9.15278e-05 1.29456e-05 -0.238293)
(5.72819e-05 5.85826e-06 -0.230715)
(3.93419e-05 1.14739e-05 -0.235892)
(-0.000306583 0.000905264 -0.769)
(-0.000392708 0.000668192 -0.336032)
(5.95759e-05 0.000132637 -0.277595)
(-0.000163574 5.87085e-05 -0.249631)
(1.85643e-05 1.82454e-05 -0.235882)
(-6.2329e-06 1.09401e-05 -0.23823)
(-5.25469e-05 5.08753e-06 -0.230619)
(6.87804e-06 9.94255e-06 -0.23587)
(0.000516755 0.000952371 -0.769147)
(9.73443e-06 0.000675059 -0.336351)
(0.000484609 0.000137525 -0.27731)
(-0.000124685 6.32265e-05 -0.250128)
(-6.28656e-08 1.93074e-05 -0.23562)
(-7.01256e-05 1.21611e-05 -0.238573)
(-0.000122756 6.0835e-06 -0.230351)
(-1.99697e-06 1.09055e-05 -0.236117)
(0.00280395 0.000950395 -0.767263)
(-0.000786083 0.000684798 -0.335668)
(0.000597783 0.00013185 -0.276557)
(-0.000679507 6.24777e-05 -0.249679)
(-8.28801e-05 2.04882e-05 -0.234714)
(-0.000323089 1.09911e-05 -0.238121)
(-0.000179323 6.50558e-06 -0.22941)
(-0.000141257 9.02697e-06 -0.235785)
(-0.00101512 0.0007701 -0.766975)
(0.00086488 0.000684016 -0.335673)
(0.000649281 0.000110592 -0.275096)
(-0.000597647 5.74394e-05 -0.249198)
(0.000269378 1.94761e-05 -0.2334)
(-0.000331082 1.25644e-05 -0.237521)
(7.4624e-05 8.03581e-06 -0.228338)
(-0.00018895 9.43439e-06 -0.235274)
(-0.00353305 0.000887546 -0.765001)
(-0.00177372 0.000630344 -0.333544)
(0.000627543 0.00013201 -0.276017)
(-0.00189997 5.1962e-05 -0.248662)
(0.000357359 1.79725e-05 -0.233805)
(-0.000586772 1.24576e-05 -0.237006)
(0.000291583 7.37304e-06 -0.228692)
(-0.000375052 9.10814e-06 -0.234594)
(-0.00292701 0.00106647 -0.766795)
(-0.00132401 0.000617126 -0.332568)
(0.00146789 0.000148781 -0.27454)
(-0.00168108 7.22965e-05 -0.247462)
(0.000654265 2.01258e-05 -0.232659)
(-0.000537092 1.60022e-05 -0.235533)
(0.000502778 1.11473e-05 -0.227852)
(-0.000400796 9.67098e-06 -0.232854)
(-0.000124547 0.000958593 -0.763933)
(-0.00356811 0.000617927 -0.329464)
(0.00144638 0.000114614 -0.278156)
(-0.00191569 8.20707e-05 -0.245985)
(0.000812748 1.18497e-05 -0.23579)
(-0.0006951 1.6856e-05 -0.233856)
(0.000938402 6.00612e-06 -0.23081)
(-0.00063269 1.16463e-05 -0.231042)
)
;
    }
    leftSides_periodic0
    {
        type            cyclic;
    }
    leftSides_periodic1
    {
        type            cyclic;
    }
    rightSides_periodic0
    {
        type            cyclic;
    }
    rightSides_periodic1
    {
        type            cyclic;
    }
    leftInOut_periodic0
    {
        type            cyclic;
    }
    leftInOut_periodic1
    {
        type            cyclic;
    }
    rightInOut_periodic0
    {
        type            cyclic;
    }
    rightInOut_periodic1
    {
        type            cyclic;
    }
    procBoundary1to0
    {
        type            processor;
        value           uniform (0 0 0);
    }
    procBoundary1to0throughleftInOut_periodic0
    {
        type            processorCyclic;
        value           uniform (0 0 0);
    }
    procBoundary1to2throughleftSides_periodic0
    {
        type            processorCyclic;
        value           uniform (0 0 0);
    }
    procBoundary1to2throughrightSides_periodic0
    {
        type            processorCyclic;
        value           uniform (0 0 0);
    }
    procBoundary1to3
    {
        type            processor;
        value           uniform (0 0 0);
    }
    procBoundary1to3throughrightSides_periodic0
    {
        type            processorCyclic;
        value           uniform (0 0 0);
    }
}


// ************************************************************************* //
