0 	0 	0 	0
5.01672e-05 	-2.1878e-05 	-4.45718e-06 	0.0203408
0.000100334 	-4.37561e-05 	-8.91437e-06 	0.0406816
0.000150502 	-6.56341e-05 	-1.33715e-05 	0.0610224
0.000200669 	-8.75121e-05 	-1.78287e-05 	0.0813632
0.000250836 	-0.00010939 	-2.22859e-05 	0.101704
0.000301003 	-0.000131268 	-2.67431e-05 	0.122045
0.000351171 	-0.00015115 	-3.19079e-05 	0.140278
0.000401338 	-0.000163484 	-3.97487e-05 	0.150544
0.000451505 	-0.000175819 	-4.75896e-05 	0.16081
0.000501672 	-0.000188153 	-5.54304e-05 	0.171075
0.000551839 	-0.000200487 	-6.32712e-05 	0.181341
0.000602007 	-0.000212821 	-7.1112e-05 	0.191606
0.000652174 	-0.000225155 	-7.89529e-05 	0.201872
0.000702341 	-0.000237489 	-8.67937e-05 	0.212138
0.000752508 	-0.000247087 	-9.48619e-05 	0.220972
0.000802676 	-0.000249898 	-0.000103494 	0.22626
0.000852843 	-0.000252709 	-0.000112126 	0.231547
0.00090301 	-0.00025552 	-0.000120758 	0.236834
0.000953177 	-0.000258332 	-0.00012939 	0.242122
0.00100334 	-0.000261143 	-0.000138022 	0.247409
0.00105351 	-0.000263954 	-0.000146654 	0.252696
0.00110368 	-0.000266766 	-0.000155287 	0.257984
0.00115385 	-0.000269577 	-0.000163919 	0.263271
0.00120401 	-0.000272191 	-0.00017251 	0.268453
0.00125418 	-0.00027075 	-0.000180259 	0.271468
0.00130435 	-0.00026931 	-0.000188008 	0.274482
0.00135452 	-0.00026787 	-0.000195757 	0.277497
0.00140468 	-0.000266429 	-0.000203506 	0.280511
0.00145485 	-0.000264989 	-0.000211255 	0.283526
0.00150502 	-0.000263549 	-0.000219004 	0.286541
0.00155518 	-0.000262109 	-0.000226753 	0.289555
0.00160535 	-0.000260668 	-0.000234502 	0.29257
0.00165552 	-0.000259228 	-0.000242251 	0.295584
0.00170569 	-0.000257788 	-0.00025 	0.298599
0.00175585 	-0.000256095 	-0.000257348 	0.301325
0.00180602 	-0.000253705 	-0.000263597 	0.303256
0.00185619 	-0.000251315 	-0.000269845 	0.305186
0.00190635 	-0.000248926 	-0.000276093 	0.307117
0.00195652 	-0.000246536 	-0.000282341 	0.309048
0.00200669 	-0.000244146 	-0.000288589 	0.310979
0.00205686 	-0.000241757 	-0.000294838 	0.31291
0.00210702 	-0.000239367 	-0.000301086 	0.314841
0.00215719 	-0.000236978 	-0.000307334 	0.316772
0.00220736 	-0.000234588 	-0.000313582 	0.318703
0.00225753 	-0.000232198 	-0.000319831 	0.320634
0.00230769 	-0.000229809 	-0.000326079 	0.322565
0.00235786 	-0.000227419 	-0.000332327 	0.324496
0.00240803 	-0.000225266 	-0.00033742 	0.325994
0.00245819 	-0.000223219 	-0.000341999 	0.327299
0.00250836 	-0.000221172 	-0.000346577 	0.328604
0.00255853 	-0.000219124 	-0.000351155 	0.329909
0.0026087 	-0.000217077 	-0.000355734 	0.331214
0.00265886 	-0.000215029 	-0.000360312 	0.332519
0.00270903 	-0.000212982 	-0.000364891 	0.333824
0.0027592 	-0.000210935 	-0.000369469 	0.335129
0.00280936 	-0.000208887 	-0.000374047 	0.336434
0.00285953 	-0.00020684 	-0.000378626 	0.337739
0.0029097 	-0.000204793 	-0.000383204 	0.339044
0.00295987 	-0.000202745 	-0.000387782 	0.340349
0.00301003 	-0.000200698 	-0.000392361 	0.341654
0.0030602 	-0.00019865 	-0.000396939 	0.342959
0.00311037 	-0.000196617 	-0.000401487 	0.344254
0.00316054 	-0.000195183 	-0.000404727 	0.345131
0.0032107 	-0.000193749 	-0.000407967 	0.346008
0.00326087 	-0.000192316 	-0.000411206 	0.346884
0.00331104 	-0.000190882 	-0.000414446 	0.347761
0.0033612 	-0.000189448 	-0.000417685 	0.348638
0.00341137 	-0.000188014 	-0.000420925 	0.349514
0.00346154 	-0.00018658 	-0.000424164 	0.350391
0.00351171 	-0.000185147 	-0.000427404 	0.351268
0.00356187 	-0.000183713 	-0.000430644 	0.352144
0.00361204 	-0.000182279 	-0.000433883 	0.353021
0.00366221 	-0.000180845 	-0.000437123 	0.353898
0.00371237 	-0.000179411 	-0.000440362 	0.354774
0.00376254 	-0.000177978 	-0.000443602 	0.355651
0.00381271 	-0.000176544 	-0.000446841 	0.356528
0.00386288 	-0.00017511 	-0.000450081 	0.357404
0.00391304 	-0.000173676 	-0.000453321 	0.358281
0.00396321 	-0.000172243 	-0.00045656 	0.359158
0.00401338 	-0.000171209 	-0.000458957 	0.359737
0.00406355 	-0.000170215 	-0.000461271 	0.360287
0.00411371 	-0.000169222 	-0.000463585 	0.360836
0.00416388 	-0.000168228 	-0.0004659 	0.361386
0.00421405 	-0.000167234 	-0.000468214 	0.361936
0.00426421 	-0.00016624 	-0.000470528 	0.362486
0.00431438 	-0.000165246 	-0.000472842 	0.363035
0.00436455 	-0.000164252 	-0.000475156 	0.363585
0.00441472 	-0.000163258 	-0.000477471 	0.364135
0.00446488 	-0.000162264 	-0.000479785 	0.364685
0.00451505 	-0.00016127 	-0.000482099 	0.365234
0.00456522 	-0.000160276 	-0.000484413 	0.365784
0.00461538 	-0.000159283 	-0.000486727 	0.366334
0.00466555 	-0.000158289 	-0.000489041 	0.366884
0.00471572 	-0.000157295 	-0.000491356 	0.367433
0.00476589 	-0.000156301 	-0.00049367 	0.367983
0.00481605 	-0.000155307 	-0.000495984 	0.368533
0.00486622 	-0.000154313 	-0.000498298 	0.369083
0.00491639 	-0.000153319 	-0.000500612 	0.369632
0.00496656 	-0.000152325 	-0.000502927 	0.370182
0.00501672 	-0.000151537 	-0.000504523 	0.370483
0.00506689 	-0.000150759 	-0.000506081 	0.37077
0.00511706 	-0.000149982 	-0.00050764 	0.371057
0.00516722 	-0.000149205 	-0.000509198 	0.371344
0.00521739 	-0.000148427 	-0.000510756 	0.371631
0.00526756 	-0.00014765 	-0.000512314 	0.371919
0.00531773 	-0.000146872 	-0.000513872 	0.372206
0.00536789 	-0.000146095 	-0.00051543 	0.372493
0.00541806 	-0.000145317 	-0.000516989 	0.37278
0.00546823 	-0.00014454 	-0.000518547 	0.373067
0.00551839 	-0.000143763 	-0.000520105 	0.373355
0.00556856 	-0.000142985 	-0.000521663 	0.373642
0.00561873 	-0.000142208 	-0.000523221 	0.373929
0.0056689 	-0.00014143 	-0.000524779 	0.374216
0.00571906 	-0.000140653 	-0.000526338 	0.374503
0.00576923 	-0.000139875 	-0.000527896 	0.374791
0.0058194 	-0.000139098 	-0.000529454 	0.375078
0.00586957 	-0.000138321 	-0.000531012 	0.375365
0.00591973 	-0.000137543 	-0.00053257 	0.375652
0.0059699 	-0.000136766 	-0.000534128 	0.375939
0.00602007 	-0.000135988 	-0.000535687 	0.376226
0.00607023 	-0.000135211 	-0.000537245 	0.376514
0.0061204 	-0.000134434 	-0.000538803 	0.376801
0.00617057 	-0.000133753 	-0.000539846 	0.376942
0.00622074 	-0.000133122 	-0.000540629 	0.377009
0.0062709 	-0.000132491 	-0.000541411 	0.377076
0.00632107 	-0.000131859 	-0.000542194 	0.377143
0.00637124 	-0.000131228 	-0.000542976 	0.377209
0.0064214 	-0.000130597 	-0.000543759 	0.377276
0.00647157 	-0.000129966 	-0.000544541 	0.377343
0.00652174 	-0.000129335 	-0.000545323 	0.37741
0.00657191 	-0.000128703 	-0.000546106 	0.377477
0.00662207 	-0.000128072 	-0.000546888 	0.377544
0.00667224 	-0.000127441 	-0.000547671 	0.377611
0.00672241 	-0.00012681 	-0.000548453 	0.377678
0.00677258 	-0.000126179 	-0.000549236 	0.377745
0.00682274 	-0.000125547 	-0.000550018 	0.377811
0.00687291 	-0.000124916 	-0.000550801 	0.377878
0.00692308 	-0.000124285 	-0.000551583 	0.377945
0.00697324 	-0.000123654 	-0.000552365 	0.378012
0.00702341 	-0.000123023 	-0.000553148 	0.378079
0.00707358 	-0.000122391 	-0.00055393 	0.378146
0.00712375 	-0.00012176 	-0.000554713 	0.378213
0.00717391 	-0.000121129 	-0.000555495 	0.37828
0.00722408 	-0.000120498 	-0.000556278 	0.378347
0.00727425 	-0.000119866 	-0.00055706 	0.378414
0.00732441 	-0.000119235 	-0.000557842 	0.37848
0.00737458 	-0.000118604 	-0.000558625 	0.378547
0.00742475 	-0.000117973 	-0.000559407 	0.378614
0.00747492 	-0.000117342 	-0.00056019 	0.378681
0.00752508 	-0.000116768 	-0.000560588 	0.378649
0.00757525 	-0.000116251 	-0.000560601 	0.378518
0.00762542 	-0.000115735 	-0.000560614 	0.378386
0.00767559 	-0.000115219 	-0.000560627 	0.378255
0.00772575 	-0.000114702 	-0.00056064 	0.378124
0.00777592 	-0.000114186 	-0.000560653 	0.377992
0.00782609 	-0.00011367 	-0.000560666 	0.377861
0.00787625 	-0.000113153 	-0.000560679 	0.37773
0.00792642 	-0.000112637 	-0.000560692 	0.377598
0.00797659 	-0.000112121 	-0.000560706 	0.377467
0.00802676 	-0.000111604 	-0.000560719 	0.377336
0.00807692 	-0.000111088 	-0.000560732 	0.377204
0.00812709 	-0.000110571 	-0.000560745 	0.377073
0.00817726 	-0.000110055 	-0.000560758 	0.376942
0.00822742 	-0.000109539 	-0.000560771 	0.376811
0.00827759 	-0.000109022 	-0.000560784 	0.376679
0.00832776 	-0.000108506 	-0.000560797 	0.376548
0.00837793 	-0.00010799 	-0.000560811 	0.376417
0.00842809 	-0.000107473 	-0.000560824 	0.376285
0.00847826 	-0.000106957 	-0.000560837 	0.376154
0.00852843 	-0.000106441 	-0.00056085 	0.376023
0.0085786 	-0.000105924 	-0.000560863 	0.375891
0.00862876 	-0.000105408 	-0.000560876 	0.37576
0.00867893 	-0.000104891 	-0.000560889 	0.375629
0.0087291 	-0.000104375 	-0.000560902 	0.375497
0.00877926 	-0.000103859 	-0.000560915 	0.375366
0.00882943 	-0.000103342 	-0.000560929 	0.375235
0.0088796 	-0.00010288 	-0.000560625 	0.375023
0.00892977 	-0.000102523 	-0.000559698 	0.374652
0.00897993 	-0.000102166 	-0.00055877 	0.37428
0.0090301 	-0.000101809 	-0.000557842 	0.373909
0.00908027 	-0.000101452 	-0.000556915 	0.373538
0.00913043 	-0.000101095 	-0.000555987 	0.373167
0.0091806 	-0.000100738 	-0.000555059 	0.372796
0.00923077 	-0.000100381 	-0.000554132 	0.372424
0.00928094 	-0.000100024 	-0.000553204 	0.372053
0.0093311 	-9.96676e-05 	-0.000552277 	0.371682
0.00938127 	-9.93107e-05 	-0.000551349 	0.371311
0.00943144 	-9.89538e-05 	-0.000550421 	0.37094
0.00948161 	-9.85969e-05 	-0.000549494 	0.370568
0.00953177 	-9.824e-05 	-0.000548566 	0.370197
0.00958194 	-9.78831e-05 	-0.000547639 	0.369826
0.00963211 	-9.75262e-05 	-0.000546711 	0.369455
0.00968227 	-9.71693e-05 	-0.000545783 	0.369084
0.00973244 	-9.68125e-05 	-0.000544856 	0.368713
0.00978261 	-9.64556e-05 	-0.000543928 	0.368341
0.00983278 	-9.60987e-05 	-0.000543001 	0.36797
0.00988294 	-9.57418e-05 	-0.000542073 	0.367599
0.00993311 	-9.53849e-05 	-0.000541145 	0.367228
0.00998328 	-9.5028e-05 	-0.000540218 	0.366857
0.0100334 	-9.46886e-05 	-0.000539234 	0.366471
0.0100836 	-9.46758e-05 	-0.000537205 	0.365816
0.0101338 	-9.4663e-05 	-0.000535176 	0.365161
0.0101839 	-9.46502e-05 	-0.000533148 	0.364507
0.0102341 	-9.46374e-05 	-0.000531119 	0.363852
0.0102843 	-9.46246e-05 	-0.00052909 	0.363197
0.0103344 	-9.46118e-05 	-0.000527061 	0.362543
0.0103846 	-9.45989e-05 	-0.000525032 	0.361888
0.0104348 	-9.45861e-05 	-0.000523003 	0.361233
0.0104849 	-9.45733e-05 	-0.000520974 	0.360578
0.0105351 	-9.45605e-05 	-0.000518945 	0.359924
0.0105853 	-9.45477e-05 	-0.000516916 	0.359269
0.0106355 	-9.45349e-05 	-0.000514888 	0.358614
0.0106856 	-9.45221e-05 	-0.000512859 	0.357959
0.0107358 	-9.45093e-05 	-0.00051083 	0.357305
0.010786 	-9.44965e-05 	-0.000508801 	0.35665
0.0108361 	-9.44837e-05 	-0.000506772 	0.355995
0.0108863 	-9.44709e-05 	-0.000504743 	0.35534
0.0109365 	-9.44581e-05 	-0.000502714 	0.354686
0.0109866 	-9.44453e-05 	-0.000500685 	0.354031
0.0110368 	-9.44875e-05 	-0.000498514 	0.353343
0.011087 	-9.50911e-05 	-0.000494892 	0.352321
0.0111371 	-9.56948e-05 	-0.000491271 	0.3513
0.0111873 	-9.62984e-05 	-0.000487649 	0.350278
0.0112375 	-9.6902e-05 	-0.000484027 	0.349256
0.0112876 	-9.75056e-05 	-0.000480405 	0.348234
0.0113378 	-9.81092e-05 	-0.000476784 	0.347212
0.011388 	-9.87129e-05 	-0.000473162 	0.34619
0.0114381 	-9.93165e-05 	-0.00046954 	0.345168
0.0114883 	-9.99201e-05 	-0.000465918 	0.344147
0.0115385 	-0.000100524 	-0.000462297 	0.343125
0.0115886 	-0.000101127 	-0.000458675 	0.342103
0.0116388 	-0.000101731 	-0.000455053 	0.341081
0.011689 	-0.000102335 	-0.000451431 	0.340059
0.0117391 	-0.000102938 	-0.00044781 	0.339037
0.0117893 	-0.000103542 	-0.000444188 	0.338016
0.0118395 	-0.000104145 	-0.000440566 	0.336994
0.0118896 	-0.000104749 	-0.000436944 	0.335972
0.0119398 	-0.000106224 	-0.000430836 	0.334413
0.01199 	-0.00010772 	-0.00042467 	0.332842
0.0120401 	-0.000109216 	-0.000418504 	0.331271
0.0120903 	-0.000110711 	-0.000412337 	0.329699
0.0121405 	-0.000112207 	-0.000406171 	0.328128
0.0121906 	-0.000113702 	-0.000400005 	0.326557
0.0122408 	-0.000115198 	-0.000393839 	0.324986
0.012291 	-0.000116694 	-0.000387673 	0.323415
0.0123411 	-0.000118189 	-0.000381507 	0.321844
0.0123913 	-0.000119685 	-0.000375341 	0.320272
0.0124415 	-0.00012118 	-0.000369175 	0.318701
0.0124916 	-0.000122676 	-0.000363009 	0.31713
0.0125418 	-0.000124172 	-0.000356843 	0.315559
0.012592 	-0.000125667 	-0.000350677 	0.313988
0.0126421 	-0.000127413 	-0.000343549 	0.312133
0.0126923 	-0.000129722 	-0.000334263 	0.30964
0.0127425 	-0.00013203 	-0.000324978 	0.307148
0.0127926 	-0.000134339 	-0.000315692 	0.304656
0.0128428 	-0.000136647 	-0.000306406 	0.302164
0.012893 	-0.000138956 	-0.000297121 	0.299672
0.0129431 	-0.000141264 	-0.000287835 	0.297179
0.0129933 	-0.000143573 	-0.00027855 	0.294687
0.0130435 	-0.000145881 	-0.000269264 	0.292195
0.0130936 	-0.00014819 	-0.000259978 	0.289703
0.0131438 	-0.000150498 	-0.000250693 	0.287211
0.013194 	-0.000152807 	-0.000241407 	0.284718
0.0132441 	-0.000155115 	-0.000232122 	0.282226
0.0132943 	-0.000157121 	-0.000221245 	0.278521
0.0133445 	-0.000159016 	-0.00020979 	0.274375
0.0133946 	-0.000160911 	-0.000198335 	0.27023
0.0134448 	-0.000162806 	-0.00018688 	0.266084
0.013495 	-0.000164701 	-0.000175425 	0.261938
0.0135452 	-0.000166596 	-0.000163969 	0.257792
0.0135953 	-0.000168491 	-0.000152514 	0.253647
0.0136455 	-0.000170386 	-0.000141059 	0.249501
0.0136957 	-0.000172281 	-0.000129604 	0.245355
0.0137458 	-0.000174176 	-0.000118149 	0.241209
0.013796 	-0.000176072 	-0.000106694 	0.237063
0.0138462 	-0.000174068 	-9.68615e-05 	0.229625
0.0138963 	-0.000171875 	-8.71083e-05 	0.222027
0.0139465 	-0.000169681 	-7.73551e-05 	0.214429
0.0139967 	-0.000167488 	-6.76019e-05 	0.20683
0.0140468 	-0.000165295 	-5.78487e-05 	0.199232
0.014097 	-0.000163101 	-4.80955e-05 	0.191633
0.0141472 	-0.000160908 	-3.83423e-05 	0.184035
0.0141973 	-0.000158715 	-2.85891e-05 	0.176437
0.0142475 	-0.000156521 	-1.88359e-05 	0.168838
0.0142977 	-0.000149077 	-1.37292e-05 	0.158296
0.0143478 	-0.000139515 	-1.04966e-05 	0.146566
0.014398 	-0.000129953 	-7.26393e-06 	0.134836
0.0144482 	-0.000120391 	-4.03128e-06 	0.123106
0.0144983 	-0.000110829 	-7.98634e-07 	0.111376
0.0145485 	-0.000101268 	2.43401e-06 	0.0996461
0.0145987 	-9.17057e-05 	5.66666e-06 	0.0879161
0.0146488 	-8.21438e-05 	8.89931e-06 	0.0761862
0.014699 	-7.08105e-05 	8.46023e-06 	0.0651461
0.0147492 	-5.90087e-05 	7.05019e-06 	0.0542884
0.0147993 	-4.7207e-05 	5.64015e-06 	0.0434307
0.0148495 	-3.54052e-05 	4.23011e-06 	0.0325731
0.0148997 	-2.36035e-05 	2.82008e-06 	0.0217154
0.0149498 	-1.18017e-05 	1.41004e-06 	0.0108577
0.015 	0 	0 	0
