/*--------------------------------*- C++ -*----------------------------------*\
| =========                 |                                                 |
| \\      /  F ield         | OpenFOAM: The Open Source CFD Toolbox           |
|  \\    /   O peration     | Version:  v1906                                 |
|   \\  /    A nd           | Web:      www.OpenFOAM.com                      |
|    \\/     M anipulation  |                                                 |
\*---------------------------------------------------------------------------*/
FoamFile
{
    version     2.0;
    format      ascii;
    class       volScalarField;
    location    "99.6";
    object      pPrime2Mean;
}
// * * * * * * * * * * * * * * * * * * * * * * * * * * * * * * * * * * * * * //

dimensions      [2 -2 -4 0 0 0 0];


internalField   nonuniform List<scalar> 
630
(
-7.62939e-06
39873.2
3145.86
39426.9
0.00717735
39868.5
3146.43
39422
0.0408096
39860.9
3147.39
39414.1
0.115725
39849.2
3148.94
39402.1
0.236317
39832.5
3151.19
39384.7
0.416973
39810.5
3154.18
39361.9
0.66861
39782.7
3157.97
39333.1
1.00895
39748.7
3162.64
39297.8
1.46255
39707.8
3168.3
39255.2
2.0612
39658.7
3175.1
39204.2
2.84925
39600.5
3183.2
39143.5
3.88029
39531.5
3192.8
39071.6
5.22204
39450.5
3204.06
38987
6.9561
39356
3217.17
38888.4
9.18003
39246.9
3232.31
38774.3
12.0124
39121.7
3249.7
38643.6
15.5962
38979.3
3269.55
38495.1
20.0999
38818.5
3292.08
38327.6
25.7188
38638.1
3317.54
38140
32.6762
38437.2
3346.19
37931.4
41.2219
38215
3378.35
37701.1
51.6401
37971.1
3414.35
37448.7
64.2527
37705
3454.47
37173.7
79.4096
37416.7
3498.98
36876.2
97.4752
37106.3
3548.09
36556.3
118.83
36774.1
3602.05
36214.7
143.884
36420.8
3661.11
35851.8
173.074
36047
3725.54
35468.1
206.838
35653.8
3795.56
35064.3
245.62
35242.1
3871.39
34641.1
289.863
34813.1
3953.32
34199.6
339.992
34367.7
4041.66
33741.5
396.419
33906.9
4136.68
33269.1
459.463
33433.2
4238.49
32785.7
529.2
32949.3
4346.82
32293.8
605.55
32455.4
4460.94
31793.1
688.574
31949.7
4579.76
31281
778.418
31430
4702.46
30754.7
875.009
30897.4
4829.64
30214.7
978.255
30356.9
4963.37
29664.9
1088.5
29814
5105.45
29110.3
1206.5
29271
5256.27
28554.3
1332.95
28727.6
5415.03
27998
1467.55
28183
5581.25
27440
1609.38
27638.3
5755.7
26877.8
1758.45
27094.4
5938.86
26309.7
1916.02
26550.1
6129.6
25736
2083.4
26002.9
6326.22
25160
2260.59
25452.9
6527.37
24586.7
2445.86
24903.9
6732.16
24019.3
2637.6
24360.4
6940.19
23459.4
2836.06
23824.2
7152.31
22905.9
3043.06
23295.2
7370.66
22356.3
3260.11
22773.2
7596.98
21809.9
3486.87
22258.9
7831.12
21268.3
3721.58
21752.5
8071.68
20734.4
3962.58
21253.3
8317.65
20209.8
4209.2
20761.3
8568.34
19694.1
4461.82
20278.5
8822.67
19187.3
4721.1
19807.4
9079.95
18691.6
4987.09
19349.2
9340.18
18207.5
5258.15
18902.4
9603.06
17733.7
5530.18
18464
9867
17268.5
5798.96
18032.9
10129.9
16811.7
6064.29
17611.8
10392.1
16365.4
6330.99
17204.5
10656.7
15931.2
6604.33
16811.6
10926.6
15508.4
6885.15
16429.3
11200.6
15093.4
7170.34
16053.8
11474.9
14684.3
7457.42
15685.7
11747.9
14282.4
7746.46
15328.6
12019.6
13890.7
8038.04
14985
12290.5
13510.9
8331.22
14654.2
12560.8
13142.5
8623.73
14332.9
12830.2
12783.9
8913.35
14019
13097.8
12435.3
9199.18
13713.5
13363.5
12099.9
9481.69
13420.3
13626.8
11783.2
9761.11
13143.9
13886.7
11492.7
10039.1
12886.9
123591
142559
126680
141741
123591
142558
126680
141740
123592
142557
126681
141739
123594
142555
126683
141738
123596
142553
126686
141735
123598
142550
126689
141732
123601
142545
126693
141728
123605
142540
126698
141722
123610
142534
126704
141716
123616
142526
126711
141708
123623
142517
126720
141698
123631
142506
126730
141687
123641
142493
126742
141674
123652
142478
126755
141659
123664
142460
126771
141641
123678
142440
126788
141622
123694
142417
126808
141599
123712
142391
126830
141575
123732
142362
126854
141548
123754
142330
126880
141518
123778
142295
126909
141485
123804
142257
126941
141449
123833
142215
126975
141410
123864
142170
127013
141368
123897
142121
127053
141323
123934
142068
127096
141274
123973
142012
127143
141222
124015
141952
127192
141168
124060
141889
127245
141110
124108
141822
127300
141048
124159
141751
127359
140983
124213
141676
127422
140914
124269
141597
127488
140842
124328
141515
127556
140767
124389
141430
127628
140691
124453
141343
127702
140614
124519
141253
127781
140536
124590
141158
127865
140454
124664
141060
127953
140368
124743
140959
128045
140279
124825
140854
128141
140186
124909
140745
128239
140090
124996
140634
128342
139990
125087
140522
128448
139886
125182
140410
128556
139779
125280
140296
128666
139672
125382
140176
128781
139565
125489
140048
128902
139458
125604
139913
129030
139350
125727
139777
129165
139239
125856
139642
129305
139126
125990
139510
129450
139011
126130
139378
129601
138894
126275
139244
129757
138776
126422
139109
129918
138656
126568
138973
130080
138537
126715
138836
130244
138417
126865
138697
130409
138297
127021
138556
130578
138178
127184
138415
130749
138058
127353
138276
130921
137939
127527
138141
131095
137820
127705
138009
131269
137702
127885
137878
131447
137586
128067
137750
131629
137470
128249
137624
131816
137355
128432
137501
132007
137238
128615
137382
132201
137120
128802
137266
132400
137000
128996
137151
132605
136879
129199
137038
132816
136760
129410
136926
133033
136642
129628
136815
133255
136527
129855
136705
133481
136416
130089
136596
133710
136310
130327
136487
133940
136203
130561
136371
134161
136091
130782
136242
134366
135967
130979
136090
134546
135824
)
;

boundaryField
{
    leftWall
    {
        type            calculated;
        value           nonuniform List<scalar> 8(-9.53674e-06 123591 39873.2 142559 3145.86 126680 39426.9 141741);
    }
    rightWall
    {
        type            calculated;
        value           nonuniform 0();
    }
    leftSides_periodic0
    {
        type            cyclic;
    }
    leftSides_periodic1
    {
        type            cyclic;
    }
    rightSides_periodic0
    {
        type            cyclic;
    }
    rightSides_periodic1
    {
        type            cyclic;
    }
    leftInOut_periodic0
    {
        type            cyclic;
    }
    leftInOut_periodic1
    {
        type            cyclic;
    }
    rightInOut_periodic0
    {
        type            cyclic;
    }
    rightInOut_periodic1
    {
        type            cyclic;
    }
    procBoundary0to1
    {
        type            processor;
        value           nonuniform List<scalar> 
11
(
14144.2
11230.2
10322
14144.2
12643.1
14144.2
11230.2
131152
135908
134699
135657
)
;
    }
    procBoundary0to1throughleftInOut_periodic1
    {
        type            processorCyclic;
        value           uniform 11230.2;
    }
    procBoundary0to2
    {
        type            processor;
        value           nonuniform List<scalar> 
316
(
68048.4
98747.4
68394.7
102955
68042.8
98738.8
68389.1
102946
68037.1
98728.3
68383.6
102936
68036.7
98719.8
68383.4
102926
68039.6
98710.9
68386.6
102917
68043.4
98698.9
68390.8
102903
68048.2
98683.6
68396.3
102886
68054
98664.6
68402.9
102865
68061
98641.7
68410.9
102840
68069.2
98614.4
68420.5
102810
68078.8
98582.3
68431.7
102775
68089.9
98544.8
68444.7
102733
68102.8
98501.5
68459.8
102685
68117.4
98452
68477
102631
68133.9
98395.9
68496.5
102568
68152.5
98332.6
68518.5
102498
68173.4
98261.7
68543.1
102419
68196.6
98182.8
68570.7
102332
68222.4
98095.4
68601.3
102234
68251
97999.3
68635.1
102127
68282.5
97893.9
68672.4
102008
68317
97778.7
68713.4
101879
68354.8
97653.1
68758.3
101736
68396.6
97516.5
68807.2
101581
68442.9
97368.3
68860.3
101412
68493.6
97209.3
68918.1
101231
68547.4
97041.6
68980.2
101039
68603.1
96866.5
69046.1
100839
68661
96682.4
69115.5
100628
68723.4
96485.7
69189.4
100404
68792.9
96274.4
69269.2
100160
68869.6
96049.7
69355.5
99898.7
68951.8
95814.2
69447.5
99621.6
69037.5
95568.4
69543.8
99331.6
69126.6
95310.6
69644.6
99028.7
69220.9
95038.5
69751.3
98711.7
69321.7
94751.4
69865.4
98379.8
69428
94452.8
69986.1
98035.1
69537.7
94150.2
70109.9
97682.7
69650.5
93848
70234.9
97324.9
69769.7
93542.3
70364.6
96957.7
69899.5
93224.2
70504.9
96574.9
70042.8
92887.1
70659.9
96174.1
70198.3
92532.4
70827.8
95760.9
70363.3
92166.4
71003.4
95342.1
70536.4
91793.5
71184.1
94918.2
70717
91415.2
71369.4
94486.2
70905
91032.6
71559.2
94044.5
71100.9
90645.9
71754.7
93595.6
71304.7
90255.1
71958.1
93142.9
71516.5
89861.2
72171.4
92689.5
71735.2
89470
72394.1
92239.7
71957.5
89090.5
72621.5
91800.1
72177.5
88726.4
72846.2
91374.6
72392.2
88371
73064.4
90957.8
72606.2
88013.1
73280.5
90537.7
72828.7
87645.9
73505
90105.3
73067.1
87273.3
73746.1
89664.3
73319.8
86902.9
74002.4
89224.7
73579.5
86536.7
74265.9
88792.7
73841.4
86173.6
74532.8
88368.5
74104.6
85815.4
74803.7
87952.2
74368.7
85467.2
75079.3
87545.7
74633.1
85134
75359.8
87151
74895.6
84816.5
75644.2
86767.6
75155.2
84509.8
75929.9
86390.8
75414.6
84207.5
76215.8
86014.7
75679.3
83907.1
76504.1
85638.5
75953.3
83610.2
76798.3
85266.4
76236.4
83319.5
77099.8
84901.9
76525.2
83035.5
77407.3
84545.1
76818.7
82758.1
77719.7
84193
77118.3
82487.9
78037
83843.6
77424.2
82225.2
78358.4
83498.5
77733.8
81968.9
78682.3
83161.5
78043.1
81716.8
79004.5
82835.2
78348.1
81468.2
79318.2
82519.4
78644
81224.2
79614.2
82212.8
78926.5
80982.6
79882.3
81908.7
)
;
    }
    procBoundary0to2throughleftSides_periodic0
    {
        type            processorCyclic;
        value           nonuniform List<scalar> 
314
(
14607.4
14597.4
14585.8
14579.3
14574.6
14568.3
14560.2
14550.2
14538.3
14524.2
14507.6
14488.4
14466.1
14440.7
14411.7
14379.1
14342.6
14301.9
14256.6
14206.5
14151.3
14090.8
14024.8
13953.3
13876.2
13793.6
13705.6
13612.4
13514.2
13411.2
13303.8
13192.2
13076.8
12958.1
12836.6
12712.6
12586.7
12459.5
12331.5
12203.2
12075.1
11947.9
11822.3
11698.8
11577.8
11459.3
11343.7
11231.2
11122.5
11017.8
10917.7
10822.3
10731.5
10645.5
10564.5
10489
10419
10354.5
10295.2
10241.1
10192.4
10149.1
10110.7
10076.2
10044.9
10016.8
9992.2
9971.34
9954.36
9941.03
9930.83
9923.01
9916.96
9912.44
9909.57
9908.48
9909.18
9911.53
9915.36
15237
15227
15215.4
15208.9
15204.3
15198.2
15190.5
15181.1
15169.7
15156.4
15140.8
15122.6
15101.6
15077.6
15050.2
15019.2
14984.3
14945.2
14901.5
14853
14799.3
14740.3
14675.7
14605.4
14529.3
14447.5
14359.8
14266.5
14167.7
14063.5
13954.2
13840.1
13721.5
13598.7
13472.2
13342.5
13210.1
13075.4
12939.2
12801.8
12663.8
12525.8
12388.4
12252.4
12118.5
11987.3
11859.3
11734.9
11614.8
11499.3
11388.8
11283.6
11184.2
11091.3
11005.2
10925.3
10850.8
10781.1
10716.3
10656.7
10603
10554.8
10511.5
10472.2
10436.3
10403.4
10373.9
10347.9
10325.6
10306.6
10290.6
10277.2
10266.3
10257.6
10251
10246
10242.8
10241.2
10241.1
14251.5
14241.6
14230.2
14223.9
14219.5
14213.4
14205.7
14196.1
14184.6
14171
14155.1
14136.5
14115.1
14090.5
14062.6
14031.2
13996
13956.7
13913.2
13865
13812
13754
13690.7
13622.3
13548.7
13470
13386.4
13298.1
13205.2
13108.1
13006.9
12902.2
12794.1
12683.2
12569.9
12454.7
12338.2
12220.8
12103
11985.1
11867.7
11751.3
11636.6
11524.1
11414.1
11306.9
11202.5
11101.3
11003.6
10909.8
10820.4
10736
10656.7
10582.5
10513.4
10449.3
10390
10335.6
10286.2
10241.6
10201.9
10166.5
10135.3
10108.4
10085.5
10066.3
10050
10036.5
10025.5
10016.8
10010.4
10006.1
10004
10004
10005.8
10009.2
10014
10020
13410.7
13400.9
13389.8
13384
13380.3
13375.3
13368.9
13361
13351.5
13340.2
13327
13311.5
13293.5
13272.9
13249.4
13222.8
13192.8
13159.2
13121.9
13080.5
13035
12985.2
12931
12872.4
12809.4
12742.1
12670.7
12595.3
12516.3
12433.8
12348.2
12259.9
12169.3
12076.6
11982.3
11887
11791.4
11695.9
11600.8
11506.2
11412.5
11320.1
11229.9
11142
11056.4
10973.3
10893.3
10816.9
10744.5
10676.2
10611.7
10551.2
10495
10442.9
10394.4
10349
10306.4
10267.1
10231.2
10198.6
10168.8
10141.7
10117.8
10097.6
10081.3
10068.2
10057.5
10048.5
10041
10035.3
10031.3
10029.2
10028.8
10030.1
10032.7
10036.5
10041.5
10047.4
)
;
    }
}


// ************************************************************************* //
