/*--------------------------------*- C++ -*----------------------------------*\
| =========                 |                                                 |
| \\      /  F ield         | OpenFOAM: The Open Source CFD Toolbox           |
|  \\    /   O peration     | Version:  v1906                                 |
|   \\  /    A nd           | Web:      www.OpenFOAM.com                      |
|    \\/     M anipulation  |                                                 |
\*---------------------------------------------------------------------------*/
FoamFile
{
    version     2.0;
    format      ascii;
    class       volScalarField;
    location    "99.6";
    object      T;
}
// * * * * * * * * * * * * * * * * * * * * * * * * * * * * * * * * * * * * * //

dimensions      [0 0 0 1 0 0 0];


internalField   nonuniform List<scalar> 
630
(
371.338
371.769
371.543
371.399
367.958
369.295
368.617
368.194
364.479
366.785
365.647
364.971
361.021
364.265
362.66
361.779
357.811
361.815
359.77
358.727
355.137
359.586
357.195
356
353.162
357.74
355.13
353.768
351.817
356.334
353.6
352.078
350.921
355.306
352.499
350.844
350.308
354.554
351.695
349.944
349.869
353.99
351.09
349.273
349.538
353.55
350.617
348.754
349.274
353.193
350.233
348.34
349.055
352.893
349.911
347.995
348.867
352.634
349.635
347.702
348.701
352.407
349.394
347.446
348.552
352.204
349.181
347.221
348.415
352.021
348.992
347.02
348.288
351.855
348.821
346.838
348.169
351.701
348.666
346.673
348.056
351.557
348.524
346.522
347.947
351.423
348.394
346.382
347.842
351.295
348.275
346.252
347.74
351.174
348.166
346.13
347.64
351.058
348.066
346.016
347.542
350.946
347.973
345.908
347.446
350.838
347.886
345.805
347.352
350.733
347.803
345.707
347.258
350.631
347.725
345.613
347.165
350.532
347.654
345.523
347.072
350.434
347.589
345.436
346.98
350.338
347.528
345.352
346.889
350.244
347.471
345.271
346.798
350.15
347.418
345.192
346.706
350.058
347.369
345.115
346.615
349.968
347.323
345.041
346.524
349.879
347.279
344.968
346.433
349.79
347.239
344.898
346.342
349.701
347.199
344.828
346.25
349.61
347.156
344.761
346.145
349.517
347.102
344.693
346.001
349.425
347.047
344.626
345.81
349.335
347.008
344.562
345.63
349.25
346.98
344.499
345.506
349.169
346.955
344.439
345.407
349.091
346.932
344.38
345.312
349.013
346.91
344.323
345.217
348.935
346.89
344.267
345.121
348.858
346.87
344.212
345.025
348.781
346.851
344.158
344.928
348.704
346.833
344.106
344.829
348.626
346.815
344.054
344.73
348.547
346.797
344.003
344.629
348.467
346.779
343.954
344.528
348.386
346.761
343.905
344.427
348.3
346.743
343.858
344.326
348.194
346.726
343.811
344.225
348.064
346.708
343.765
344.126
347.954
346.692
343.721
344.027
347.871
346.678
343.678
343.93
347.797
346.665
343.636
343.833
347.724
346.654
343.595
343.738
347.652
346.644
343.555
343.645
347.58
346.635
343.517
343.552
347.508
346.627
343.481
343.462
347.435
346.62
343.446
343.373
347.361
346.613
343.412
343.286
347.287
346.606
343.38
343.201
347.214
346.6
343.35
343.117
347.142
346.594
343.322
343.035
347.071
346.589
343.295
342.954
347.003
346.584
343.27
342.876
346.936
346.579
343.247
342.799
346.871
346.576
343.226
342.724
346.808
346.572
343.206
342.65
346.747
346.569
343.189
342.579
346.689
346.566
343.173
342.508
346.633
346.563
343.159
342.439
346.58
372.137
371.873
371.594
371.811
370.404
369.604
368.775
369.421
368.651
367.3
365.931
366.998
366.873
364.97
363.094
364.551
365.067
362.665
360.342
362.111
363.252
360.502
357.816
359.756
361.486
358.632
355.677
357.611
359.866
357.146
354.006
355.792
358.474
356.028
352.763
354.343
357.339
355.198
351.85
353.228
356.433
354.572
351.169
352.375
355.711
354.085
350.647
351.714
355.125
353.695
350.235
351.19
354.639
353.373
349.895
350.763
354.226
353.098
349.607
350.406
353.863
352.856
349.358
350.099
353.536
352.641
349.14
349.828
353.238
352.446
348.946
349.586
352.963
352.267
348.773
349.368
352.709
352.103
348.617
349.169
352.472
351.951
348.475
348.988
352.25
351.809
348.345
348.82
352.041
351.676
348.225
348.664
351.844
351.55
348.114
348.519
351.658
351.431
348.011
348.383
351.483
351.317
347.914
348.254
351.317
351.209
347.824
348.133
351.159
351.106
347.738
348.019
351.01
351.007
347.657
347.91
350.867
350.913
347.579
347.806
350.729
350.821
347.505
347.707
350.597
350.734
347.433
347.612
350.468
350.649
347.365
347.521
350.344
350.567
347.3
347.434
350.227
350.487
347.237
347.351
350.117
350.409
347.176
347.27
350.017
350.332
347.118
347.192
349.926
350.255
347.062
347.116
349.842
350.178
347.009
347.041
349.762
350.102
346.959
346.968
349.685
350.027
346.909
346.894
349.607
349.954
346.86
346.82
349.525
349.885
346.811
346.746
349.436
349.818
346.762
346.675
349.349
349.752
346.713
346.607
349.275
349.688
346.663
346.542
349.211
349.626
346.614
346.48
349.153
349.566
346.565
346.419
349.096
349.508
346.516
346.36
349.041
349.453
346.467
346.303
348.987
349.397
346.418
346.246
348.934
349.337
346.368
346.189
348.882
349.271
346.318
346.13
348.825
349.2
346.264
346.07
348.754
349.132
346.201
346.011
348.659
349.076
346.119
345.953
348.558
349.025
346.019
345.898
348.48
348.975
345.919
345.843
348.427
348.925
345.836
345.787
348.384
348.874
345.771
345.73
348.342
348.822
345.714
345.672
348.3
348.769
345.658
345.612
348.258
348.716
345.6
345.552
348.216
348.662
345.541
345.489
348.174
348.609
345.48
345.425
348.131
348.551
345.418
345.358
348.088
348.475
345.355
345.289
348.043
348.365
345.291
345.219
347.998
348.251
345.222
345.146
347.95
348.172
345.143
345.071
347.902
348.111
345.061
344.993
347.851
348.05
344.985
344.913
347.798
347.986
344.914
344.831
347.743
347.918
344.841
344.748
347.685
347.846
344.767
344.662
347.623
347.77
344.692
344.576
347.558
347.689
344.615
344.49
347.489
347.603
344.537
344.404
347.415
347.512
344.457
344.32
)
;

boundaryField
{
    leftWall
    {
        type            fixedValue;
        value           uniform 373;
    }
    rightWall
    {
        type            fixedValue;
        value           nonuniform 0();
    }
    leftSides_periodic0
    {
        type            cyclic;
    }
    leftSides_periodic1
    {
        type            cyclic;
    }
    rightSides_periodic0
    {
        type            cyclic;
    }
    rightSides_periodic1
    {
        type            cyclic;
    }
    leftInOut_periodic0
    {
        type            cyclic;
    }
    leftInOut_periodic1
    {
        type            cyclic;
    }
    rightInOut_periodic0
    {
        type            cyclic;
    }
    rightInOut_periodic1
    {
        type            cyclic;
    }
    procBoundary0to1
    {
        type            processor;
        value           nonuniform List<scalar> 
11
(
346.56
343.147
342.373
346.56
346.529
346.56
343.147
347.336
347.416
344.377
344.237
)
;
    }
    procBoundary0to1throughleftInOut_periodic1
    {
        type            processorCyclic;
        value           uniform 343.147;
    }
    procBoundary0to2
    {
        type            processor;
        value           nonuniform List<scalar> 
316
(
371.623
371.925
371.692
371.579
368.843
369.76
369.072
368.722
365.988
367.554
366.432
365.821
363.068
365.31
363.782
362.886
360.178
363.066
361.172
359.985
357.537
360.921
358.722
357.269
355.363
359.017
356.599
354.929
353.71
357.457
354.901
353.071
352.489
356.248
353.612
351.666
351.576
355.326
352.646
350.616
350.874
354.618
351.915
349.819
350.312
354.061
351.348
349.2
349.844
353.607
350.892
348.702
349.443
353.224
350.512
348.288
349.094
352.892
350.189
347.934
348.786
352.601
349.91
347.626
348.513
352.343
349.666
347.357
348.267
352.11
349.451
347.117
348.044
351.899
349.259
346.903
347.842
351.707
349.087
346.709
347.657
351.53
348.931
346.532
347.487
351.366
348.788
346.371
347.331
351.214
348.657
346.223
347.185
351.072
348.538
346.086
347.048
350.938
348.43
345.959
346.917
350.811
348.332
345.842
346.794
350.692
348.242
345.734
346.68
350.58
348.155
345.632
346.578
350.478
348.068
345.535
346.484
350.383
347.981
345.443
346.394
350.292
347.897
345.358
346.308
350.206
347.821
345.28
346.224
350.123
347.754
345.207
346.142
350.044
347.692
345.137
346.055
349.968
347.634
345.072
345.952
349.893
347.578
345.01
345.84
349.818
347.524
344.951
345.743
349.738
347.472
344.894
345.665
349.636
347.421
344.84
345.594
349.497
347.373
344.785
345.524
349.37
347.326
344.725
345.456
349.278
347.28
344.642
345.388
349.205
347.236
344.535
345.32
349.137
347.194
344.453
345.253
349.069
347.153
344.398
345.186
349.001
347.114
344.353
345.118
348.932
347.076
344.307
345.049
348.864
347.04
344.263
344.98
348.795
347.006
344.219
344.911
348.726
346.973
344.176
344.84
348.657
346.942
344.134
344.769
348.587
346.912
344.092
344.697
348.517
346.883
344.051
344.624
348.446
346.855
344.01
344.55
348.375
346.825
343.97
344.475
348.304
346.781
343.931
344.398
348.232
346.709
343.892
344.321
348.159
346.657
343.854
344.243
348.086
346.627
343.816
344.165
348.013
346.603
343.78
344.087
347.94
346.58
343.744
344.008
347.867
346.558
343.709
343.929
347.795
346.536
343.675
343.851
347.722
346.516
343.642
343.773
347.65
346.496
343.611
343.695
347.578
346.477
343.581
343.618
347.508
346.459
343.552
343.542
347.44
346.442
343.524
343.466
347.372
346.426
343.498
343.391
347.305
346.411
343.474
343.317
347.239
346.397
343.451
343.243
347.173
346.385
343.429
343.169
347.108
346.373
343.409
343.096
347.045
346.362
343.391
343.022
346.983
346.353
343.374
342.949
346.922
346.344
343.358
342.875
346.864
346.337
343.344
342.802
346.808
346.331
343.331
342.727
346.755
346.327
343.32
)
;
    }
    procBoundary0to2throughleftSides_periodic0
    {
        type            processorCyclic;
        value           nonuniform List<scalar> 
314
(
371.92
369.749
367.553
365.351
363.182
361.106
359.194
357.513
356.102
354.964
354.067
353.369
352.825
352.397
352.057
351.782
351.557
351.369
351.212
351.077
350.961
350.86
350.77
350.69
350.618
350.552
350.492
350.435
350.382
350.331
350.283
350.237
350.192
350.148
350.106
350.064
350.023
349.981
349.937
349.892
349.845
349.797
349.748
349.698
349.65
349.603
349.557
349.512
349.468
349.425
349.382
349.34
349.297
349.255
349.207
349.142
349.049
348.962
348.9
348.85
348.803
348.755
348.707
348.657
348.606
348.555
348.502
348.448
348.392
348.334
348.275
348.215
348.152
348.088
348.018
347.938
347.849
347.762
347.678
371.832
369.484
367.1
364.696
362.323
360.101
358.181
356.654
355.505
354.653
354.015
353.525
353.137
352.82
352.553
352.323
352.122
351.944
351.786
351.644
351.514
351.395
351.286
351.185
351.09
351.001
350.917
350.836
350.759
350.684
350.611
350.541
350.472
350.405
350.339
350.275
350.212
350.15
350.089
350.029
349.97
349.911
349.851
349.792
349.733
349.674
349.615
349.556
349.497
349.438
349.378
349.318
349.257
349.197
349.135
349.073
349.01
348.947
348.884
348.822
348.759
348.696
348.633
348.57
348.507
348.442
348.377
348.311
348.243
348.175
348.104
348.033
347.959
347.883
347.804
347.723
347.638
347.549
347.457
371.546
368.622
365.644
362.641
359.725
357.11
355
353.433
352.306
351.489
350.879
350.406
350.027
349.711
349.441
349.205
348.997
348.81
348.642
348.489
348.348
348.218
348.098
347.984
347.878
347.777
347.681
347.589
347.5
347.415
347.333
347.254
347.177
347.102
347.03
346.958
346.889
346.821
346.754
346.688
346.623
346.559
346.497
346.436
346.376
346.317
346.259
346.202
346.145
346.089
346.034
345.978
345.923
345.868
345.813
345.758
345.703
345.647
345.591
345.534
345.477
345.419
345.36
345.3
345.239
345.177
345.115
345.05
344.985
344.919
344.851
344.782
344.712
344.64
344.568
344.495
344.42
344.345
371.725
369.164
366.573
363.972
361.409
358.977
356.802
354.985
353.552
352.459
351.629
350.992
350.494
350.094
349.765
349.487
349.246
349.035
348.849
348.682
348.532
348.396
348.272
348.157
348.051
347.952
347.859
347.772
347.69
347.611
347.535
347.462
347.391
347.322
347.255
347.19
347.126
347.063
347.002
346.941
346.883
346.825
346.768
346.712
346.655
346.598
346.541
346.484
346.426
346.369
346.311
346.253
346.195
346.136
346.076
346.016
345.956
345.894
345.832
345.769
345.705
345.64
345.574
345.506
345.436
345.365
345.292
345.218
345.142
345.064
344.984
344.902
344.818
344.732
344.644
344.555
344.464
344.372
)
;
    }
}


// ************************************************************************* //
