/*--------------------------------*- C++ -*----------------------------------*\
| =========                 |                                                 |
| \\      /  F ield         | OpenFOAM: The Open Source CFD Toolbox           |
|  \\    /   O peration     | Version:  v1912                                 |
|   \\  /    A nd           | Website:  www.openfoam.com                      |
|    \\/     M anipulation  |                                                 |
\*---------------------------------------------------------------------------*/
FoamFile
{
    version     2.0;
    format      ascii;
    class       volSymmTensorField;
    location    "198.4";
    object      UPrime2Mean;
}
// * * * * * * * * * * * * * * * * * * * * * * * * * * * * * * * * * * * * * //

dimensions      [0 2 -2 0 0 0 0];


internalField   nonuniform List<symmTensor> 
10077
(
(1.61286e-07 2.69274e-09 6.16258e-08 1.10163e-07 -7.47026e-07 9.1648e-06)
(1.06592e-07 1.21519e-08 -4.42532e-07 1.42146e-08 -2.30452e-07 7.91189e-06)
(5.7238e-08 -9.96961e-09 -2.47057e-07 1.54147e-08 1.13833e-07 4.69768e-06)
(2.46222e-08 3.05047e-09 -1.64802e-07 1.48453e-08 -4.34492e-08 2.39728e-06)
(1.93457e-08 1.42831e-08 -4.26497e-08 2.98064e-08 -6.98626e-09 3.71805e-07)
(2.50714e-08 3.76974e-09 -2.29028e-08 2.80888e-08 2.61897e-08 1.73652e-07)
(4.32537e-08 -7.37865e-09 -2.97373e-08 2.32363e-08 5.43864e-08 3.34275e-07)
(1.03123e-07 -2.29253e-08 -2.71235e-08 1.59418e-08 4.98318e-08 4.88825e-07)
(1.22694e-07 6.8797e-09 6.97337e-09 2.87011e-09 -1.26809e-08 8.417e-07)
(8.24203e-08 2.51372e-08 9.10895e-09 1.49055e-08 -3.16875e-08 9.80029e-07)
(6.5747e-08 2.68232e-08 -9.90911e-09 2.16064e-08 -5.57599e-08 8.41739e-07)
(4.83768e-08 2.35012e-08 -7.87645e-09 2.71995e-08 -6.123e-08 5.28985e-07)
(3.28476e-08 1.48158e-08 5.93886e-09 2.71663e-08 -6.3736e-08 3.30025e-07)
(3.37886e-08 7.55573e-09 4.68771e-08 3.25751e-08 -3.64318e-08 3.8552e-07)
(5.88405e-08 1.68104e-08 1.20644e-07 3.76469e-08 4.23783e-08 9.40822e-07)
(1.78638e-07 -1.5442e-08 3.77243e-07 2.81009e-08 -1.29679e-07 3.6378e-06)
(1.61323e-07 1.76915e-09 8.2336e-08 1.03131e-07 -6.90693e-07 8.72446e-06)
(1.03694e-07 1.13787e-08 -4.09899e-07 1.36482e-08 -2.19031e-07 7.77105e-06)
(5.61869e-08 -9.38426e-09 -2.34357e-07 1.47279e-08 1.07909e-07 4.81878e-06)
(2.36934e-08 2.85575e-09 -1.58242e-07 1.44532e-08 -4.66743e-08 2.4378e-06)
(1.99577e-08 1.42652e-08 -3.96315e-08 2.98237e-08 -1.93067e-09 3.53645e-07)
(2.61065e-08 4.07465e-09 -1.76479e-08 2.8517e-08 3.52454e-08 2.07129e-07)
(4.46378e-08 -6.74358e-09 -2.40247e-08 2.38655e-08 6.44483e-08 4.17311e-07)
(1.05664e-07 -2.26451e-08 -2.03317e-08 1.67469e-08 5.74125e-08 5.89265e-07)
(1.22411e-07 5.95103e-09 7.09329e-09 2.51172e-09 -1.34561e-08 9.4259e-07)
(8.09059e-08 2.43484e-08 8.44524e-09 1.40176e-08 -3.44039e-08 1.06502e-06)
(6.44267e-08 2.62423e-08 -1.11848e-08 2.06558e-08 -5.79797e-08 8.95528e-07)
(4.79101e-08 2.32667e-08 -8.21165e-09 2.63051e-08 -6.17607e-08 5.40216e-07)
(3.35456e-08 1.4808e-08 1.19442e-08 2.64883e-08 -5.91848e-08 3.20219e-07)
(3.54987e-08 7.821e-09 5.71688e-08 3.18295e-08 -3.05843e-08 4.14757e-07)
(6.15199e-08 1.68838e-08 1.33595e-07 3.625e-08 4.50701e-08 1.0173e-06)
(1.80544e-07 -1.50647e-08 3.79437e-07 2.69584e-08 -1.21407e-07 3.55203e-06)
(1.61621e-07 9.40942e-10 1.02189e-07 9.65492e-08 -6.37374e-07 8.29747e-06)
(1.0103e-07 1.06037e-08 -3.76881e-07 1.31062e-08 -2.07729e-07 7.62125e-06)
(5.5198e-08 -8.79735e-09 -2.19937e-07 1.40897e-08 1.02073e-07 4.91995e-06)
(2.28256e-08 2.6393e-09 -1.51053e-07 1.40243e-08 -4.95172e-08 2.47138e-06)
(2.041e-08 1.41415e-08 -3.66756e-08 2.97306e-08 2.97395e-09 3.4103e-07)
(2.69857e-08 4.34251e-09 -1.20556e-08 2.88372e-08 4.39617e-08 2.50498e-07)
(4.59228e-08 -6.09434e-09 -1.7463e-08 2.44125e-08 7.41665e-08 5.11277e-07)
(1.08288e-07 -2.22316e-08 -1.22944e-08 1.75362e-08 6.49648e-08 6.99046e-07)
(1.22222e-07 5.07743e-09 7.77766e-09 2.2028e-09 -1.37971e-08 1.04887e-06)
(7.93924e-08 2.3546e-08 7.5145e-09 1.31566e-08 -3.69066e-08 1.1538e-06)
(6.30638e-08 2.56613e-08 -1.30767e-08 1.97174e-08 -5.99657e-08 9.53238e-07)
(4.73548e-08 2.30511e-08 -9.36923e-09 2.53964e-08 -6.22809e-08 5.55752e-07)
(3.42737e-08 1.4783e-08 1.76238e-08 2.57886e-08 -5.50063e-08 3.137e-07)
(3.72545e-08 8.01367e-09 6.73142e-08 3.106e-08 -2.5467e-08 4.46676e-07)
(6.41976e-08 1.68352e-08 1.45923e-07 3.49111e-08 4.68996e-08 1.08807e-06)
(1.82587e-07 -1.46991e-08 3.80626e-07 2.58372e-08 -1.1332e-07 3.46049e-06)
(1.62178e-07 2.11342e-10 1.21197e-07 9.03964e-08 -5.86954e-07 7.88564e-06)
(9.86125e-08 9.84165e-09 -3.4372e-07 1.25869e-08 -1.96629e-07 7.4659e-06)
(5.42928e-08 -8.20739e-09 -2.04017e-07 1.34927e-08 9.64549e-08 5.00351e-06)
(2.20223e-08 2.40502e-09 -1.43261e-07 1.35561e-08 -5.1945e-08 2.49934e-06)
(2.06795e-08 1.39101e-08 -3.39119e-08 2.95281e-08 7.68473e-09 3.33282e-07)
(2.7659e-08 4.56896e-09 -6.35341e-09 2.90478e-08 5.2314e-08 3.02235e-07)
(4.70404e-08 -5.44287e-09 -1.03487e-08 2.48723e-08 8.35019e-08 6.14242e-07)
(1.10896e-07 -2.16945e-08 -3.36073e-09 1.83026e-08 7.246e-08 8.16355e-07)
(1.22136e-07 4.2648e-09 9.04997e-09 1.94331e-09 -1.36872e-08 1.15998e-06)
(7.78875e-08 2.27311e-08 6.40098e-09 1.23262e-08 -3.91745e-08 1.24621e-06)
(6.16653e-08 2.50762e-08 -1.54735e-08 1.87974e-08 -6.1705e-08 1.01486e-06)
(4.67117e-08 2.28408e-08 -1.12606e-08 2.44815e-08 -6.2769e-08 5.75656e-07)
(3.50264e-08 1.47322e-08 2.29633e-08 2.50748e-08 -5.11775e-08 3.09809e-07)
(3.90421e-08 8.12983e-09 7.72386e-08 3.02745e-08 -2.10176e-08 4.80058e-07)
(6.68552e-08 1.66711e-08 1.57609e-07 3.36316e-08 4.80143e-08 1.15294e-06)
(1.84728e-07 -1.43565e-08 3.80927e-07 2.47456e-08 -1.05472e-07 3.36523e-06)
(1.6299e-07 -4.22236e-10 1.39355e-07 8.46398e-08 -5.39374e-07 7.4907e-06)
(9.64477e-08 9.09928e-09 -3.1065e-07 1.20905e-08 -1.85791e-07 7.30782e-06)
(5.34926e-08 -7.61605e-09 -1.86818e-07 1.29309e-08 9.11115e-08 5.07149e-06)
(2.12923e-08 2.15511e-09 -1.34914e-07 1.30572e-08 -5.39516e-08 2.52272e-06)
(2.07683e-08 1.35728e-08 -3.14196e-08 2.92253e-08 1.21518e-08 3.29692e-07)
(2.81108e-08 4.74462e-09 -6.98519e-10 2.91572e-08 6.02466e-08 3.60846e-07)
(4.7965e-08 -4.8063e-09 -2.8885e-09 2.52484e-08 9.23836e-08 7.24353e-07)
(1.13448e-07 -2.10561e-08 6.23076e-09 1.90446e-08 7.98309e-08 9.39452e-07)
(1.22167e-07 3.51281e-09 1.09302e-08 1.73615e-09 -1.31399e-08 1.27534e-06)
(7.64026e-08 2.19065e-08 5.19223e-09 1.15308e-08 -4.11989e-08 1.34203e-06)
(6.02416e-08 2.44862e-08 -1.82565e-08 1.79013e-08 -6.31953e-08 1.08033e-06)
(4.59836e-08 2.26276e-08 -1.37822e-08 2.35672e-08 -6.32089e-08 5.99953e-07)
(3.57953e-08 1.46529e-08 2.79544e-08 2.43536e-08 -4.76794e-08 3.08038e-07)
(4.08456e-08 8.17268e-09 8.68808e-08 2.94774e-08 -1.71766e-08 5.13965e-07)
(6.94732e-08 1.64019e-08 1.68646e-07 3.24048e-08 4.85375e-08 1.21192e-06)
(1.86929e-07 -1.40374e-08 3.80458e-07 2.36799e-08 -9.78884e-08 3.26813e-06)
(1.64048e-07 -9.60882e-10 1.56647e-07 7.92576e-08 -4.94577e-07 7.11415e-06)
(9.45416e-08 8.38546e-09 -2.77895e-07 1.16129e-08 -1.75259e-07 7.14924e-06)
(5.2818e-08 -7.02292e-09 -1.68569e-07 1.23969e-08 8.61004e-08 5.12562e-06)
(2.06477e-08 1.89346e-09 -1.26069e-07 1.25291e-08 -5.55205e-08 2.54235e-06)
(2.06899e-08 1.31321e-08 -2.92454e-08 2.88254e-08 1.63598e-08 3.29649e-07)
(2.83436e-08 4.86156e-09 4.79734e-09 2.91673e-08 6.77325e-08 4.25008e-07)
(4.86919e-08 -4.1984e-09 4.76565e-09 2.55392e-08 1.00777e-07 8.39974e-07)
(1.15931e-07 -2.03383e-08 1.63048e-08 1.97554e-08 8.70355e-08 1.0668e-06)
(1.22358e-07 2.83295e-09 1.35989e-08 1.58101e-09 -1.21457e-08 1.39455e-06)
(7.49583e-08 2.1079e-08 4.0721e-09 1.07734e-08 -4.29486e-08 1.44118e-06)
(5.88056e-08 2.38942e-08 -2.12455e-08 1.70356e-08 -6.43995e-08 1.14968e-06)
(4.51728e-08 2.24032e-08 -1.67939e-08 2.26596e-08 -6.35646e-08 6.2872e-07)
(3.65698e-08 1.45419e-08 3.25932e-08 2.36304e-08 -4.44886e-08 3.08026e-07)
(4.26474e-08 8.14588e-09 9.61905e-08 2.86732e-08 -1.3886e-08 5.47715e-07)
(7.20319e-08 1.60388e-08 1.79033e-07 3.1228e-08 4.85745e-08 1.26522e-06)
(1.89153e-07 -1.37428e-08 3.79336e-07 2.26418e-08 -9.05954e-08 3.17087e-06)
(1.65339e-07 -1.40739e-09 1.73051e-07 7.42265e-08 -4.5251e-07 6.75717e-06)
(9.28977e-08 7.70711e-09 -2.45673e-07 1.11514e-08 -1.65068e-07 6.99185e-06)
(5.2288e-08 -6.42847e-09 -1.495e-07 1.18851e-08 8.14546e-08 5.16741e-06)
(2.01024e-08 1.62416e-09 -1.16798e-07 1.19754e-08 -5.66455e-08 2.55882e-06)
(2.04631e-08 1.2595e-08 -2.74218e-08 2.8335e-08 2.02976e-08 3.32658e-07)
(2.83693e-08 4.91572e-09 1.00461e-08 2.90821e-08 7.47497e-08 4.9359e-07)
(4.92264e-08 -3.62832e-09 1.24872e-08 2.57451e-08 1.08652e-07 9.59703e-07)
(1.18342e-07 -1.95601e-08 2.6705e-08 2.04286e-08 9.40297e-08 1.19704e-06)
(1.22769e-07 2.24016e-09 1.73493e-08 1.47845e-09 -1.06835e-08 1.51762e-06)
(7.35804e-08 2.02543e-08 3.2816e-09 1.00558e-08 -4.43918e-08 1.54387e-06)
(5.73722e-08 2.3303e-08 -2.42246e-08 1.62044e-08 -6.5261e-08 1.2232e-06)
(4.42819e-08 2.21611e-08 -2.01438e-08 2.17636e-08 -6.37884e-08 6.62207e-07)
(3.73374e-08 1.4398e-08 3.68797e-08 2.29104e-08 -4.15864e-08 3.09536e-07)
(4.44284e-08 8.05534e-09 1.05128e-07 2.78657e-08 -1.10937e-08 5.80844e-07)
(7.45113e-08 1.55945e-08 1.88777e-07 3.00982e-08 4.82121e-08 1.31317e-06)
(1.91362e-07 -1.34726e-08 3.7768e-07 2.16318e-08 -8.36154e-08 3.07489e-06)
(1.66846e-07 -1.76562e-09 1.88538e-07 6.95237e-08 -4.13114e-07 6.42055e-06)
(9.15167e-08 7.07002e-09 -2.14193e-07 1.0703e-08 -1.55241e-07 6.83688e-06)
(5.19195e-08 -5.83333e-09 -1.2985e-07 1.13905e-08 7.71917e-08 5.19814e-06)
(1.96711e-08 1.35174e-09 -1.07183e-07 1.14005e-08 -5.73249e-08 2.57255e-06)
(2.01102e-08 1.19713e-08 -2.59731e-08 2.7762e-08 2.3961e-08 3.3831e-07)
(2.82058e-08 4.90627e-09 1.49749e-08 2.89062e-08 8.12859e-08 5.65634e-07)
(4.9581e-08 -3.10172e-09 2.01645e-08 2.58676e-08 1.15996e-07 1.08238e-06)
(1.20686e-07 -1.8737e-08 3.72769e-08 2.10581e-08 1.00772e-07 1.32904e-06)
(1.23432e-07 1.74015e-09 2.19994e-08 1.42803e-09 -8.76294e-09 1.64397e-06)
(7.22938e-08 1.94382e-08 2.77839e-09 9.37897e-09 -4.5523e-08 1.64986e-06)
(5.59635e-08 2.2716e-08 -2.71648e-08 1.54111e-08 -6.57889e-08 1.30072e-06)
(4.33189e-08 2.18955e-08 -2.37583e-08 2.08829e-08 -6.38475e-08 7.00337e-07)
(3.80841e-08 1.42217e-08 4.08153e-08 2.21974e-08 -3.89562e-08 3.12422e-07)
(4.61678e-08 7.90872e-09 1.13662e-07 2.70575e-08 -8.75141e-09 6.13059e-07)
(7.6891e-08 1.50822e-08 1.97893e-07 2.90118e-08 4.75235e-08 1.35618e-06)
(1.93519e-07 -1.32242e-08 3.75604e-07 2.06499e-08 -7.69636e-08 2.98138e-06)
(1.68548e-07 -2.04012e-09 2.03069e-07 6.51273e-08 -3.76322e-07 6.10468e-06)
(9.03961e-08 6.47901e-09 -1.8366e-07 1.02651e-08 -1.45787e-07 6.68517e-06)
(5.17253e-08 -5.23842e-09 -1.09857e-07 1.09096e-08 7.33189e-08 5.21892e-06)
(1.93681e-08 1.08089e-09 -9.73221e-08 1.0809e-08 -5.75624e-08 2.5838e-06)
(1.9656e-08 1.12717e-08 -2.49132e-08 2.71147e-08 2.73524e-08 3.46266e-07)
(2.78754e-08 4.83357e-09 1.95289e-08 2.86444e-08 8.73371e-08 6.40338e-07)
(4.97731e-08 -2.62323e-09 2.77056e-08 2.59085e-08 1.22802e-07 1.20707e-06)
(1.22975e-07 -1.78835e-08 4.78823e-08 2.16378e-08 1.07228e-07 1.46178e-06)
(1.24352e-07 1.32937e-09 2.6912e-08 1.42572e-09 -6.45736e-09 1.77157e-06)
(7.11248e-08 1.86393e-08 2.28495e-09 8.74383e-09 -4.6346e-08 1.7577e-06)
(5.46079e-08 2.21366e-08 -3.01791e-08 1.46566e-08 -6.60592e-08 1.38083e-06)
(4.22995e-08 2.16044e-08 -2.7586e-08 2.00203e-08 -6.37313e-08 7.42085e-07)
(3.87948e-08 1.40148e-08 4.4403e-08 2.14941e-08 -3.65832e-08 3.16582e-07)
(4.78442e-08 7.7152e-09 1.21762e-07 2.625e-08 -6.81243e-09 6.44163e-07)
(7.915e-08 1.45164e-08 2.06391e-07 2.7965e-08 4.65741e-08 1.39465e-06)
(1.95586e-07 -1.29936e-08 3.7321e-07 1.96958e-08 -7.06455e-08 2.89125e-06)
(1.70421e-07 -2.2362e-09 2.16596e-07 6.10166e-08 -3.42056e-07 5.80956e-06)
(8.95288e-08 5.93803e-09 -1.54274e-07 9.83552e-09 -1.36707e-07 6.53725e-06)
(5.17135e-08 -4.64491e-09 -8.97682e-08 1.04396e-08 6.98368e-08 5.23067e-06)
(1.92058e-08 8.16376e-10 -8.7321e-08 1.0206e-08 -5.73672e-08 2.59267e-06)
(1.91247e-08 1.05076e-08 -2.42426e-08 2.64014e-08 3.04805e-08 3.56243e-07)
(2.74016e-08 4.69975e-09 2.3676e-08 2.83023e-08 9.29065e-08 7.17041e-07)
(4.98223e-08 -2.19548e-09 3.50457e-08 2.58703e-08 1.29072e-07 1.33301e-06)
(1.25225e-07 -1.70121e-08 5.84212e-08 2.2162e-08 1.1337e-07 1.5945e-06)
(1.2553e-07 9.93107e-10 3.1656e-08 1.46531e-09 -3.87774e-09 1.89812e-06)
(7.00962e-08 1.78571e-08 1.66729e-09 8.14937e-09 -4.68668e-08 1.86549e-06)
(5.33298e-08 2.15615e-08 -3.32748e-08 1.39372e-08 -6.61328e-08 1.46171e-06)
(4.12402e-08 2.12849e-08 -3.15139e-08 1.91769e-08 -6.34419e-08 7.86095e-07)
(3.94545e-08 1.37798e-08 4.76474e-08 2.08022e-08 -3.44513e-08 3.21901e-07)
(4.94365e-08 7.48471e-09 1.294e-07 2.54441e-08 -5.2285e-09 6.73989e-07)
(8.12686e-08 1.39118e-08 2.14281e-07 2.69537e-08 4.54241e-08 1.42895e-06)
(1.97531e-07 -1.27754e-08 3.70577e-07 1.87691e-08 -6.46577e-08 2.80513e-06)
(1.72432e-07 -2.35951e-09 2.29064e-07 5.71716e-08 -3.10225e-07 5.53482e-06)
(8.89029e-08 5.45011e-09 -1.26225e-07 9.41247e-09 -1.27995e-07 6.39338e-06)
(5.18861e-08 -4.05426e-09 -6.98288e-08 9.97867e-09 6.67404e-08 5.23414e-06)
(1.91937e-08 5.62646e-10 -7.72961e-08 9.59654e-09 -5.67534e-08 2.59916e-06)
(1.85392e-08 9.69046e-09 -2.39483e-08 2.56308e-08 3.33594e-08 3.68025e-07)
(2.68078e-08 4.50841e-09 2.74058e-08 2.78856e-08 9.80035e-08 7.95225e-07)
(4.97479e-08 -1.81948e-09 4.21474e-08 2.57562e-08 1.34812e-07 1.45958e-06)
(1.27454e-07 -1.61331e-08 6.88367e-08 2.26261e-08 1.1918e-07 1.72658e-06)
(1.26974e-07 7.17429e-10 3.61497e-08 1.53986e-09 -1.12213e-09 2.02212e-06)
(6.92251e-08 1.70889e-08 9.63563e-10 7.59364e-09 -4.70984e-08 1.97175e-06)
(5.21474e-08 2.09875e-08 -3.63607e-08 1.32486e-08 -6.60303e-08 1.54201e-06)
(4.01551e-08 2.09349e-08 -3.54198e-08 1.83527e-08 -6.29837e-08 8.31351e-07)
(4.00488e-08 1.35201e-08 5.05536e-08 2.01222e-08 -3.25401e-08 3.28235e-07)
(5.0925e-08 7.22716e-09 1.36543e-07 2.46401e-08 -3.94871e-09 7.0238e-07)
(8.3229e-08 1.32825e-08 2.21559e-07 2.59743e-08 4.41301e-08 1.45941e-06)
(1.99326e-07 -1.25642e-08 3.67758e-07 1.78695e-08 -5.89888e-08 2.72337e-06)
(1.74545e-07 -2.41623e-09 2.40411e-07 5.35735e-08 -2.80727e-07 5.27981e-06)
(8.85009e-08 5.01716e-09 -9.96876e-08 8.99468e-09 -1.1964e-07 6.25366e-06)
(5.22385e-08 -3.46825e-09 -5.02813e-08 9.52572e-09 6.4017e-08 5.22993e-06)
(1.93377e-08 3.23661e-10 -6.737e-08 8.98591e-09 -5.57396e-08 2.6032e-06)
(1.7921e-08 8.83137e-09 -2.40123e-08 2.48115e-08 3.60059e-08 3.81447e-07)
(2.61167e-08 4.26362e-09 3.07249e-08 2.74005e-08 1.02643e-07 8.74508e-07)
(4.95684e-08 -1.49579e-09 4.89971e-08 2.55698e-08 1.40034e-07 1.58633e-06)
(1.29676e-07 -1.52559e-08 7.91045e-08 2.30259e-08 1.24647e-07 1.85757e-06)
(1.28699e-07 4.96996e-10 4.0493e-08 1.64286e-09 1.7493e-09 2.14286e-06)
(6.85235e-08 1.6335e-08 2.74184e-10 7.0749e-09 -4.70574e-08 2.07564e-06)
(5.1074e-08 2.04151e-08 -3.93266e-08 1.25886e-08 -6.57459e-08 1.621e-06)
(3.90547e-08 2.05553e-08 -3.92123e-08 1.7548e-08 -6.23554e-08 8.77277e-07)
(4.05643e-08 1.32392e-08 5.31265e-08 1.94546e-08 -3.08246e-08 3.3541e-07)
(5.2293e-08 6.95179e-09 1.43158e-07 2.38383e-08 -2.9208e-09 7.29183e-07)
(8.50169e-08 1.26412e-08 2.28215e-07 2.50235e-08 4.27444e-08 1.48625e-06)
(2.00948e-07 -1.23554e-08 3.6478e-07 1.6997e-08 -5.36219e-08 2.64609e-06)
(1.76722e-07 -2.4128e-09 2.5058e-07 5.02045e-08 -2.5345e-07 5.04364e-06)
(8.83004e-08 4.64005e-09 -7.48198e-08 8.58137e-09 -1.11625e-07 6.11801e-06)
(5.27597e-08 -2.88904e-09 -3.13567e-08 9.08035e-09 6.16478e-08 5.21851e-06)
(1.96392e-08 1.02744e-10 -5.76685e-08 8.37924e-09 -5.43505e-08 2.60472e-06)
(1.72922e-08 7.94193e-09 -2.44213e-08 2.39519e-08 3.84346e-08 3.96371e-07)
(2.535e-08 3.9708e-09 3.36529e-08 2.68531e-08 1.06845e-07 9.54662e-07)
(4.93029e-08 -1.22312e-09 5.55929e-08 2.53147e-08 1.44754e-07 1.71295e-06)
(1.31905e-07 -1.43867e-08 8.92147e-08 2.33579e-08 1.29763e-07 1.98709e-06)
(1.30722e-07 3.32787e-10 4.48281e-08 1.76884e-09 4.70526e-09 2.26018e-06)
(6.80001e-08 1.55977e-08 -3.07287e-10 6.59162e-09 -4.6764e-08 2.17675e-06)
(5.01203e-08 1.98475e-08 -4.20743e-08 1.19563e-08 -6.52658e-08 1.69841e-06)
(3.79473e-08 2.01484e-08 -4.28327e-08 1.67637e-08 -6.15543e-08 9.23572e-07)
(4.0989e-08 1.29408e-08 5.53704e-08 1.87991e-08 -2.92762e-08 3.43257e-07)
(5.35262e-08 6.66693e-09 1.49213e-07 2.30392e-08 -2.09314e-09 7.54257e-07)
(8.6621e-08 1.19994e-08 2.34233e-07 2.40984e-08 4.13147e-08 1.50966e-06)
(2.02382e-07 -1.21449e-08 3.6165e-07 1.61514e-08 -4.85352e-08 2.57327e-06)
(1.78919e-07 -2.35588e-09 2.5952e-07 4.70482e-08 -2.28271e-07 4.82523e-06)
(8.82746e-08 4.31847e-09 -5.17529e-08 8.17225e-09 -1.03935e-07 5.98628e-06)
(5.34334e-08 -2.31921e-09 -1.32668e-08 8.64265e-09 5.9609e-08 5.20035e-06)
(2.00951e-08 -9.76333e-11 -4.83143e-08 7.78146e-09 -5.26158e-08 2.60362e-06)
(1.6676e-08 7.03416e-09 -2.51715e-08 2.30607e-08 4.06572e-08 4.12661e-07)
(2.45299e-08 3.63655e-09 3.62049e-08 2.62498e-08 1.1063e-07 1.03554e-06)
(4.89714e-08 -9.98223e-10 6.19254e-08 2.49946e-08 1.48984e-07 1.83915e-06)
(1.34155e-07 -1.35294e-08 9.91629e-08 2.36194e-08 1.34524e-07 2.11491e-06)
(1.33057e-07 2.25304e-10 4.92756e-08 1.91274e-09 7.72094e-09 2.37409e-06)
(6.76616e-08 1.4878e-08 -7.11512e-10 6.14166e-09 -4.62442e-08 2.2749e-06)
(4.92953e-08 1.92863e-08 -4.45402e-08 1.13506e-08 -6.45907e-08 1.77412e-06)
(3.68404e-08 1.97166e-08 -4.6245e-08 1.60001e-08 -6.05837e-08 9.70056e-07)
(4.1313e-08 1.26286e-08 5.72869e-08 1.8156e-08 -2.78643e-08 3.51603e-07)
(5.46133e-08 6.37988e-09 1.54678e-07 2.22435e-08 -1.41687e-09 7.77477e-07)
(8.80324e-08 1.13669e-08 2.39593e-07 2.3197e-08 3.98837e-08 1.5298e-06)
(2.03618e-07 -1.19295e-08 3.58358e-07 1.53328e-08 -4.37046e-08 2.50475e-06)
(1.81094e-07 -2.25222e-09 2.67188e-07 4.40887e-08 -2.05063e-07 4.62342e-06)
(8.8394e-08 4.05096e-09 -3.05877e-08 7.76744e-09 -9.65545e-08 5.85828e-06)
(5.42385e-08 -1.76171e-09 3.80237e-09 8.21313e-09 5.78745e-08 5.17587e-06)
(2.06976e-08 -2.75947e-10 -3.94219e-08 7.1971e-09 -5.05697e-08 2.59987e-06)
(1.60931e-08 6.12007e-09 -2.62607e-08 2.21464e-08 4.26845e-08 4.30184e-07)
(2.36781e-08 3.26886e-09 3.83842e-08 2.55966e-08 1.14016e-07 1.11696e-06)
(4.85938e-08 -8.16067e-10 6.79787e-08 2.46135e-08 1.5274e-07 1.96463e-06)
(1.36435e-07 -1.26855e-08 1.08954e-07 2.38088e-08 1.38924e-07 2.24092e-06)
(1.35708e-07 1.72199e-10 5.38919e-08 2.06921e-09 1.07651e-08 2.4846e-06)
(6.75124e-08 1.4177e-08 -9.02638e-10 5.72275e-09 -4.55258e-08 2.37003e-06)
(4.86062e-08 1.87324e-08 -4.66999e-08 1.07701e-08 -6.37358e-08 1.84795e-06)
(3.57426e-08 1.92627e-08 -4.94259e-08 1.52577e-08 -5.94509e-08 1.0166e-06)
(4.15297e-08 1.23066e-08 5.88745e-08 1.75252e-08 -2.65599e-08 3.60265e-07)
(5.5546e-08 6.09695e-09 1.59527e-07 2.1452e-08 -8.47911e-10 7.98739e-07)
(8.9245e-08 1.07518e-08 2.44278e-07 2.23174e-08 3.84879e-08 1.5468e-06)
(2.0465e-07 -1.17069e-08 3.54886e-07 1.45414e-08 -3.91067e-08 2.4403e-06)
(1.83202e-07 -2.10863e-09 2.73554e-07 4.13116e-08 -1.83697e-07 4.43697e-06)
(8.86268e-08 3.83501e-09 -1.13919e-08 7.36743e-09 -8.9469e-08 5.73384e-06)
(5.51506e-08 -1.21981e-09 1.96958e-08 7.79254e-09 5.64158e-08 5.14557e-06)
(2.14348e-08 -4.31651e-10 -3.10942e-08 6.63032e-09 -4.82518e-08 2.5935e-06)
(1.55584e-08 5.20848e-09 -2.76665e-08 2.12161e-08 4.45339e-08 4.48842e-07)
(2.28127e-08 2.87376e-09 4.02034e-08 2.48991e-08 1.17015e-07 1.19875e-06)
(4.81853e-08 -6.73906e-10 7.37559e-08 2.41749e-08 1.56033e-07 2.08908e-06)
(1.38753e-07 -1.18587e-08 1.18623e-07 2.39239e-08 1.42963e-07 2.36512e-06)
(1.38671e-07 1.70158e-10 5.86891e-08 2.23309e-09 1.38026e-08 2.5917e-06)
(6.75543e-08 1.34956e-08 -8.68976e-10 5.33274e-09 -4.46358e-08 2.46208e-06)
(4.80602e-08 1.81868e-08 -4.854e-08 1.02137e-08 -6.27187e-08 1.9198e-06)
(3.46632e-08 1.87902e-08 -5.23617e-08 1.45369e-08 -5.81671e-08 1.06311e-06)
(4.16347e-08 1.19785e-08 6.01304e-08 1.69069e-08 -2.53372e-08 3.69072e-07)
(5.63187e-08 5.82348e-09 1.63739e-07 2.06659e-08 -3.48506e-10 8.17967e-07)
(9.02545e-08 1.0161e-08 2.48273e-07 2.14583e-08 3.71569e-08 1.56081e-06)
(2.05472e-07 -1.14749e-08 3.51208e-07 1.37774e-08 -3.47195e-08 2.37961e-06)
(1.85203e-07 -1.93182e-09 2.78601e-07 3.87037e-08 -1.64044e-07 4.26467e-06)
(8.8941e-08 3.66708e-09 5.8001e-09 6.97298e-09 -8.26674e-08 5.6128e-06)
(5.61434e-08 -6.96936e-10 3.42928e-08 7.38179e-09 5.52028e-08 5.10999e-06)
(2.22916e-08 -5.65106e-10 -2.34194e-08 6.08474e-09 -4.57043e-08 2.58457e-06)
(1.50822e-08 4.3073e-09 -2.93594e-08 2.02771e-08 4.62275e-08 4.68581e-07)
(2.19492e-08 2.45796e-09 4.16815e-08 2.41624e-08 1.19641e-07 1.2807e-06)
(4.77583e-08 -5.67621e-10 7.9271e-08 2.36829e-08 1.58881e-07 2.21229e-06)
(1.41108e-07 -1.10504e-08 1.28207e-07 2.39633e-08 1.46642e-07 2.48753e-06)
(1.41936e-07 2.16543e-10 6.36816e-08 2.39976e-09 1.68023e-08 2.69549e-06)
(6.77882e-08 1.28357e-08 -6.00368e-10 4.96979e-09 -4.35986e-08 2.55113e-06)
(4.76641e-08 1.76507e-08 -5.00521e-08 9.68029e-09 -6.15578e-08 1.98971e-06)
(3.36122e-08 1.83027e-08 -5.50472e-08 1.3838e-08 -5.67463e-08 1.1096e-06)
(4.16263e-08 1.16481e-08 6.10532e-08 1.63014e-08 -2.41753e-08 3.77881e-07)
(5.69293e-08 5.56405e-09 1.6729e-07 1.98864e-08 1.07069e-10 8.35104e-07)
(9.1059e-08 9.59994e-09 2.51571e-07 2.06188e-08 3.59125e-08 1.57198e-06)
(2.06086e-07 -1.12316e-08 3.47281e-07 1.30409e-08 -3.05282e-08 2.32238e-06)
(1.87054e-07 -1.72828e-09 2.82329e-07 3.62526e-08 -1.45977e-07 4.10532e-06)
(8.93051e-08 3.54285e-09 2.09858e-08 6.58509e-09 -7.61413e-08 5.49506e-06)
(5.719e-08 -1.96583e-10 4.7508e-08 6.98175e-09 5.42049e-08 5.06973e-06)
(2.32505e-08 -6.77538e-10 -1.64678e-08 5.56343e-09 -4.29714e-08 2.57321e-06)
(1.46741e-08 3.4237e-09 -3.13211e-08 1.9336e-08 4.77883e-08 4.89382e-07)
(2.1101e-08 2.02822e-09 4.28375e-08 2.33917e-08 1.21907e-07 1.36262e-06)
(4.73245e-08 -4.92889e-10 8.45291e-08 2.31412e-08 1.61311e-07 2.33417e-06)
(1.435e-07 -1.02602e-08 1.37737e-07 2.39269e-08 1.4997e-07 2.60819e-06)
(1.45495e-07 3.08463e-10 6.88965e-08 2.56485e-09 1.9738e-08 2.79619e-06)
(6.82157e-08 1.21988e-08 -7.84492e-11 4.63215e-09 -4.24392e-08 2.63738e-06)
(4.74239e-08 1.7125e-08 -5.12257e-08 9.16905e-09 -6.02708e-08 2.05783e-06)
(3.26e-08 1.78041e-08 -5.74834e-08 1.31615e-08 -5.52059e-08 1.15615e-06)
(4.15049e-08 1.13188e-08 6.16456e-08 1.57093e-08 -2.30596e-08 3.86591e-07)
(5.73788e-08 5.32236e-09 1.70159e-07 1.91147e-08 5.33438e-10 8.50111e-07)
(9.16601e-08 9.07303e-09 2.54152e-07 1.97985e-08 3.4764e-08 1.58048e-06)
(2.06502e-07 -1.09747e-08 3.43034e-07 1.23321e-08 -2.65303e-08 2.26822e-06)
(1.88719e-07 -1.50425e-09 2.84751e-07 3.39472e-08 -1.29375e-07 3.95779e-06)
(8.96901e-08 3.45718e-09 3.41911e-08 6.20484e-09 -6.98854e-08 5.38053e-06)
(5.82645e-08 2.77751e-10 5.92908e-08 6.59325e-09 5.33894e-08 5.02545e-06)
(2.42931e-08 -7.70961e-10 -1.02911e-08 5.06879e-09 -4.0097e-08 2.55954e-06)
(1.43424e-08 2.56374e-09 -3.35431e-08 1.83983e-08 4.92393e-08 5.11249e-07)
(2.02799e-08 1.59056e-09 4.36896e-08 2.25923e-08 1.23832e-07 1.44435e-06)
(4.68951e-08 -4.45432e-10 8.95268e-08 2.25534e-08 1.63361e-07 2.45485e-06)
(1.4593e-07 -9.48843e-09 1.47212e-07 2.3815e-08 1.52959e-07 2.72721e-06)
(1.49339e-07 4.43258e-10 7.43735e-08 2.72431e-09 2.25894e-08 2.89415e-06)
(6.88374e-08 1.1586e-08 7.21629e-10 4.31824e-09 -4.11828e-08 2.7212e-06)
(4.73459e-08 1.6611e-08 -5.20424e-08 8.67923e-09 -5.88729e-08 2.12443e-06)
(3.16368e-08 1.72983e-08 -5.96743e-08 1.25079e-08 -5.35649e-08 1.20293e-06)
(4.12736e-08 1.09941e-08 6.19153e-08 1.51304e-08 -2.19795e-08 3.95154e-07)
(5.76708e-08 5.10116e-09 1.7234e-07 1.83524e-08 9.41672e-10 8.62999e-07)
(9.20632e-08 8.58331e-09 2.55989e-07 1.89971e-08 3.3708e-08 1.58646e-06)
(2.06728e-07 -1.0702e-08 3.38401e-07 1.1651e-08 -2.27279e-08 2.21674e-06)
(1.90166e-07 -1.26383e-09 2.85891e-07 3.17774e-08 -1.14117e-07 3.82097e-06)
(9.00697e-08 3.40505e-09 4.54659e-08 5.83328e-09 -6.38948e-08 5.26916e-06)
(5.93428e-08 7.23475e-10 6.96217e-08 6.21699e-09 5.27281e-08 4.97781e-06)
(2.54025e-08 -8.47909e-10 -4.92478e-09 4.6024e-09 -3.71187e-08 2.54361e-06)
(1.40933e-08 1.73203e-09 -3.60198e-08 1.74692e-08 5.0598e-08 5.34147e-07)
(1.94953e-08 1.14984e-09 4.42552e-08 2.17683e-08 1.25448e-07 1.5259e-06)
(4.64791e-08 -4.21709e-10 9.42656e-08 2.19236e-08 1.65059e-07 2.57444e-06)
(1.48403e-07 -8.73595e-09 1.56605e-07 2.36282e-08 1.55633e-07 2.84475e-06)
(1.53453e-07 6.18221e-10 8.01497e-08 2.87449e-09 2.53412e-08 2.98975e-06)
(6.96502e-08 1.0998e-08 1.81629e-09 4.02664e-09 -3.9854e-08 2.80301e-06)
(4.74338e-08 1.61093e-08 -5.24899e-08 8.21021e-09 -5.73801e-08 2.18981e-06)
(3.07324e-08 1.67889e-08 -6.16264e-08 1.18776e-08 -5.18418e-08 1.25016e-06)
(4.09376e-08 1.06771e-08 6.18717e-08 1.45649e-08 -2.09198e-08 4.03561e-07)
(5.78108e-08 4.90212e-09 1.73848e-07 1.76014e-08 1.33673e-09 8.73819e-07)
(9.22739e-08 8.13263e-09 2.5708e-07 1.82151e-08 3.27373e-08 1.59013e-06)
(2.06769e-07 -1.04132e-08 3.33347e-07 1.09979e-08 -1.91188e-08 2.16766e-06)
(1.91383e-07 -1.00686e-09 2.85743e-07 2.97336e-08 -1.00088e-07 3.69353e-06)
(9.04233e-08 3.38277e-09 5.48722e-08 5.47121e-09 -5.81566e-08 5.16063e-06)
(6.04051e-08 1.13994e-09 7.85077e-08 5.85377e-09 5.21995e-08 4.92724e-06)
(2.65645e-08 -9.10828e-10 -3.98858e-10 4.16504e-09 -3.40649e-08 2.52528e-06)
(1.39304e-08 9.31931e-10 -3.87448e-08 1.65531e-08 5.18759e-08 5.58009e-07)
(1.87548e-08 7.1026e-10 4.45525e-08 2.09239e-08 1.26787e-07 1.60734e-06)
(4.60824e-08 -4.18165e-10 9.87523e-08 2.12564e-08 1.66427e-07 2.69301e-06)
(1.50915e-07 -8.00355e-09 1.65896e-07 2.33683e-08 1.58011e-07 2.961e-06)
(1.57816e-07 8.2961e-10 8.62408e-08 3.01197e-09 2.79778e-08 3.08338e-06)
(7.06455e-08 1.04346e-08 3.20553e-09 3.75582e-09 -3.84777e-08 2.8832e-06)
(4.76871e-08 1.56194e-08 -5.25763e-08 7.76119e-09 -5.5814e-08 2.25424e-06)
(2.98946e-08 1.62786e-08 -6.33538e-08 1.12706e-08 -5.0058e-08 1.29801e-06)
(4.05037e-08 1.03723e-08 6.15133e-08 1.40112e-08 -1.98389e-08 4.11706e-07)
(5.78068e-08 4.7269e-09 1.74704e-07 1.68629e-08 1.72611e-09 8.82666e-07)
(9.23e-08 7.7231e-09 2.57437e-07 1.74517e-08 3.18521e-08 1.5917e-06)
(2.06636e-07 -1.01074e-08 3.27799e-07 1.03721e-08 -1.56881e-08 2.12066e-06)
(1.92374e-07 -7.32461e-10 2.84208e-07 2.78083e-08 -8.71895e-08 3.57372e-06)
(9.07394e-08 3.38551e-09 6.24367e-08 5.11939e-09 -5.26529e-08 5.05382e-06)
(6.14418e-08 1.52744e-09 8.59349e-08 5.50449e-09 5.17768e-08 4.87346e-06)
(2.77667e-08 -9.62358e-10 3.24902e-09 3.75686e-09 -3.09573e-08 2.50415e-06)
(1.38556e-08 1.66052e-10 -4.17103e-08 1.56542e-08 5.30804e-08 5.82746e-07)
(1.80642e-08 2.765e-10 4.46003e-08 2.00638e-08 1.27868e-07 1.68874e-06)
(4.5709e-08 -4.30549e-10 1.02996e-07 2.05564e-08 1.67474e-07 2.81055e-06)
(1.53459e-07 -7.28984e-09 1.75081e-07 2.30382e-08 1.60103e-07 3.07609e-06)
(1.62395e-07 1.07255e-09 9.26359e-08 3.13372e-09 3.04826e-08 3.1753e-06)
(7.18099e-08 9.89487e-09 4.86999e-09 3.50432e-09 -3.70772e-08 2.96206e-06)
(4.81006e-08 1.51399e-08 -5.23271e-08 7.33129e-09 -5.4202e-08 2.31793e-06)
(2.91289e-08 1.57691e-08 -6.48839e-08 1.06865e-08 -4.82412e-08 1.34668e-06)
(3.99791e-08 1.00854e-08 6.08308e-08 1.34664e-08 -1.86855e-08 4.19469e-07)
(5.76676e-08 4.57797e-09 1.74893e-07 1.61361e-08 2.14672e-09 8.89583e-07)
(9.21534e-08 7.35726e-09 2.57021e-07 1.6705e-08 3.10734e-08 1.59117e-06)
(2.06351e-07 -9.78079e-09 3.21613e-07 9.77208e-09 -1.24041e-08 2.07535e-06)
(1.93133e-07 -4.41948e-10 2.8112e-07 2.59989e-08 -7.53604e-08 3.45985e-06)
(9.10023e-08 3.40926e-09 6.81366e-08 4.77837e-09 -4.73618e-08 4.94719e-06)
(6.24448e-08 1.88675e-09 9.18329e-08 5.16986e-09 5.14309e-08 4.81583e-06)
(2.89951e-08 -1.00559e-09 5.96873e-09 3.37772e-09 -2.78178e-08 2.47982e-06)
(1.38703e-08 -5.63732e-10 -4.49101e-08 1.47758e-08 5.42118e-08 6.08228e-07)
(1.74272e-08 -1.46927e-10 4.44145e-08 1.91927e-08 1.28701e-07 1.77007e-06)
(4.53608e-08 -4.54696e-10 1.07004e-07 1.98281e-08 1.68204e-07 2.92706e-06)
(1.56021e-07 -6.59283e-09 1.8416e-07 2.26415e-08 1.6191e-07 3.19013e-06)
(1.67154e-07 1.34215e-09 9.93102e-08 3.23731e-09 3.28404e-08 3.26578e-06)
(7.31272e-08 9.37791e-09 6.77936e-09 3.27073e-09 -3.56738e-08 3.03982e-06)
(4.86664e-08 1.46692e-08 -5.17768e-08 6.9197e-09 -5.25726e-08 2.38108e-06)
(2.84388e-08 1.52615e-08 -6.62504e-08 1.0125e-08 -4.64182e-08 1.39629e-06)
(3.93737e-08 9.81961e-09 5.98308e-08 1.29294e-08 -1.74469e-08 4.26965e-07)
(5.74017e-08 4.45791e-09 1.74395e-07 1.54199e-08 2.63844e-09 8.94664e-07)
(9.18455e-08 7.03642e-09 2.55788e-07 1.59732e-08 3.04219e-08 1.58851e-06)
(2.05923e-07 -9.43249e-09 3.14709e-07 9.19597e-09 -9.24619e-09 2.03149e-06)
(1.93628e-07 -1.39728e-10 2.76394e-07 2.43033e-08 -6.4562e-08 3.35114e-06)
(9.11859e-08 3.44954e-09 7.19947e-08 4.44893e-09 -4.22757e-08 4.84003e-06)
(6.33958e-08 2.21794e-09 9.61671e-08 4.85002e-09 5.11347e-08 4.75423e-06)
(3.02336e-08 -1.04356e-09 7.73154e-09 3.02735e-09 -2.46734e-08 2.4524e-06)
(1.39748e-08 -1.2558e-09 -4.83412e-08 1.39212e-08 5.52611e-08 6.34238e-07)
(1.6845e-08 -5.55645e-10 4.40052e-08 1.8315e-08 1.29286e-07 1.8512e-06)
(4.50366e-08 -4.86619e-10 1.10777e-07 1.90762e-08 1.68612e-07 3.0425e-06)
(1.58581e-07 -5.91008e-09 1.93129e-07 2.21823e-08 1.63426e-07 3.30322e-06)
(1.72053e-07 1.63381e-09 1.0624e-07 3.32106e-09 3.50387e-08 3.35509e-06)
(7.45801e-08 8.88291e-09 8.90049e-09 3.05388e-09 -3.42859e-08 3.11676e-06)
(4.93748e-08 1.42059e-08 -5.09618e-08 6.52594e-09 -5.09491e-08 2.44383e-06)
(2.78269e-08 1.47572e-08 -6.74818e-08 9.58563e-09 -4.46097e-08 1.44682e-06)
(3.87e-08 9.57559e-09 5.85493e-08 1.24013e-08 -1.61613e-08 4.34556e-07)
(5.70184e-08 4.36702e-09 1.73271e-07 1.47155e-08 3.18126e-09 8.98312e-07)
(9.13814e-08 6.75897e-09 2.53823e-07 1.52563e-08 2.98711e-08 1.58408e-06)
(2.05343e-07 -9.06501e-09 3.07203e-07 8.64322e-09 -6.22671e-09 1.98912e-06)
(1.93836e-07 1.70828e-10 2.70243e-07 2.2721e-08 -5.47677e-08 3.24831e-06)
(9.12763e-08 3.5044e-09 7.4222e-08 4.13183e-09 -3.74055e-08 4.73328e-06)
(6.42803e-08 2.52209e-09 9.90839e-08 4.54442e-09 5.08849e-08 4.6899e-06)
(3.14715e-08 -1.07894e-09 8.62305e-09 2.70516e-09 -2.15556e-08 2.423e-06)
(1.41681e-08 -1.90915e-09 -5.20012e-08 1.30935e-08 5.62117e-08 6.60461e-07)
(1.63163e-08 -9.4582e-10 4.33735e-08 1.74349e-08 1.29612e-07 1.93197e-06)