/*--------------------------------*- C++ -*----------------------------------*\
| =========                 |                                                 |
| \\      /  F ield         | OpenFOAM: The Open Source CFD Toolbox           |
|  \\    /   O peration     | Version:  v1912                                 |
|   \\  /    A nd           | Website:  www.openfoam.com                      |
|    \\/     M anipulation  |                                                 |
\*---------------------------------------------------------------------------*/
FoamFile
{
    version     2.0;
    format      ascii;
    class       surfaceScalarField;
    location    "9.2";
    object      phi;
}
// * * * * * * * * * * * * * * * * * * * * * * * * * * * * * * * * * * * * * //

dimensions      [1 0 -1 0 0 0 0];
oriented        oriented;


internalField   nonuniform List<scalar> 
97428
(
1.04458e-10
2.92277e-09
-1.59803e-07
5.21785e-10
2.85851e-09
-1.56589e-07
7.61861e-10
2.959e-09
-1.54031e-07
6.35951e-10
3.17784e-09
-1.55558e-07
4.19045e-10
3.25459e-09
-1.59504e-07
4.60103e-10
3.1225e-09
-1.63517e-07
6.52835e-10
3.01287e-09
-1.65864e-07
7.42139e-10
3.00102e-09
-1.64591e-07
6.95432e-10
2.96473e-09
-1.60231e-07
5.87421e-10
2.97399e-09
-1.55412e-07
6.96838e-10
2.92538e-09
-1.54288e-07
2.998e-09
-1.57068e-07
2.99411e-10
1.1356e-08
-5.06052e-07
1.55237e-09
1.10607e-08
-4.96353e-07
2.26709e-09
1.14639e-08
-4.88619e-07
1.89992e-09
1.22999e-08
-4.93201e-07
1.31216e-09
1.25354e-08
-5.05114e-07
1.50289e-09
1.20039e-08
-5.17248e-07
2.10078e-09
1.16298e-08
-5.24338e-07
2.34199e-09
1.16531e-08
-5.20496e-07
2.13613e-09
1.15811e-08
-5.07329e-07
1.77212e-09
1.16206e-08
-4.92812e-07
2.03958e-09
1.14597e-08
-4.89431e-07
1.1676e-08
-4.97777e-07
5.08093e-10
2.52633e-08
-8.84724e-07
2.60429e-09
2.45747e-08
-8.68428e-07
3.80147e-09
2.54863e-08
-8.55379e-07
3.2046e-09
2.73022e-08
-8.63013e-07
2.28891e-09
2.77179e-08
-8.83067e-07
2.67847e-09
2.65012e-08
-9.03548e-07
3.69149e-09
2.57416e-08
-9.15487e-07
4.05087e-09
2.58994e-08
-9.08992e-07
3.62853e-09
2.58516e-08
-8.86791e-07
2.96618e-09
2.59673e-08
-8.62406e-07
3.3644e-09
2.56407e-08
-8.56769e-07
2.60098e-08
-8.70791e-07
7.44455e-10
4.46468e-08
-1.29546e-06
3.69166e-09
4.34347e-08
-1.27252e-06
5.38817e-09
4.50642e-08
-1.25404e-06
4.57831e-09
4.81851e-08
-1.26466e-06
3.3667e-09
4.87445e-08
-1.29297e-06
3.98274e-09
4.65327e-08
-1.32199e-06
5.39892e-09
4.52836e-08
-1.33885e-06
5.82994e-09
4.57179e-08
-1.32961e-06
5.14193e-09
4.58096e-08
-1.29819e-06
4.14997e-09
4.60863e-08
-1.26385e-06
4.67888e-09
4.55401e-08
-1.25602e-06
4.60143e-08
-1.27582e-06
1.01206e-09
6.94703e-08
-1.73753e-06
4.82598e-09
6.76486e-08
-1.708e-06
7.05101e-09
7.02134e-08
-1.68399e-06
6.05071e-09
7.4926e-08
-1.69749e-06
4.56679e-09
7.55348e-08
-1.73408e-06
5.41532e-09
7.19897e-08
-1.7718e-06
7.1961e-09
7.01565e-08
-1.79361e-06
7.63758e-09
7.10444e-08
-1.78152e-06
6.64002e-09
7.14481e-08
-1.74074e-06
5.30629e-09
7.20127e-08
-1.69647e-06
5.989e-09
7.11913e-08
-1.68658e-06
7.16681e-08
-1.71224e-06
1.30691e-09
9.9663e-08
-2.20991e-06
6.01446e-09
9.71958e-08
-2.17393e-06
8.8139e-09
1.00926e-07
-2.14433e-06
7.65396e-09
1.07481e-07
-2.16052e-06
5.9133e-09
1.07989e-07
-2.20535e-06
6.97722e-09
1.02741e-07
-2.25184e-06
9.05477e-09
1.00231e-07
-2.27859e-06
9.42914e-09
1.0178e-07
-2.26353e-06
8.08434e-09
1.02725e-07
-2.21335e-06
6.41805e-09
1.03745e-07
-2.1593e-06
7.3006e-09
1.02588e-07
-2.14754e-06
1.02913e-07
-2.17913e-06
1.61803e-09
1.35128e-07
-2.71118e-06
7.25956e-09
1.32031e-07
-2.66899e-06
1.06991e-08
1.37172e-07
-2.63381e-06
9.42072e-09
1.4579e-07
-2.65245e-06
7.43193e-09
1.45994e-07
-2.70537e-06
8.67069e-09
1.3864e-07
-2.76064e-06
1.09465e-08
1.35359e-07
-2.79222e-06
1.11588e-08
1.37801e-07
-2.7741e-06
9.43597e-09
1.39573e-07
-2.71457e-06
7.46861e-09
1.41251e-07
-2.65102e-06
8.61847e-09
1.39686e-07
-2.63764e-06
1.39659e-07
-2.67518e-06
1.92828e-09
1.75752e-07
-3.23961e-06
8.55879e-09
1.72091e-07
-3.19158e-06
1.27256e-08
1.7891e-07
-3.15087e-06
1.13824e-08
1.89788e-07
-3.17167e-06
9.14838e-09
1.89435e-07
-3.23242e-06
1.04986e-08
1.79534e-07
-3.29636e-06
1.28434e-08
1.75382e-07
-3.33262e-06
1.27813e-08
1.78978e-07
-3.31133e-06
1.0657e-08
1.81913e-07
-3.24263e-06
8.44239e-09
1.84479e-07
-3.17001e-06
9.94592e-09
1.82415e-07
-3.15532e-06
1.8179e-07
-3.19879e-06
2.21544e-09
2.21418e-07
-3.79322e-06
9.90506e-09
2.17302e-07
-3.73984e-06
1.49088e-08
2.26091e-07
-3.69373e-06
1.35675e-08
2.39406e-07
-3.71635e-06
1.1087e-08
2.382e-07
-3.78455e-06
1.24636e-08
2.25274e-07
-3.85693e-06
1.47185e-08
2.20147e-07
-3.89765e-06
1.42535e-08
2.25182e-07
-3.87312e-06
1.17124e-08
2.29664e-07
-3.79554e-06
9.32562e-09
2.33362e-07
-3.71441e-06
1.12847e-08
2.30685e-07
-3.69874e-06
2.29176e-07
-3.74808e-06
2.4536e-09
2.72011e-07
-4.36998e-06
1.12874e-08
2.67584e-07
-4.31186e-06
1.72595e-08
2.78666e-07
-4.26054e-06
1.60008e-08
2.9458e-07
-4.2846e-06
1.32696e-08
2.92184e-07
-4.35974e-06
1.45676e-08
2.75719e-07
-4.44024e-06
1.65469e-08
2.69507e-07
-4.48511e-06
1.55359e-08
2.76299e-07
-4.4573e-06
1.25707e-08
2.8275e-07
-4.37129e-06
1.0107e-08
2.87834e-07
-4.28229e-06
1.26351e-08
2.84397e-07
-4.26599e-06
2.81683e-07
-4.3211e-06
2.61453e-09
3.27414e-07
-4.96799e-06
1.2692e-08
3.22847e-07
-4.90582e-06
1.97845e-08
3.36577e-07
-4.84957e-06
1.87029e-08
3.55245e-07
-4.87462e-06
1.57145e-08
3.5129e-07
-4.9561e-06
1.68113e-08
3.30737e-07
-5.04427e-06
1.83052e-08
3.23329e-07
-5.09295e-06
1.65935e-08
3.32224e-07
-5.06187e-06
1.32056e-08
3.411e-07
-4.968e-06
1.0778e-08
3.47821e-07
-4.87187e-06
1.39966e-08
3.43446e-07
-4.85526e-06
3.39176e-07
-4.916e-06
2.66902e-09
3.87506e-07
-5.58561e-06
1.41029e-08
3.82986e-07
-5.52019e-06
2.24867e-08
3.99754e-07
-5.45934e-06
2.16898e-08
4.21325e-07
-5.48489e-06
1.8436e-08
4.1542e-07
-5.57201e-06
1.9193e-08
3.90201e-07
-5.66731e-06
1.99719e-08
3.81484e-07
-5.71939e-06
1.73961e-08
3.9286e-07
-5.68513e-06
1.35957e-08
4.04637e-07
-5.58406e-06
1.13332e-08
4.13239e-07
-5.48158e-06
1.53674e-08
4.07721e-07
-5.465e-06
4.01516e-07
-5.53119e-06
2.58786e-09
4.52158e-07
-6.22171e-06
1.55037e-08
4.47876e-07
-6.15392e-06
2.53665e-08
4.68111e-07
-6.08886e-06
2.49735e-08
4.92734e-07
-6.11435e-06
2.14446e-08
4.8447e-07
-6.20634e-06
2.17093e-08
4.53982e-07
-6.30816e-06
2.1527e-08
4.43846e-07
-6.36321e-06
1.79179e-08
4.58106e-07
-6.3259e-06
1.37245e-08
4.73275e-07
-6.21837e-06
1.17702e-08
4.83996e-07
-6.11037e-06
1.6746e-08
4.77107e-07
-6.09414e-06
4.68569e-07
-6.16561e-06
2.34272e-09
5.21184e-07
-6.87568e-06
1.68779e-08
5.17329e-07
-6.80648e-06
2.84219e-08
5.41489e-07
-6.73764e-06
2.85627e-08
5.69322e-07
-6.76245e-06
2.47463e-08
5.58289e-07
-6.85843e-06
2.43533e-08
5.21914e-07
-6.96608e-06
2.29514e-08
5.10253e-07
-7.02362e-06
1.81373e-08
5.27823e-07
-6.98348e-06
1.35799e-08
5.46875e-07
-6.87036e-06
1.20891e-08
5.59941e-07
-6.7577e-06
1.81304e-08
5.51441e-07
-6.74215e-06
5.40159e-07
-6.81868e-06
1.90704e-09
5.94355e-07
-7.54686e-06
1.82081e-08
5.91081e-07
-7.47727e-06
3.16466e-08
6.19643e-07
-7.40516e-06
3.2459e-08
6.5087e-07
-7.42862e-06
2.83394e-08
6.36682e-07
-7.52765e-06
2.71124e-08
5.93807e-07
-7.64032e-06
2.42247e-08
5.80532e-07
-7.69984e-06
1.80359e-08
6.01845e-07
-7.65716e-06
1.31534e-08
6.25242e-07
-7.5394e-06
1.22922e-08
6.40855e-07
-7.42303e-06
1.95173e-08
6.305e-07
-7.40846e-06
6.16055e-07
-7.4898e-06
1.25713e-09
6.71431e-07
-8.2345e-06
1.94769e-08
6.68842e-07
-8.16559e-06
3.50285e-08
7.02286e-07
-8.09075e-06
3.66557e-08
7.37134e-07
-8.11214e-06
3.22131e-08
7.19454e-07
-8.2132e-06
2.99664e-08
6.69487e-07
-8.33005e-06
2.5325e-08
6.54531e-07
-8.39102e-06
1.75988e-08
6.80017e-07
-8.34614e-06
1.24411e-08
7.08174e-07
-8.22478e-06
1.23834e-08
7.26499e-07
-8.10565e-06
2.09023e-08
7.14048e-07
-8.0924e-06
6.96023e-07
-8.17821e-06
3.73046e-10
7.52177e-07
-8.93798e-06
2.06675e-08
7.50301e-07
-8.87081e-06
3.85519e-08
7.89091e-07
-8.79377e-06
4.1139e-08
8.27854e-07
-8.81237e-06
3.63478e-08
8.06415e-07
-8.91446e-06
3.28885e-08
7.48805e-07
-9.03459e-06
2.62291e-08
7.32132e-07
-9.09646e-06
1.68149e-08
7.62201e-07
-9.04977e-06
1.1443e-08
7.95459e-07
-8.92588e-06
1.23688e-08
8.16618e-07
-8.80497e-06
2.22799e-08
8.01837e-07
-8.79333e-06
7.79828e-07
-8.88324e-06
-7.6078e-10
8.36361e-07
-9.65677e-06
2.17647e-08
8.35127e-07
-9.59238e-06
4.21967e-08
8.79699e-07
-9.51368e-06
4.58869e-08
9.22754e-07
-9.52877e-06
4.07139e-08
8.97387e-07
-9.63085e-06
3.58438e-08
8.31638e-07
-9.75335e-06
2.69128e-08
8.13251e-07
-9.81559e-06
1.5677e-08
8.48279e-07
-9.76752e-06
1.01632e-08
8.86886e-07
-9.64219e-06
1.22558e-08
9.1094e-07
-9.52048e-06
2.36442e-08
8.9361e-07
-9.51074e-06
8.67237e-07
-9.60429e-06
-2.15227e-09
9.23753e-07
-1.03904e-05
2.2755e-08
9.22977e-07
-1.03298e-05
4.59387e-08
9.73719e-07
-1.02499e-05
5.08688e-08
1.02155e-06
-1.02608e-05
4.52714e-08
9.92201e-07
-1.03619e-05
3.87895e-08
9.17886e-07
-1.04859e-05
2.73502e-08
8.97837e-07
-1.05479e-05
1.4182e-08
9.38153e-07
-1.04989e-05
8.60978e-09
9.82243e-07
-1.03733e-05
1.20532e-08
1.00918e-06
-1.02517e-05
2.49884e-08
9.89097e-07
-1.02441e-05
9.58024e-07
-1.03408e-05
-3.80649e-09
1.01412e-06
-1.11385e-05
2.36273e-08
1.01349e-06
-1.10827e-05
4.97498e-08
1.07073e-06
-1.1002e-05
5.6045e-08
1.12395e-06
-1.10081e-05
4.99685e-08
1.0907e-06
-1.11072e-05
4.1674e-08
1.00747e-06
-1.12317e-05
2.75142e-08
9.85859e-07
-1.12931e-05
1.2331e-08
1.03174e-06
-1.12436e-05
6.79485e-09
1.08132e-06
-1.11187e-05
1.17705e-08
1.11105e-06
-1.09982e-05
2.63049e-08
1.08802e-06
-1.0993e-05
1.05196e-06
-1.10922e-05
-5.7189e-09
1.10724e-06
-1.19006e-05
2.43734e-08
1.10628e-06
-1.18504e-05
5.35972e-08
1.17029e-06
-1.17694e-05
6.13655e-08
1.22966e-06
-1.17701e-05
5.47417e-08
1.19274e-06
-1.18662e-05
4.44369e-08
1.10034e-06
-1.19903e-05
2.7377e-08
1.0773e-06
-1.20507e-05
1.01302e-08
1.12895e-06
-1.20012e-05
4.73442e-09
1.18389e-06
-1.1878e-05
1.14174e-08
1.21623e-06
-1.17595e-05
2.75851e-08
1.19007e-06
-1.17569e-05
1.14883e-06
-1.18579e-05
-7.87747e-09
1.20285e-06
-1.26763e-05
2.49877e-08
1.20094e-06
-1.26325e-05
5.74435e-08
1.27193e-06
-1.25516e-05
6.677e-08
1.33838e-06
-1.25464e-05
5.9515e-08
1.29817e-06
-1.26385e-05
4.70097e-08
1.19642e-06
-1.27613e-05
2.69103e-08
1.17215e-06
-1.28202e-05
7.59057e-09
1.2297e-06
-1.27712e-05
2.44846e-09
1.28974e-06
-1.26509e-05
1.10034e-08
1.32439e-06
-1.25352e-05
2.88193e-08
1.29494e-06
-1.25352e-05
1.24842e-06
-1.26372e-05
-1.02617e-08
1.30068e-06
-1.34651e-05
2.54682e-08
1.29704e-06
-1.34283e-05
6.12472e-08
1.37518e-06
-1.33477e-05
7.21872e-08
1.44979e-06
-1.33363e-05
6.42001e-08
1.40684e-06
-1.34236e-05
4.93165e-08
1.29565e-06
-1.35442e-05
2.6087e-08
1.27037e-06
-1.36013e-05
4.72928e-09
1.33388e-06
-1.35532e-05
-3.92593e-11
1.3986e-06
-1.34368e-05
1.05372e-08
1.43517e-06
-1.33247e-05
2.99964e-08
1.40229e-06
-1.33274e-05
1.35051e-06
-1.34294e-05
-1.28423e-08
1.40042e-06
-1.42664e-05
2.58163e-08
1.39412e-06
-1.42371e-05
6.49619e-08
1.47952e-06
-1.4157e-05
7.7535e-08
1.56357e-06
-1.41391e-05
6.86975e-08
1.51861e-06
-1.42207e-05
5.12759e-08
1.39796e-06
-1.43382e-05
2.48823e-08
1.37192e-06
-1.43932e-05
1.56965e-09
1.44135e-06
-1.43467e-05
-2.70055e-09
1.51019e-06
-1.4235e-05
1.00259e-08
1.54821e-06
-1.41272e-05
3.11038e-08
1.51176e-06
-1.41324e-05
1.45489e-06
-1.42335e-05
-1.55812e-08
1.50172e-06
-1.50792e-05
2.60369e-08
1.49169e-06
-1.50578e-05
6.85379e-08
1.58446e-06
-1.49785e-05
8.27216e-08
1.67938e-06
-1.49539e-05
7.28986e-08
1.63329e-06
-1.5029e-05
5.28033e-08
1.50325e-06
-1.51427e-05
2.3275e-08
1.47668e-06
-1.51953e-05
-1.85773e-09
1.55192e-06
-1.51508e-05
-5.50461e-09
1.6242e-06
-1.50448e-05
9.47458e-09
1.66308e-06
-1.49419e-05
3.21266e-08
1.62297e-06
-1.49495e-05
1.56136e-06
-1.50486e-05
-1.84326e-08
1.60418e-06
-1.59026e-05
2.61382e-08
1.58921e-06
-1.58893e-05
7.19222e-08
1.68945e-06
-1.5811e-05
8.7647e-08
1.79688e-06
-1.57797e-05
7.6688e-08
1.75071e-06
-1.58476e-05
5.38144e-08
1.61139e-06
-1.59566e-05
2.125e-08
1.58451e-06
-1.60067e-05
-5.51804e-09
1.66533e-06
-1.59647e-05
-8.41724e-09
1.74024e-06
-1.58652e-05
8.88529e-09
1.77934e-06
-1.57678e-05
3.30483e-08
1.73552e-06
-1.57776e-05
1.66969e-06
-1.58735e-05
-2.13434e-08
1.70734e-06
-1.67355e-05
2.61316e-08
1.68614e-06
-1.67303e-05
7.50604e-08
1.79396e-06
-1.66532e-05
9.22054e-08
1.91569e-06
-1.66153e-05
7.99475e-08
1.87065e-06
-1.66753e-05
5.42289e-08
1.72221e-06
-1.67788e-05
1.87996e-08
1.69519e-06
-1.68264e-05
-9.36626e-09
1.78125e-06
-1.67875e-05
-1.1402e-08
1.85788e-06
-1.66951e-05
8.25684e-09
1.8965e-06
-1.66036e-05
3.385e-08
1.84896e-06
-1.66152e-05
1.77967e-06
-1.67069e-05
-2.42558e-08
1.81067e-06
-1.75767e-05
2.60309e-08
1.78186e-06
-1.75793e-05
7.78981e-08
1.89743e-06
-1.75037e-05
9.62885e-08
2.03543e-06
-1.74593e-05
8.25611e-08
1.99286e-06
-1.75109e-05
5.39751e-08
1.83547e-06
-1.76084e-05
1.59256e-08
1.8084e-06
-1.76534e-05
-1.33538e-08
1.89927e-06
-1.76179e-05
-1.44211e-08
1.97662e-06
-1.75332e-05
7.58439e-09
2.014e-06
-1.74481e-05
3.45112e-08
1.96281e-06
-1.74612e-05
1.89104e-06
-1.75475e-05
-2.7109e-08
1.91357e-06
-1.84247e-05
2.58522e-08
1.87574e-06
-1.84349e-05
8.03826e-08
1.99928e-06
-1.83609e-05
9.97893e-08
2.15565e-06
-1.83104e-05
8.44187e-08
2.11703e-06
-1.83532e-05
5.29934e-08
1.95085e-06
-1.8444e-05
1.26405e-08
1.92373e-06
-1.84865e-05
-1.74266e-08
2.01886e-06
-1.84549e-05
-1.74368e-08
2.09588e-06
-1.83783e-05
6.85934e-09
2.13127e-06
-1.82998e-05
3.50096e-08
2.07654e-06
-1.8314e-05
2.00346e-06
-1.83938e-05
-2.98414e-08
2.01534e-06
-1.92783e-05
2.56126e-08
1.96708e-06
-1.92956e-05
8.24646e-08
2.09889e-06
-1.92235e-05
1.02605e-07
2.2759e-06
-1.91672e-05
8.54219e-08
2.24279e-06
-1.92009e-05
5.12405e-08
2.06794e-06
-1.92845e-05
8.96835e-09
2.04065e-06
-1.93246e-05
-2.1527e-08
2.13939e-06
-1.92971e-05
-2.04122e-08
2.21498e-06
-1.92289e-05
6.06966e-09
2.2476e-06
-1.91574e-05
3.53222e-08
2.18952e-06
-1.91724e-05
2.11653e-06
-1.92447e-05
-3.23928e-08
2.11516e-06
-2.01361e-05
2.53299e-08
2.05507e-06
-2.01601e-05
8.40995e-08
2.19555e-06
-2.00899e-05
1.04642e-07
2.39563e-06
-2.00283e-05
8.54866e-08
2.36967e-06
-2.00526e-05
4.86915e-08
2.18621e-06
-2.01288e-05
4.94551e-09
2.15847e-06
-2.01665e-05
-2.55945e-08
2.26008e-06
-2.01435e-05
-2.33117e-08
2.33314e-06
-2.00838e-05
5.20064e-09
2.36224e-06
-2.00194e-05
3.54259e-08
2.30101e-06
-2.0035e-05
2.22966e-06
-2.00988e-05
-3.47049e-08
2.21213e-06
-2.09968e-05
2.50217e-08
2.13883e-06
-2.10267e-05
8.52477e-08
2.28848e-06
-2.09588e-05
1.05816e-07
2.5142e-06
-2.08924e-05
8.45473e-08
2.49707e-06
-2.09072e-05
4.53435e-08
2.30497e-06
-2.09755e-05
6.21618e-10
2.27638e-06
-2.10111e-05
-2.9566e-08
2.38002e-06
-2.09927e-05
-2.61012e-08
2.44945e-06
-2.09416e-05
4.23646e-09
2.47426e-06
-2.08845e-05
3.52988e-08
2.41012e-06
-2.09003e-05
2.34211e-06
-2.09548e-05
-3.67233e-08
2.30521e-06
-2.18587e-05
2.47054e-08
2.21736e-06
-2.18938e-05
8.58766e-08
2.37684e-06
-2.18283e-05
1.06054e-07
2.6309e-06
-2.17579e-05
8.25612e-08
2.62432e-06
-2.17633e-05
4.12177e-08
2.42345e-06
-2.18234e-05
-3.9375e-09
2.39342e-06
-2.18571e-05
-3.33755e-08
2.49818e-06
-2.18434e-05
-2.87467e-08
2.56289e-06
-2.18008e-05
3.16218e-09
2.58266e-06
-2.1751e-05
3.49224e-08
2.51582e-06
-2.17669e-05
2.45303e-06
-2.18112e-05
-3.8399e-08
2.39332e-06
-2.27201e-05
2.4397e-08
2.28968e-06
-2.27595e-05
8.59616e-08
2.45974e-06
-2.26966e-05
1.05306e-07
2.74496e-06
-2.26232e-05
7.95113e-08
2.75064e-06
-2.26193e-05
3.63614e-08
2.54075e-06
-2.26712e-05
-8.66178e-09
2.50853e-06
-2.27032e-05
-3.69557e-08
2.6134e-06
-2.26941e-05
-3.12155e-08
2.67234e-06
-2.26597e-05
1.96579e-09
2.68631e-06
-2.26172e-05
3.42835e-08
2.61701e-06
-2.26328e-05
2.56143e-06
-2.26666e-05
-3.96909e-08
2.47534e-06
-2.35793e-05
2.41102e-08
2.35477e-06
-2.36219e-05
8.5488e-08
2.53632e-06
-2.35618e-05
1.03537e-07
2.85559e-06
-2.34864e-05
7.54091e-08
2.87518e-06
-2.34738e-05
3.08477e-08
2.65586e-06
-2.35174e-05
-1.34545e-08
2.62054e-06
-2.35479e-05
-4.0239e-08
2.72445e-06
-2.35433e-05
-3.34756e-08
2.77663e-06
-2.35165e-05
6.40797e-10
2.78406e-06
-2.34812e-05
3.33763e-08
2.71251e-06
-2.34964e-05
2.66624e-06
-2.35194e-05
-4.05673e-08
2.55015e-06
-2.44345e-05
2.38555e-08
2.41166e-06
-2.44792e-05
8.44508e-08
2.60577e-06
-2.44222e-05
1.00737e-07
2.96199e-06
-2.43458e-05
7.02957e-08
2.99701e-06
-2.43252e-05
2.47747e-08
2.76769e-06
-2.43606e-05
-1.82173e-08
2.72816e-06
-2.43899e-05
-4.31591e-08
2.83003e-06
-2.43894e-05
-3.5496e-08
2.87454e-06
-2.43696e-05
-8.11469e-10
2.87473e-06
-2.43412e-05
3.22054e-08
2.8011e-06
-2.43558e-05
2.76629e-06
-2.43681e-05
-4.10071e-08
2.61664e-06
-2.52838e-05
2.36391e-08
2.45945e-06
-2.53296e-05
8.28552e-08
2.66734e-06
-2.52758e-05
9.69228e-08
3.06336e-06
-2.51997e-05
6.42425e-08
3.11515e-06
-2.51719e-05
1.82631e-08
2.87506e-06
-2.51993e-05
-2.28422e-08
2.83008e-06
-2.52275e-05
-4.56518e-08
2.92881e-06
-2.52309e-05
-3.72462e-08
2.96486e-06
-2.52172e-05
-2.38622e-09
2.95713e-06
-2.51952e-05
3.07878e-08
2.88154e-06
-2.52092e-05
2.86036e-06
-2.52112e-05
-4.10017e-08
2.67379e-06
-2.61254e-05
2.3461e-08
2.49735e-06
-2.61713e-05
8.07158e-08
2.7204e-06
-2.61209e-05
9.21332e-08
3.15894e-06
-2.60464e-05
5.735e-08
3.22859e-06
-2.60124e-05
1.14534e-08
2.97674e-06
-2.60321e-05
-2.72156e-08
2.92489e-06
-2.60593e-05
-4.7657e-08
3.01944e-06
-2.6066e-05
-3.86959e-08
3.04642e-06
-2.60575e-05
-4.05362e-09
3.03014e-06
-2.60414e-05
2.91545e-08
2.95262e-06
-2.60548e-05
2.94722e-06
-2.60472e-05
-4.05563e-08
2.7207e-06
-2.69578e-05
2.33143e-08
2.52472e-06
-2.70027e-05
7.80552e-08
2.76443e-06
-2.6956e-05
8.64338e-08
3.24802e-06
-2.68844e-05
4.97457e-08
3.33626e-06
-2.68453e-05
4.50076e-09
3.07146e-06
-2.68577e-05
-3.12228e-08
3.01122e-06
-2.6884e-05
-4.91197e-08
3.10061e-06
-2.68933e-05
-3.98151e-08
3.11812e-06
-2.6889e-05
-5.77942e-09
3.09272e-06
-2.68782e-05
2.73512e-08
3.01323e-06
-2.6891e-05
3.02563e-06
-2.68748e-05
-3.96904e-08
2.75662e-06
-2.77793e-05
2.31826e-08
2.54112e-06
-2.78224e-05
7.49021e-08
2.79912e-06
-2.77795e-05
7.9913e-08
3.32998e-06
-2.77122e-05
4.15805e-08
3.43714e-06
-2.76692e-05
-2.42593e-09
3.15794e-06
-2.76747e-05
-3.4752e-08
3.08769e-06
-2.77001e-05
-4.99914e-08
3.1711e-06
-2.77114e-05
-4.05738e-08
3.17897e-06
-2.77101e-05
-7.51389e-09
3.14396e-06
-2.7704e-05
2.54383e-08
3.06235e-06
-2.77163e-05
3.0944e-06
-2.76927e-05
-3.84396e-08
2.781e-06
-2.85886e-05
2.30393e-08
2.54632e-06
-2.86293e-05
7.12886e-08
2.82434e-06
-2.85905e-05
7.26805e-08
3.40426e-06
-2.85287e-05
3.30244e-08
3.53021e-06
-2.8483e-05
-9.16703e-09
3.23495e-06
-2.84821e-05
-3.76979e-08
3.15299e-06
-2.85064e-05
-5.02317e-08
3.22978e-06
-2.8519e-05
-4.09426e-08
3.22816e-06
-2.85197e-05
-9.1947e-09
3.18313e-06
-2.85175e-05
2.34885e-08
3.09912e-06
-2.85293e-05
3.15243e-06
-2.84998e-05
-3.68556e-08
2.79354e-06
-2.93849e-05
2.28469e-08
2.54036e-06
-2.94225e-05
6.72493e-08
2.84015e-06
-2.93881e-05
6.48625e-08
3.47042e-06
-2.93328e-05
2.42595e-08
3.61448e-06
-2.92858e-05
-1.55532e-08
3.30128e-06
-2.92789e-05
-3.99656e-08
3.20593e-06
-2.9302e-05
-4.98088e-08
3.27569e-06
-2.93152e-05
-4.08928e-08
3.26505e-06
-2.93168e-05
-1.07498e-08
3.20969e-06
-2.93178e-05
2.15827e-08
3.12289e-06
-2.93292e-05
3.19875e-06
-2.92954e-05
-3.50069e-08
2.7942e-06
-3.01674e-05
2.25569e-08
2.52349e-06
-3.02017e-05
6.28188e-08
2.8468e-06
-3.01718e-05
5.65976e-08
3.52814e-06
-3.01241e-05
1.5474e-08
3.68905e-06
-3.00768e-05
-2.14243e-08
3.35585e-06
-3.00644e-05
-4.14746e-08
3.24545e-06
-3.00862e-05
-4.87011e-08
3.30807e-06
-3.00992e-05
-4.03974e-08
3.28923e-06
-3.01008e-05
-1.21009e-08
3.22334e-06
-3.01042e-05
1.98054e-08
3.13323e-06
-3.01153e-05
3.23256e-06
-3.00787e-05
-3.29771e-08
2.78319e-06
-3.09359e-05
2.21096e-08
2.49621e-06
-3.09669e-05
5.80292e-08
2.84472e-06
-3.09417e-05
4.8032e-08
3.57719e-06
-3.09022e-05
6.85599e-09
3.75311e-06
-3.08557e-05
-2.66379e-08
3.39769e-06
-3.08382e-05
-4.21623e-08
3.27068e-06
-3.08583e-05
-4.68984e-08
3.32639e-06
-3.08706e-05
-3.94329e-08
3.30055e-06
-3.08714e-05
-1.31686e-08
3.22403e-06
-3.08765e-05
1.82399e-08
3.12995e-06
-3.08873e-05
3.25322e-06
-3.08496e-05
-3.08628e-08
2.76099e-06
-3.16907e-05
2.14366e-08
2.45923e-06
-3.17183e-05
5.29082e-08
2.83445e-06
-3.16981e-05
3.93147e-08
3.6174e-06
-3.16673e-05
-1.41277e-09
3.80594e-06
-3.16224e-05
-3.10745e-08
3.426e-06
-3.16002e-05
-4.19872e-08
3.28096e-06
-3.16184e-05
-4.44033e-08
3.33033e-06
-3.16294e-05
-3.79805e-08
3.29906e-06
-3.16287e-05
-1.38772e-08
3.21192e-06
-3.16349e-05
1.69619e-08
3.11312e-06
-3.16455e-05
3.26033e-06
-3.1608e-05
-2.87707e-08
2.72828e-06
-3.24323e-05
2.04638e-08
2.41338e-06
-3.24567e-05
4.74804e-08
2.81662e-06
-3.24417e-05
3.05927e-08
3.6487e-06
-3.24198e-05
-9.16192e-09
3.84694e-06
-3.23771e-05
-3.46317e-08
3.44015e-06
-3.23506e-05
-4.09312e-08
3.27585e-06
-3.23666e-05
-4.12322e-08
3.31984e-06
-3.2376e-05
-3.60288e-08
3.28503e-06
-3.23732e-05
-1.4161e-08
3.1874e-06
-3.23799e-05
1.60324e-08
3.08302e-06
-3.23902e-05
3.25371e-06
-3.23543e-05
-2.68137e-08
2.68593e-06
-3.31616e-05
1.9117e-08
2.35962e-06
-3.31832e-05
4.1769e-08
2.79187e-06
-3.31734e-05
2.20075e-08
3.67103e-06
-3.31604e-05
-1.62384e-08
3.87562e-06
-3.31203e-05
-3.72391e-08
3.43972e-06
-3.30898e-05
-3.9003e-08
3.25517e-06
-3.31034e-05
-3.74181e-08
3.29507e-06
-3.31108e-05
-3.35762e-08
3.2589e-06
-3.31059e-05
-1.39701e-08
3.15101e-06
-3.31124e-05
1.54929e-08
3.04014e-06
-3.31225e-05
3.2334e-06
-3.30892e-05
-2.51029e-08
2.63494e-06
-3.38799e-05
1.73298e-08
2.29898e-06
-3.3899e-05
3.58003e-08
2.76085e-06
-3.38945e-05
1.36927e-08
3.68435e-06
-3.38901e-05
-2.2512e-08
3.8916e-06
-3.38529e-05
-3.88569e-08
3.42453e-06
-3.38186e-05
-3.62412e-08
3.21901e-06
-3.38296e-05
-3.30137e-08
3.25642e-06
-3.3835e-05
-3.06351e-08
3.22126e-06
-3.38276e-05
-1.32754e-08
3.10338e-06
-3.38336e-05
1.53611e-08
2.98514e-06
-3.38434e-05
3.19971e-06
-3.38136e-05
-2.37369e-08
2.57654e-06
-3.4589e-05
1.50551e-08
2.23269e-06
-3.4606e-05
2.96104e-08
2.72434e-06
-3.46067e-05
5.77248e-09
3.68872e-06
-3.46103e-05
-2.78777e-08
3.89476e-06
-3.4576e-05
-3.94806e-08
3.39469e-06
-3.45382e-05
-3.27164e-08
3.1678e-06
-3.45464e-05
-2.80938e-08
3.20455e-06
-3.45499e-05
-2.72347e-08
3.17296e-06
-3.45402e-05
-1.20713e-08
3.04559e-06
-3.45455e-05
1.56305e-08
2.91908e-06
-3.45547e-05
3.15324e-06
-3.45288e-05
-2.27926e-08
2.51219e-06
-3.52912e-05
1.22695e-08
2.16214e-06
-3.53067e-05
2.32465e-08
2.68334e-06
-3.53123e-05
-1.64984e-09
3.68458e-06
-3.5323e-05
-3.22721e-08
3.88541e-06
-3.52913e-05
-3.9143e-08
3.35084e-06
-3.52505e-05
-2.85244e-08
3.1025e-06
-3.52559e-05
-2.27509e-08
3.14061e-06
-3.52574e-05
-2.34235e-08
3.11531e-06
-3.52458e-05
-1.03781e-08
2.97911e-06
-3.52501e-05
1.62733e-08
2.84344e-06
-3.52588e-05
3.09503e-06
-3.52368e-05
-2.23287e-08
2.44326e-06
-3.59892e-05
8.96646e-09
2.08851e-06
-3.60037e-05
1.67449e-08
2.63864e-06
-3.60136e-05
-8.51069e-09
3.67235e-06
-3.60305e-05
-3.56923e-08
3.86401e-06
-3.60013e-05
-3.79109e-08
3.29381e-06
-3.59576e-05
-2.37612e-08
3.02424e-06
-3.59604e-05
-1.70609e-08
3.06583e-06
-3.59602e-05
-1.92429e-08
3.04956e-06
-3.59468e-05
-8.22962e-09
2.90531e-06
-3.59501e-05
1.72488e-08
2.75967e-06
-3.59581e-05
3.02625e-06
-3.59401e-05
-2.23845e-08
2.37094e-06
-3.66856e-05
5.15497e-09
2.01277e-06
-3.66993e-05
1.01382e-08
2.59078e-06
-3.67132e-05
-1.4793e-08
3.65228e-06
-3.67352e-05
-3.8165e-08
3.83094e-06
-3.67079e-05
-3.58689e-08
3.22443e-06
-3.66619e-05
-1.853e-08
2.93417e-06
-3.6662e-05
-1.10978e-08
2.98145e-06
-3.66606e-05
-1.47326e-08
2.97684e-06
-3.66457e-05
-5.66892e-09
2.82535e-06
-3.66479e-05
1.85046e-08
2.66906e-06
-3.66552e-05
2.94808e-06
-3.66409e-05
-2.29745e-08
2.29629e-06
-3.73826e-05
8.67333e-10
1.93578e-06
-3.73958e-05
3.47794e-09
2.54017e-06
-3.74131e-05
-2.04713e-08
3.62464e-06
-3.74391e-05
-3.97272e-08
3.78674e-06
-3.74133e-05
-3.31157e-08
3.14369e-06
-3.73653e-05
-1.29499e-08
2.83357e-06
-3.73631e-05
-4.95502e-09
2.8887e-06
-3.73606e-05
-9.9528e-09
2.89823e-06
-3.73448e-05
-2.75482e-09
2.74035e-06
-3.73459e-05
1.99798e-08
2.5729e-06
-3.73523e-05
2.86176e-06
-3.73414e-05
-2.40922e-08
2.22017e-06
-3.80823e-05
-3.84775e-09
1.85821e-06
-3.80952e-05
-3.19881e-09
2.48716e-06
-3.81155e-05
-2.55381e-08
3.58965e-06
-3.81445e-05
-4.04389e-08
3.73199e-06
-3.81197e-05
-2.97574e-08
3.05261e-06
-3.807e-05
-7.13462e-09
2.72374e-06
-3.80657e-05
1.28393e-09
2.78879e-06
-3.80626e-05
-4.96498e-09
2.8147e-06
-3.80461e-05
4.49055e-10
2.65134e-06
-3.80462e-05
2.16152e-08
2.47239e-06
-3.80517e-05
2.7685e-06
-3.80436e-05
-2.57132e-08
2.14326e-06
-3.87867e-05
-8.92951e-09
1.7806e-06
-3.87995e-05
-9.82774e-09
2.43195e-06
-3.88222e-05
-3.00005e-08
3.54754e-06
-3.88533e-05
-4.03733e-08
3.6673e-06
-3.8829e-05
-2.5901e-08
2.95228e-06
-3.8778e-05
-1.17992e-09
2.60593e-06
-3.87719e-05
7.52949e-09
2.68286e-06
-3.87684e-05
1.65001e-10
2.72711e-06
-3.87517e-05
3.88292e-09
2.55919e-06
-3.87508e-05
2.33574e-08
2.36861e-06
-3.87553e-05
2.66945e-06
-3.87495e-05
-2.78002e-08
2.06605e-06
-3.94974e-05
-1.43107e-08
1.7033e-06
-3.95102e-05
-1.63623e-08
2.37467e-06
-3.95349e-05
-3.38751e-08
3.4985e-06
-3.95671e-05
-3.96097e-08
3.59329e-06
-3.9543e-05
-2.16472e-08
2.8437e-06
-3.94911e-05
4.79606e-09
2.48136e-06
-3.94834e-05
1.3724e-08
2.57189e-06
-3.94799e-05
5.3975e-09
2.63619e-06
-3.94632e-05
7.48595e-09
2.46466e-06
-3.94614e-05
2.51604e-08
2.26247e-06
-3.94649e-05
2.56565e-06
-3.9461e-05
-3.03087e-08
1.98887e-06
-4.0216e-05
-1.99224e-08
1.62657e-06
-4.02289e-05
-2.27557e-08
2.31534e-06
-4.0255e-05
-3.71847e-08
3.44269e-06
-4.02877e-05
-3.82275e-08
3.51056e-06
-4.02634e-05
-1.70859e-08
2.72786e-06
-4.0211e-05
1.07474e-08
2.35112e-06
-4.0202e-05
1.98106e-08
2.45674e-06
-4.01986e-05
1.06698e-08
2.54251e-06
-4.01822e-05
1.12063e-08
2.36838e-06
-4.01796e-05
2.69877e-08
2.15477e-06
-4.01821e-05
2.45802e-06
-4.01795e-05
-3.31912e-08
1.91187e-06
-4.09438e-05
-2.56972e-08
1.5505e-06
-4.09566e-05
-2.89647e-08
2.25395e-06
-4.09837e-05
-3.99543e-08
3.38024e-06
-4.10163e-05
-3.6301e-08
3.41967e-06
-4.09917e-05
-1.22928e-08
2.60565e-06
-4.0939e-05
1.66126e-08
2.21619e-06
-4.09289e-05
2.57499e-08
2.33815e-06
-4.09258e-05
1.59414e-08
2.44652e-06
-4.09099e-05
1.5e-08
2.27081e-06
-4.09066e-05
2.88116e-08
2.04614e-06
-4.09081e-05
2.34736e-06
-4.09065e-05
-3.63999e-08
1.83508e-06
-4.16817e-05
-3.15704e-08
1.47511e-06
-4.16946e-05
-3.49486e-08
2.19042e-06
-4.17223e-05
-4.22079e-08
3.31125e-06
-4.17543e-05
-3.38964e-08
3.32113e-06
-4.17292e-05
-7.32901e-09
2.47786e-06
-4.16763e-05
2.23536e-08
2.07739e-06
-4.16653e-05
3.1516e-08
2.21671e-06
-4.16627e-05
2.11807e-08
2.34858e-06
-4.16475e-05
1.88305e-08
2.17233e-06
-4.16435e-05
3.06123e-08
1.93707e-06
-4.1644e-05
2.2343e-06
-4.16431e-05
-3.98883e-08
1.75842e-06
-4.24306e-05
-3.748e-08
1.40029e-06
-4.24435e-05
-4.06683e-08
2.12461e-06
-4.24715e-05
-4.39652e-08
3.23581e-06
-4.25025e-05
-3.10699e-08
3.21542e-06
-4.24768e-05
-2.2414e-09
2.34519e-06
-4.2424e-05
2.79467e-08
1.93545e-06
-4.24123e-05
3.70929e-08
2.09291e-06
-4.24102e-05
2.63612e-08
2.24892e-06
-4.23958e-05
2.26677e-08
2.0732e-06
-4.23913e-05
3.23752e-08
1.82796e-06
-4.23909e-05
2.11936e-06
-4.23903e-05
-4.36102e-08
1.6817e-06
-4.31914e-05
-4.33656e-08
1.3259e-06
-4.32042e-05
-4.60837e-08
2.05636e-06
-4.32321e-05
-4.52398e-08
3.15397e-06
-4.32619e-05
-2.78673e-08
3.10293e-06
-4.32356e-05
2.93965e-09
2.20826e-06
-4.3183e-05
3.3378e-08
1.79097e-06
-4.31708e-05
4.24708e-08
1.96711e-06
-4.31692e-05
3.14606e-08
2.14771e-06
-4.31557e-05
2.64858e-08
1.97363e-06
-4.31507e-05
3.40892e-08
1.71908e-06
-4.31494e-05
2.00294e-06
-4.31489e-05
-4.75181e-08
1.60467e-06
-4.39647e-05
-4.91658e-08
1.25168e-06
-4.39772e-05
-5.11519e-08
1.98548e-06
-4.40048e-05
-4.60383e-08
3.06579e-06
-4.40332e-05
-2.4325e-08
2.98406e-06
-4.40062e-05
8.16634e-09
2.0676e-06
-4.3954e-05
3.86391e-08
1.64444e-06
-4.39413e-05
4.76433e-08
1.83959e-06
-4.39404e-05
3.64584e-08
2.04507e-06
-4.39278e-05
3.02609e-08
1.87374e-06
-4.39224e-05
3.57443e-08
1.61064e-06
-4.39202e-05
1.88532e-06
-4.39195e-05
-5.15611e-08
1.52697e-06
-4.47509e-05
-5.48165e-08
1.17736e-06
-4.47632e-05
-5.58262e-08
1.91175e-06
-4.47902e-05
-4.63597e-08
2.9713e-06
-4.4817e-05
-2.04707e-08
2.85915e-06
-4.47894e-05
1.34321e-08
1.92369e-06
-4.47377e-05
4.37241e-08
1.49627e-06
-4.47245e-05
5.26035e-08
1.71059e-06
-4.47242e-05
4.13341e-08
1.94104e-06
-4.47126e-05
3.39696e-08
1.77361e-06
-4.47069e-05
3.73295e-08
1.50277e-06
-4.47039e-05
1.76672e-06
-4.47029e-05
-5.56821e-08
1.44824e-06
-4.55508e-05
-6.02489e-08
1.1026e-06
-4.55627e-05
-6.00547e-08
1.83494e-06
-4.55888e-05
-4.6196e-08
2.87055e-06
-4.5614e-05
-1.63258e-08
2.72853e-06
-4.55858e-05
1.8715e-08
1.77694e-06
-4.55346e-05
4.8627e-08
1.34681e-06
-4.55211e-05
5.73426e-08
1.58026e-06
-4.55213e-05
4.6065e-08
1.83567e-06
-4.55107e-05
3.75864e-08
1.67327e-06
-4.55049e-05
3.88314e-08
1.39553e-06
-4.5501e-05
1.64726e-06
-4.54995e-05
-5.98157e-08
1.36802e-06
-4.63647e-05
-6.53881e-08
1.02702e-06
-4.6376e-05
-6.378e-08
1.75482e-06
-4.64012e-05
-4.55328e-08
2.76358e-06
-4.64245e-05
-1.19065e-08
2.59251e-06
-4.63959e-05
2.40006e-08
1.62773e-06
-4.63453e-05
5.33401e-08
1.19637e-06
-4.63314e-05
6.18482e-08
1.44873e-06
-4.63322e-05
5.0625e-08
1.72894e-06
-4.63226e-05
4.10826e-08
1.57272e-06
-4.63167e-05
4.02327e-08
1.28897e-06
-4.6312e-05
1.52702e-06
-4.63099e-05
-6.38858e-08
1.28583e-06
-4.71931e-05
-7.01514e-08
9.50205e-07
-4.72038e-05
-6.69387e-08
1.67112e-06
-4.72277e-05
-4.43496e-08
2.65047e-06
-4.72492e-05
-7.22527e-09
2.45143e-06
-4.72202e-05
2.927e-08
1.47642e-06
-4.71703e-05
5.78532e-08
1.04521e-06
-4.7156e-05
6.61039e-08
1.31611e-06
-4.71573e-05
5.49838e-08
1.62084e-06
-4.71488e-05
4.44247e-08
1.47195e-06
-4.71428e-05
4.15102e-08
1.18305e-06
-4.71373e-05
1.40599e-06
-4.71344e-05
-6.78041e-08
1.20115e-06
-4.80365e-05
-7.4448e-08
8.71729e-07
-4.80464e-05
-6.94615e-08
1.58362e-06
-4.80689e-05
-4.26215e-08
2.5313e-06
-4.80886e-05
-2.2925e-09
2.3056e-06
-4.80593e-05
3.4506e-08
1.32334e-06
-4.801e-05
6.21537e-08
8.93535e-07
-4.79954e-05
7.00895e-08
1.18246e-06
-4.7997e-05
5.91064e-08
1.51134e-06
-4.79896e-05
4.75736e-08
1.37091e-06
-4.79837e-05
4.26344e-08
1.07775e-06
-4.79775e-05
1.28415e-06
-4.79736e-05
-7.14689e-08
1.11341e-06
-4.88953e-05
-7.81786e-08
7.91133e-07
-4.89044e-05
-7.12734e-08
1.49207e-06
-4.89252e-05
-4.03201e-08
2.40618e-06
-4.8943e-05
2.8805e-09
2.15538e-06