/*--------------------------------*- C++ -*----------------------------------*\
| =========                 |                                                 |
| \\      /  F ield         | OpenFOAM: The Open Source CFD Toolbox           |
|  \\    /   O peration     | Version:  v1912                                 |
|   \\  /    A nd           | Website:  www.openfoam.com                      |
|    \\/     M anipulation  |                                                 |
\*---------------------------------------------------------------------------*/
FoamFile
{
    version     2.0;
    format      ascii;
    class       volScalarField;
    location    "9.2";
    object      pPrime2Mean;
}
// * * * * * * * * * * * * * * * * * * * * * * * * * * * * * * * * * * * * * //

dimensions      [2 -2 -4 0 0 0 0];


internalField   nonuniform List<scalar> 
34128
(
2.54607
2.54622
2.54576
2.54526
2.54421
2.543
2.54159
2.5401
2.53842
2.53673
2.53485
2.53316
2.54734
2.54747
2.54716
2.54636
2.54535
2.54432
2.54284
2.54128
2.53942
2.53755
2.53595
2.53402
2.54947
2.54936
2.54894
2.54819
2.5472
2.54608
2.54449
2.54292
2.54106
2.53921
2.53721
2.5354
2.55055
2.55054
2.55005
2.54928
2.54834
2.5471
2.54559
2.54393
2.54214
2.54006
2.53821
2.53627
2.55069
2.55056
2.55016
2.54941
2.54844
2.54717
2.54564
2.54402
2.54194
2.54018
2.53808
2.5363
2.5503
2.55039
2.54983
2.54917
2.54817
2.54685
2.5454
2.54363
2.54185
2.53989
2.53795
2.53605
2.55002
2.54999
2.54961
2.54889
2.54781
2.54662
2.54512
2.5434
2.54159
2.53971
2.5377
2.53592
2.5496
2.54963
2.54921
2.54844
2.54753
2.5463
2.5448
2.54318
2.54135
2.53941
2.53752
2.53567
2.54926
2.54928
2.54885
2.54818
2.54712
2.54591
2.54456
2.54295
2.54086
2.5391
2.53713
2.53536
2.54879
2.54894
2.54851
2.54776
2.54688
2.54557
2.54422
2.54267
2.54067
2.53882
2.53697
2.53509
2.54832
2.54845
2.54804
2.54737
2.54642
2.5452
2.54377
2.54218
2.54021
2.53852
2.53658
2.53472
2.54791
2.54794
2.54762
2.54704
2.54594
2.54479
2.54349
2.54181
2.53996
2.53819
2.53633
2.53445
2.54745
2.54756
2.54717
2.54645
2.54542
2.54442
2.54304
2.54141
2.53963
2.53773
2.53604
2.53414
2.54707
2.54706
2.54677
2.54613
2.54511
2.54388
2.54251
2.54103
2.53906
2.53733
2.53565
2.53388
2.54657
2.54661
2.54617
2.54557
2.54463
2.54345
2.54214
2.54062
2.53875
2.53703
2.5351
2.53351
2.54595
2.54607
2.54566
2.54492
2.54412
2.54297
2.54163
2.54002
2.53838
2.53662
2.53481
2.53313
2.54537
2.54542
2.54497
2.54442
2.54355
2.5424
2.54104
2.53958
2.53784
2.5362
2.53435
2.53268
2.54471
2.54486
2.54443
2.54384
2.54287
2.542
2.54045
2.53916
2.53726
2.53561
2.53394
2.53246
2.54421
2.5442
2.54392
2.54336
2.54231
2.54134
2.54009
2.53852
2.53689
2.53523
2.53357
2.53193
2.5436
2.54374
2.54337
2.54271
2.54183
2.54078
2.53956
2.53809
2.53651
2.5348
2.53315
2.53167
2.54295
2.54301
2.54265
2.54209
2.54119
2.54019
2.53905
2.53754
2.53599
2.53444
2.53272
2.53118
2.5423
2.54226
2.54212
2.54142
2.54068
2.5398
2.5385
2.53697
2.53554
2.53387
2.53226
2.53085
2.54177
2.5419
2.54146
2.54089
2.54008
2.53911
2.53787
2.53644
2.53497
2.53342
2.53184
2.53034
2.54113
2.54122
2.54078
2.54029
2.53948
2.53852
2.53735
2.53595
2.53454
2.53306
2.53132
2.52988
2.54042
2.54045
2.54031
2.53967
2.53889
2.53797
2.53679
2.53547
2.534
2.53253
2.53086
2.52969
2.53986
2.5399
2.53969
2.539
2.53836
2.53719
2.53627
2.53498
2.53345
2.53201
2.53041
2.52913
2.53913
2.53917
2.53899
2.53835
2.53767
2.53683
2.53564
2.53441
2.53307
2.53154
2.5302
2.5287
2.53859
2.5386
2.53849
2.53771
2.5372
2.53615
2.53515
2.53404
2.53252
2.53113
2.52971
2.52845
2.53802
2.53798
2.53782
2.53718
2.53658
2.53576
2.53457
2.53349
2.53205
2.53062
2.52922
2.52803
2.53734
2.53737
2.53722
2.53664
2.53597
2.53496
2.53419
2.53286
2.53163
2.53026
2.52889
2.5277
2.53659
2.53683
2.5365
2.53604
2.5355
2.53463
2.53359
2.5324
2.53116
2.52977
2.52849
2.52732
2.53615
2.53627
2.53596
2.53546
2.53486
2.53413
2.53316
2.53197
2.5307
2.52941
2.52817
2.52712
2.53565
2.53569
2.5356
2.53503
2.53435
2.53366
2.53261
2.53165
2.53026
2.52901
2.52777
2.52663
2.53499
2.53518
2.53494
2.53456
2.5338
2.53315
2.53236
2.53107
2.53007
2.52876
2.52755
2.52649
2.53447
2.53467
2.53429
2.53417
2.53347
2.53279
2.53172
2.53085
2.52961
2.52847
2.5274
2.52607
2.53396
2.534
2.53397
2.53343
2.5329
2.53218
2.53149
2.53041
2.52933
2.52802
2.527
2.52595
2.53358
2.53369
2.53348
2.53302
2.53257
2.5319
2.53106
2.53009
2.52896
2.52782
2.52676
2.52579
2.53311
2.53316
2.53315
2.53271
2.53219
2.53161
2.53067
2.52977
2.52852
2.52768
2.52655
2.52557
2.53266
2.53276
2.5329
2.53238
2.53195
2.53127
2.53053
2.52941
2.52844
2.52746
2.5263
2.52535
2.53239
2.53244
2.53228
2.53191
2.5315
2.53079
2.5302
2.52918
2.52829
2.52721
2.52635
2.52534
2.53207
2.53213
2.53201
2.53166
2.53117
2.53065
2.52979
2.52899
2.52811
2.5271
2.52617
2.52529
2.5317
2.53178
2.53175
2.53144
2.53106
2.53029
2.52965
2.52871
2.5278
2.52699
2.52611
2.52517
2.53147
2.53159
2.53149
2.53133
2.53077
2.5302
2.52954
2.52876
2.52778
2.52695
2.52615
2.52527
2.53121
2.53136
2.53124
2.53102
2.53056
2.53015
2.52931
2.52871
2.52776
2.52694
2.52596
2.52534
2.53108
2.53114
2.53104
2.53083
2.53046
2.52994
2.52928
2.5285
2.52769
2.5269
2.52621
2.52542
2.53099
2.53103
2.53103
2.5307
2.53041
2.52984
2.5294
2.5285
2.5277
2.52687
2.52625
2.52537
2.53084
2.53098
2.5309
2.53066
2.53025
2.52979
2.52923
2.52847
2.5278
2.52697
2.5263
2.52567
2.53094
2.53086
2.53092
2.5308
2.5304
2.52974
2.52932
2.52871
2.52787
2.52734
2.52649
2.52575
2.53081
2.53098
2.53088
2.53072
2.53046
2.52994
2.52933
2.52876
2.52801
2.52735
2.52659
2.52598
2.53089
2.53107
2.53102
2.5308
2.53049
2.53003
2.5295
2.52908
2.52818
2.52749
2.52691
2.52626
2.53103
2.53108
2.53106
2.53093
2.53069
2.53014
2.52973
2.52914
2.52846
2.52773
2.52719
2.52664
2.53121
2.5313
2.53139
2.53108
2.53095
2.53032
2.52993
2.52948
2.52877
2.52817
2.52747
2.52694
2.53145
2.53154
2.53151
2.53124
2.53119
2.53072
2.53027
2.52958
2.5291
2.52853
2.52773
2.52728
2.53156
2.53174
2.53182
2.53167
2.53152
2.531
2.5306
2.53
2.52933
2.52884
2.52831
2.52777
2.53197
2.5321
2.53211
2.53207
2.53177
2.53124
2.53099
2.53031
2.52991
2.5293
2.5288
2.52826
2.53225
2.53236
2.53244
2.5323
2.53214
2.53168
2.53124
2.53075
2.53012
2.52983
2.5294
2.52869
2.53266
2.53266
2.53275
2.53274
2.53246
2.53203
2.53167
2.53124
2.53077
2.53028
2.52984
2.52934
2.53314
2.53329
2.5332
2.53321
2.53282
2.5325
2.53223
2.53172
2.53125
2.53074
2.53021
2.52988
2.53342
2.5335
2.5337
2.53352
2.53315
2.53298
2.53255
2.53225
2.5318
2.53119
2.53071
2.53038
2.53387
2.53398
2.53415
2.53406
2.53392
2.53351
2.53305
2.53268
2.53228
2.53172
2.53141
2.53115
2.53439
2.53452
2.53462
2.53429
2.53422
2.53405
2.53356
2.53328
2.53291
2.53243
2.53201
2.53147
2.53481
2.53502
2.5351
2.53505
2.53485
2.53442
2.53402
2.53378
2.53348
2.53304
2.53259
2.53222
2.53534
2.5354
2.53553
2.53554
2.53536
2.53496
2.53466
2.5344
2.53398
2.5336
2.53329
2.53272
2.53604
2.536
2.53612
2.53614
2.53583
2.53558
2.53535
2.53492
2.53466
2.5342
2.53387
2.53357
2.53643
2.5365
2.53664
2.53665
2.53638
2.53616
2.53584
2.53556
2.53518
2.53482
2.53449
2.53419
2.53687
2.53718
2.5372
2.53724
2.53695
2.53671
2.53654
2.5361
2.53567
2.53537
2.53512
2.53479
2.53728
2.5377
2.53769
2.53776
2.53752
2.53728
2.53694
2.5367
2.53633
2.53599
2.53568
2.53543
2.53799
2.53829
2.53833
2.53828
2.53808
2.53784
2.53749
2.53732
2.53698
2.5367
2.53629
2.536
2.53853
2.5388
2.53897
2.53881
2.53855
2.53844
2.53814
2.53789
2.53747
2.53719
2.5369
2.53663
2.53893
2.53926
2.53941
2.53928
2.53914
2.53889
2.53863
2.53845
2.53815
2.53788
2.53745
2.5372
2.53944
2.53976
2.53962
2.53976
2.53954
2.53936
2.53911
2.53886
2.5386
2.53821
2.53808
2.53765
2.53987
2.53993
2.54015
2.54003
2.53991
2.53984
2.53956
2.5393
2.53905
2.53858
2.53836
2.5381
2.54012
2.54023
2.54035
2.54029
2.54028
2.54002
2.53973
2.53942
2.53924
2.53886
2.53871
2.53839
2.53999
2.54036
2.54035
2.54028
2.54037
2.54014
2.53994
2.53953
2.53927
2.53903
2.53885
2.53844
2.53993
2.5402
2.54028
2.54027
2.54028
2.54006
2.53989
2.53955
2.53924
2.53901
2.53882
2.53858
2.53948
2.53976
2.53989
2.53993
2.53975
2.53968
2.53944
2.53918
2.53889
2.53868
2.53849
2.53822
2.53884
2.53913
2.53926
2.53924
2.53916
2.53899
2.53898
2.53863
2.53841
2.53816
2.53802
2.53788
2.538
2.53823
2.53835
2.53839
2.53843
2.53822
2.538
2.53797
2.5377
2.53738
2.53733
2.53721
2.53692
2.53714
2.53727
2.53735
2.53748
2.53729
2.53711
2.53709
2.53688
2.53662
2.53655
2.53648
23.1396
23.1396
23.1398
23.1401
23.1403
23.1406
23.1411
23.1419
23.1434
23.1454
23.1479
23.1508
23.1332
23.1332
23.1333
23.1335
23.1337
23.1337
23.1338
23.1345
23.1355
23.1371
23.1392
23.1417
23.1236
23.1238
23.1236
23.1237
23.1235
23.1232
23.1232
23.1233
23.1238
23.1248
23.1265
23.1285
23.1182
23.1183
23.1182
23.1181
23.1177
23.1172
23.1169
23.1167
23.1171
23.1176
23.1189
23.1204
23.1168
23.1169
23.1167
23.1166
23.1162
23.1158
23.1152
23.115
23.1151
23.1157
23.1169
23.1185
23.117
23.1171
23.117
23.1167
23.1162
23.1159
23.1154
23.1152
23.1154
23.1159
23.1172
23.1187
23.1171
23.1173
23.1171
23.117
23.1165
23.116
23.1156
23.1154
23.1156
23.1162
23.1175
23.1192
23.1173
23.1174
23.1173
23.1171
23.1167
23.1164
23.1159
23.1157
23.1159
23.1164
23.1178
23.1194
23.1174
23.1176
23.1176
23.1172
23.117
23.1165
23.1161
23.1158
23.116
23.1168
23.118
23.1197
23.1176
23.1177
23.1176
23.1174
23.117
23.1167
23.1162
23.116
23.1162
23.1169
23.1182
23.1198
23.1177
23.1179
23.1177
23.1175
23.1172
23.1167
23.1164
23.1163
23.1164
23.1172
23.1183
23.12
23.1178
23.1178
23.1178
23.1177
23.1173
23.1169
23.1164
23.1163
23.1166
23.1172
23.1187
23.1201
23.118
23.1179
23.118
23.1178
23.1172
23.1171
23.1166
23.1165
23.1167
23.1175
23.1188
23.1204
23.1178
23.118
23.1181
23.1178
23.1173
23.117
23.1166
23.1167
23.1169
23.1175
23.1188
23.1205
23.118
23.118
23.1181
23.1178
23.1174
23.1171
23.1167
23.1166
23.1169
23.1176
23.1191
23.1208
23.118
23.1182
23.1181
23.1179
23.1175
23.1172
23.1168
23.1169
23.1171
23.1177
23.1191
23.1208
23.118
23.1181
23.1181
23.1179
23.1175
23.1171
23.1169
23.1167
23.1171
23.1178
23.1192
23.1209
23.1179
23.118
23.1181
23.1179
23.1175
23.1172
23.1169
23.1169
23.1171
23.1179
23.1193
23.1209
23.1179
23.1181
23.1181
23.118
23.1175
23.1172
23.1168
23.1168
23.1171
23.1179
23.1193
23.121
23.1179
23.1181
23.1181
23.1178
23.1175
23.1173
23.1168
23.1168
23.1172
23.118
23.1195
23.1211
23.118
23.118
23.1181
23.1179
23.1174
23.1171
23.1169
23.1169
23.1172
23.1182
23.1194
23.121
23.1179
23.118
23.118
23.1179
23.1175
23.1172
23.117
23.1168
23.1174
23.1181
23.1194
23.1211
23.1179
23.1181
23.118
23.1178
23.1176
23.1172
23.117
23.1169
23.1173
23.1182
23.1194
23.1212
23.1179
23.1179
23.118
23.1178
23.1175
23.1172
23.1169
23.1169
23.1174
23.1183
23.1195
23.1214
23.1179
23.1179
23.118
23.1178
23.1175
23.1172
23.1168
23.1168
23.1174
23.1182
23.1195
23.1213
23.1177
23.118
23.118
23.1178
23.1176
23.1171
23.1169
23.117
23.1174
23.1184
23.1197
23.1214
23.1178
23.118
23.1179
23.1178
23.1175
23.1171
23.117
23.117
23.1174
23.1182
23.1197
23.1213
23.1178
23.1179
23.118
23.1178
23.1174
23.1172
23.1168
23.117
23.1174
23.1184
23.1198
23.1213
23.1179
23.118
23.118
23.1179
23.1176
23.1172
23.117
23.117
23.1175
23.1185
23.12
23.1217
23.1177
23.118
23.1179
23.1178
23.1176
23.1174
23.1171
23.1172
23.1177
23.1186
23.1202
23.1216
23.118
23.1181
23.1181
23.118
23.1175
23.1175
23.1173
23.1172
23.1178
23.1187
23.1201
23.1218
23.1179
23.1182
23.1183
23.118
23.1177
23.1176
23.1173
23.1173
23.1179
23.1189
23.1203
23.122
23.1182
23.1183
23.1184
23.1182
23.1178
23.1176
23.1174
23.1175
23.1182
23.1192
23.1204
23.1222
23.1182
23.1184
23.1185
23.1183
23.1181
23.1178
23.1176
23.1178
23.1183
23.1193
23.1207
23.1224
23.1185
23.1186
23.1186
23.1186
23.1183
23.1181
23.1178
23.118
23.1185
23.1194
23.1208
23.1226
23.1186
23.1188
23.1189
23.1187
23.1185
23.1183
23.1181
23.1182
23.1187
23.1198
23.1212
23.123
23.119
23.119
23.1192
23.119
23.1186
23.1184
23.1185
23.1185
23.1191
23.12
23.1215
23.1232
23.1194
23.1195
23.1195
23.1196
23.119
23.1188
23.1188
23.1188
23.1196
23.1204
23.1219
23.1236
23.1196
23.1199
23.1199
23.1198
23.1195
23.1193
23.1192
23.1193
23.1199
23.1209
23.1222
23.1239
23.1201
23.1204
23.1203
23.1201
23.1199
23.1198
23.1195
23.1198
23.1202
23.1212
23.1228
23.1245
23.1206
23.1209
23.121
23.1207
23.1204
23.1203
23.1201
23.1202
23.121
23.1219
23.1233
23.125
23.1213
23.1214
23.1214
23.1213
23.121
23.1208
23.1206
23.1208
23.1214
23.1226
23.1238
23.1256
23.1218
23.1221
23.1221
23.122
23.1217
23.1214
23.1213
23.1214
23.1221
23.1232
23.1246
23.1261
23.1226
23.1227
23.1228
23.1226
23.1224
23.1222
23.1219
23.1223
23.123
23.1239
23.1252
23.1269
23.1234
23.1236
23.1237
23.1235
23.1231
23.123
23.1228
23.1231
23.1237
23.1248
23.1262
23.1279
23.1243
23.1245
23.1245
23.1245
23.124
23.1239
23.1237
23.1241
23.1247
23.1257
23.1271
23.1288
23.1252
23.1255
23.1255
23.1254
23.1251
23.1249
23.1248
23.125
23.1256
23.1267
23.128
23.1297
23.1263
23.1266
23.1265
23.1265
23.1263
23.1258
23.1259
23.1261
23.1268
23.1279
23.1291
23.1309
23.1276
23.1278
23.1279
23.1278
23.1274
23.1272
23.1269
23.1273
23.1279
23.1291
23.1303
23.132
23.1289
23.129
23.1292
23.1289
23.1287
23.1285
23.1283
23.1286
23.1293
23.1304
23.1315
23.1332
23.1304
23.1304
23.1305
23.1304
23.1301
23.1299
23.1298
23.1299
23.1306
23.1318
23.133
23.1348
23.1319
23.1319
23.132
23.1318
23.1315
23.1313
23.1311
23.1314
23.1322
23.1333
23.1344
23.136
23.1334
23.1336
23.1337
23.1335
23.1332
23.1328
23.1328
23.1331
23.1336
23.1347
23.136
23.1376
23.1351
23.1354
23.1353
23.1353
23.1348
23.1346
23.1344
23.1347
23.1354
23.1363
23.1376
23.1393
23.137
23.1369
23.1371
23.1368
23.1364
23.1363
23.1363
23.1364
23.1371
23.1382
23.1394
23.1408
23.1388
23.1389
23.1391
23.1389
23.1384
23.1381
23.1382
23.1382
23.1391
23.14
23.1413
23.1428
23.1408
23.1409
23.1409
23.1407
23.1404
23.1402
23.14
23.1403
23.141
23.1418
23.1431
23.1446
23.1428
23.143
23.143
23.1427
23.1424
23.1421
23.142
23.1422
23.1429
23.1439
23.1451
23.1464
23.1449
23.1451
23.145
23.1448
23.1445
23.1444
23.1441
23.1444
23.1449
23.1459
23.1471
23.1486
23.147
23.1472
23.1471
23.147
23.1466
23.1463
23.1461
23.1465
23.1471
23.148
23.1491
23.1504
23.1492
23.1495
23.1493
23.1492
23.1487
23.1483
23.1482
23.1486
23.1492
23.1501
23.1513
23.1526
23.1515
23.1517
23.1514
23.1513
23.1509
23.1505
23.1505
23.1508
23.1511
23.1523
23.1533
23.1546
23.1537
23.1538
23.1538
23.1536
23.1532
23.1529
23.1526
23.1528
23.1533
23.1542
23.1555
23.1567
23.1559
23.1559
23.156
23.1557
23.1553
23.155
23.1549
23.1552
23.1556
23.1565
23.1575
23.1587
23.1582
23.1582
23.1582
23.1579
23.1575
23.1572
23.1571
23.1573
23.1578
23.1587
23.1595
23.1607
23.1603
23.1604
23.1604
23.16
23.1597
23.1595
23.1593
23.1595
23.1599
23.1607
23.1617
23.163
23.1625
23.1626
23.1624
23.1622
23.1619
23.1615
23.1614
23.1616
23.1619
23.1628
23.1636
23.1649
23.1647
23.1647
23.1645
23.1644
23.1641
23.1638
23.1636
23.1636
23.164
23.1647
23.1655
23.1666
23.1667
23.1666
23.1666
23.1664
23.1659
23.1658
23.1656
23.1657
23.1661
23.1667
23.1675
23.1684
23.1685
23.1685
23.1684
23.1682
23.1677
23.1675
23.1675
23.1675
23.1677
23.1684
23.1691
23.1701
23.17
23.17
23.1701
23.1698
23.1695
23.1692
23.1689
23.169
23.1693
23.1699
23.1706
23.1714
23.171
23.171
23.1711
23.1709
23.1706
23.1705
23.1703
23.1703
23.1704
23.171
23.1716
23.1725
23.1715
23.1716
23.1718
23.1716
23.1715
23.1713
23.1709
23.1709
23.171
23.1716
23.1721
23.1729
23.1713
23.1715
23.1714
23.1715
23.1714
23.1711
23.1709
23.171
23.1711
23.1715
23.1721
23.1726
23.1699
23.1702
23.1703
23.1706
23.1702
23.1703
23.1701
23.1701
23.1702
23.1705
23.171
23.1719
23.1675
23.1677
23.168
23.1682
23.1682
23.1682
23.1682
23.1681
23.1682
23.1686
23.1691
23.17
23.1635
23.1639
23.1643
23.1645
23.1649
23.1649
23.1649
23.165
23.1653
23.1655
23.1661
23.1669
23.1583
23.1587
23.1593
23.1598
23.1601
23.1604
23.1604
23.1608
23.1611
23.1616
23.1622
23.1631
23.1522
23.1527
23.1534
23.154
23.1544
23.155
23.1552
23.1558
23.1562
23.1568
23.1574
23.1582
64.4259
64.4286
64.432
64.4359
64.4401
64.4447
64.4502
64.4565
64.4638
64.4722
64.4805
64.4891
64.394
64.3965
64.3999
64.4033
64.4071
64.4114
64.4164
64.4223
64.429
64.4369
64.4447
64.4527
64.3463
64.3487
64.3517
64.3547
64.358
64.3616
64.366
64.3711
64.3769
64.3838
64.3906
64.398
64.3168
64.319
64.3219
64.3248
64.3277
64.3308
64.3346
64.3392
64.3444
64.3507
64.3571
64.3637
64.3091
64.3113
64.3141
64.3169
64.3196
64.3228
64.3263
64.331
64.336
64.3422
64.3484
64.3549
64.3098
64.3118
64.3149
64.3175
64.3202
64.3234
64.3271
64.3316
64.3369
64.3429
64.3492
64.3556
64.3104
64.3126
64.3154
64.3181
64.3209
64.3242
64.3279
64.3323
64.3376
64.3437
64.3498
64.3564
64.311
64.3133
64.3162
64.3187
64.3216
64.3249
64.3285
64.333
64.3382
64.3444
64.3507
64.357
64.3118
64.3138
64.3167
64.3194
64.3221
64.3254
64.3291
64.3338
64.3389
64.3451
64.3512
64.3578
64.3124
64.3146
64.3173
64.3199
64.3229
64.326
64.3297
64.3342
64.3395
64.3457
64.352
64.3585
64.3128
64.3152
64.3179
64.3205
64.3233
64.3265
64.3301
64.3348
64.3401
64.3463
64.3526
64.359
64.3134
64.3155
64.3182
64.321
64.3239
64.327
64.3307
64.3353
64.3406
64.3469
64.3531
64.3598
64.3137
64.3159
64.3188
64.3215
64.3243
64.3275
64.3312
64.3358
64.3412
64.3474
64.3537
64.3603
64.3142
64.3163
64.3193
64.322
64.3247
64.3279
64.3317
64.3363
64.3416
64.3478
64.3541
64.3607
64.3146
64.3169
64.3196
64.3222
64.3251
64.3284
64.332
64.3367
64.342
64.3481
64.3546
64.3612
64.315
64.3171
64.32
64.3228
64.3256
64.3288
64.3325
64.337
64.3425
64.3488
64.3551
64.3616
64.3153
64.3176
64.3204
64.3232
64.3259
64.329
64.3329
64.3376
64.343
64.349
64.3555
64.3621
64.3156
64.3181
64.3207
64.3235
64.3263
64.3295
64.3333
64.3378
64.3432
64.3494
64.3558
64.3625
64.3162
64.3182
64.3209
64.3238
64.3266
64.3297
64.3335
64.3381
64.3437
64.3498
64.3564
64.3628
64.3163
64.3186
64.3214
64.324
64.3269
64.3302
64.334
64.3385
64.3439
64.3503
64.3565
64.3633
64.3169
64.319
64.3218
64.3244
64.3272
64.3305
64.3341
64.3389
64.3444
64.3506
64.3569
64.3636
64.3172
64.3193
64.322
64.3248
64.3276
64.3308
64.3345
64.3392
64.3448
64.351
64.3574
64.364
64.3175
64.3197
64.3223
64.3251
64.3279
64.331
64.3348
64.3394
64.345
64.3514
64.3577
64.3644
64.3178
64.3201
64.3228
64.3254
64.3282
64.3314
64.3352
64.3399
64.3453
64.3518
64.3581
64.3647
64.3183
64.3205
64.3231
64.3259
64.3286
64.3318
64.3355
64.3403
64.3457
64.3521
64.3585
64.3651
64.3187
64.3208
64.3236
64.3261
64.3289
64.3321
64.3361
64.3406
64.3462
64.3525
64.3589
64.3654
64.319
64.3213
64.3238
64.3266
64.3291
64.3326
64.3363
64.341
64.3465
64.3529
64.3594
64.3659
64.3197
64.3218
64.3243
64.3271
64.3298
64.3329
64.3367
64.3414
64.347
64.3533
64.3598
64.3663
64.32
64.3221
64.3248
64.3274
64.3301
64.3333
64.3372
64.3418
64.3474
64.3537
64.3601
64.3668
64.3206
64.3227
64.3253
64.3278
64.3306
64.3338
64.3376
64.3423
64.3478
64.3543
64.3606
64.3672
64.3211
64.3232
64.3258
64.3284
64.3311
64.3343
64.3381
64.3427
64.3484
64.3547
64.3611
64.3678
64.3218
64.3237
64.3264
64.3289
64.3317
64.3348
64.3386
64.3433
64.3488
64.3553
64.3618
64.3684
64.3223
64.3244
64.327
64.3296
64.3323
64.3354
64.3391
64.3439
64.3494
64.3558
64.3622
64.369
64.3229
64.3251
64.3276
64.3301
64.3326
64.3361
64.3398
64.3446
64.3502
64.3564
64.3629
64.3694
64.3238
64.3257
64.3284
64.331
64.3335
64.3367
64.3405
64.3452
64.3508
64.3571
64.3637
64.3701
64.3247
64.3266
64.329
64.3316
64.3341
64.3373
64.3412
64.346
64.3514
64.3577
64.3643
64.3707
64.3256
64.3275
64.33
64.3324
64.335
64.3381
64.3419
64.3466
64.3522
64.3586
64.3652
64.3715
64.3265
64.3284
64.3308
64.3334
64.3359
64.339
64.3428
64.3475
64.3532
64.3594
64.3659
64.3724
64.3276
64.3295
64.3318
64.3344
64.337
64.3398
64.3437
64.3483
64.3539
64.3603
64.3668
64.3733
64.3285
64.3305
64.3329
64.3352
64.338
64.3409
64.3445
64.3493
64.3551
64.3613
64.3677
64.3743
64.3297
64.3317
64.334
64.3365
64.339
64.3421
64.3457
64.3503
64.356
64.3623
64.3687
64.3753
64.3312
64.333
64.3353
64.3376
64.3402
64.3431
64.3469
64.3516
64.3572
64.3635
64.3699
64.3763
64.3325
64.3344
64.3366
64.3391
64.3414
64.3443
64.348
64.3528
64.3584
64.3645
64.3712
64.3775
64.3341
64.3358
64.3382
64.3405
64.3429
64.3458
64.3495
64.354
64.3596
64.366
64.3724
64.3786
64.3356
64.3374
64.3398
64.3418
64.3443
64.3472
64.3508
64.3556
64.3612
64.3673
64.3738
64.38
64.3373
64.3392
64.3413
64.3436
64.3459
64.3487
64.3524
64.3572
64.3626
64.3689
64.3753
64.3816
64.3392
64.3409
64.3432
64.3453
64.3477
64.3505
64.3541
64.3587
64.3643
64.3705
64.3768
64.383
64.3412
64.3429
64.3451
64.3471
64.3494
64.3522
64.3558
64.3604
64.366
64.3722
64.3785
64.3845
64.3434
64.345
64.3471
64.3491
64.3513
64.3541
64.3577
64.3621
64.3678
64.3739
64.3802
64.3865
64.3455
64.3473
64.3492
64.3512
64.3534
64.356
64.3597
64.3642
64.3698
64.3759
64.3821
64.3882
64.3478
64.3495
64.3515
64.3535
64.3557
64.3581
64.3618
64.3661
64.3718
64.378
64.384
64.3903
64.3502
64.3518
64.3539
64.3557
64.3578
64.3604
64.364
64.3684
64.374
64.3801
64.3861
64.3923
64.3528
64.3545
64.3563
64.3582
64.3603
64.3629
64.3662
64.3707
64.3762
64.3821
64.3884
64.3943
64.3555
64.3571
64.359
64.3608
64.3628
64.3654
64.3686
64.3731
64.3786
64.3846
64.3905
64.3966
64.3585
64.3599
64.3618
64.3636
64.3654
64.3679
64.3712
64.3756
64.3809
64.3869
64.393
64.399
64.3615
64.3628
64.3646
64.3664
64.3682
64.3705
64.374
64.3782
64.3836
64.3894
64.3954
64.4014
64.3645
64.3657
64.3674
64.3691
64.371
64.3734
64.3766
64.3809
64.3862
64.3922
64.398
64.4038
64.3676
64.3689
64.3706
64.3721
64.3738
64.3762
64.3795
64.3837
64.389
64.3949
64.4006
64.4065
64.3709
64.3721
64.3737
64.3752
64.3769
64.3792
64.3825
64.3867
64.3918
64.3976
64.4034
64.4093
64.3742
64.3754
64.377
64.3784
64.3799
64.3823
64.3856
64.3896
64.3947
64.4004
64.4061
64.4119
64.3775
64.3788
64.3802
64.3815
64.3834
64.3854
64.3884
64.3926
64.3977
64.4033
64.409
64.4147
64.3811
64.3821
64.3836
64.3849
64.3864
64.3886
64.3916
64.3956
64.4006
64.4061
64.4119
64.4175
64.3844
64.3854
64.3867
64.3879
64.3897
64.3917
64.3947
64.3987
64.4036
64.409
64.4147
64.4201
64.3879
64.3888
64.39
64.3913
64.3928
64.3948
64.3979
64.4017
64.4067
64.412
64.4176
64.423
64.3913
64.3922
64.3934
64.3945
64.3961
64.3981
64.401
64.4048
64.4096
64.4149
64.4204
64.4257
64.3944
64.3954
64.3964
64.3977
64.3992
64.4011
64.4039
64.4078
64.4125
64.4178
64.4231
64.4283
64.3977
64.3985
64.3996
64.4007
64.4022
64.4041
64.407
64.4108
64.4153
64.4204
64.4257
64.4309
64.4007
64.4014
64.4027
64.4038
64.4051
64.407
64.4099
64.4134
64.418
64.423
64.428
64.4333
64.4034
64.404
64.4052
64.4062
64.4078
64.4097
64.4125
64.4159
64.4204
64.4253
64.4303
64.4353
64.4055
64.4064
64.4075
64.4085
64.4101
64.4121
64.4148
64.4183
64.4226
64.4272
64.4322
64.4369
64.4074
64.4084
64.4091
64.4104
64.4121
64.4142
64.4166
64.42
64.4242
64.4288
64.4336
64.4384
64.4083
64.4091
64.4102
64.4117
64.4133
64.4153
64.418
64.4213
64.4253
64.4297
64.4344
64.4389
64.4083
64.4092
64.4103
64.412
64.4138
64.4156
64.4184
64.4217
64.4255
64.4298
64.4345
64.4389
64.4068
64.4078
64.4091
64.4106
64.4127
64.4149
64.4176
64.4206
64.4246
64.4287
64.4333
64.4375
64.4033
64.4044
64.4058
64.4079
64.4099
64.4123
64.4151
64.4183
64.4221
64.4261
64.4305
64.4347
64.3976
64.3988
64.4007
64.4028
64.4052
64.4078
64.4108
64.414
64.4177
64.4218
64.4261
64.4304
64.3897
64.3911
64.3932
64.3958
64.3986
64.4013
64.4047
64.4079
64.4116
64.4158
64.42
64.4242
64.3799
64.3816
64.3843
64.3872
64.3901
64.3933
64.3967
64.4003
64.4042
64.4082
64.4127
64.417
64.3691
64.3711
64.3739
64.377
64.3805
64.3839
64.3876
64.3914
64.3954
64.3996
64.4042
64.4083
126.897
126.905
126.915
126.924
126.934
126.945
126.955
126.966
126.978
126.991
127.003
127.014
126.812
126.82
126.829
126.839
126.848
126.858
126.868
126.879
126.89
126.902
126.913
126.924
126.684
126.691
126.7
126.709
126.718
126.726
126.736
126.746
126.756
126.766
126.777
126.787
126.602
126.61
126.618
126.627
126.635
126.644
126.652
126.661
126.671
126.681
126.691
126.7
126.581
126.589
126.597
126.605
126.614
126.622
126.63
126.64
126.649
126.659
126.669
126.678
126.583
126.59
126.599
126.607
126.615
126.623
126.632
126.641
126.651
126.66
126.67
126.679
126.584
126.592
126.6
126.608
126.617
126.625
126.634
126.643
126.652
126.662
126.672
126.681
126.586
126.593
126.602
126.61
126.618
126.626
126.635
126.644
126.654
126.664
126.673
126.683
126.587
126.594
126.603
126.611
126.619
126.628
126.636
126.645
126.655
126.665
126.675
126.684
126.588
126.596
126.604
126.612
126.621
126.629
126.638
126.647
126.656
126.666
126.676
126.685
126.589
126.597
126.605
126.613
126.622
126.63
126.639
126.648
126.658
126.667
126.677
126.686
126.591
126.598
126.606
126.615
126.623
126.631
126.64
126.649
126.659
126.669
126.678
126.687
126.591
126.599
126.607
126.615
126.624
126.632
126.641
126.65
126.659
126.669
126.679
126.688
126.592
126.6
126.608
126.616
126.624
126.633
126.641
126.651
126.66
126.67
126.68
126.689
126.593
126.601
126.609
126.617
126.625
126.634
126.642
126.652
126.661
126.671
126.681
126.69
126.594
126.601
126.61
126.618
126.626
126.634
126.643
126.652
126.662
126.672
126.682
126.691
126.595
126.602
126.61
126.618
126.627
126.635
126.643
126.653
126.663
126.672
126.682
126.692
126.595
126.603
126.611
126.619
126.627
126.635
126.644
126.653
126.663
126.673
126.683
126.692
126.596
126.603
126.611
126.62
126.628
126.636
126.644
126.654
126.664
126.674
126.684
126.693
126.597
126.603
126.612
126.62
126.628
126.636
126.645
126.654
126.664
126.674
126.684
126.693
126.597
126.604
126.612
126.62
126.629
126.637
126.645
126.655
126.664
126.675
126.684
126.694
126.597
126.604
126.613
126.621
126.629
126.637
126.646
126.655
126.665
126.675
126.685
126.694
126.598
126.605
126.613
126.621
126.629
126.637
126.646
126.655
126.665
126.675
126.685
126.694
126.598
126.605
126.613
126.621
126.629
126.638
126.646
126.656
126.665
126.676
126.685
126.695
126.599
126.606
126.614
126.622
126.63
126.638
126.647
126.656
126.666
126.676
126.686
126.695
126.599
126.606
126.614
126.622
126.63
126.638
126.647
126.656
126.666
126.676
126.686
126.695
126.599
126.606
126.614
126.622
126.63
126.638
126.647
126.656
126.666
126.676
126.686
126.696
126.6
126.607
126.615
126.623
126.63
126.639
126.647
126.656
126.666
126.677
126.686
126.696
126.6
126.607
126.615
126.623
126.631
126.639
126.647
126.657
126.667
126.677
126.687
126.696
126.6
126.607
126.615
126.623
126.631
126.639
126.648
126.657
126.667
126.677
126.687
126.696
126.601
126.608
126.616
126.624
126.631
126.639
126.648
126.657
126.667
126.677
126.687
126.697
126.601
126.608
126.616
126.624
126.632
126.64
126.648
126.658
126.667
126.678
126.688
126.697
126.602
126.609
126.616
126.624
126.632
126.64
126.648
126.658
126.668
126.678
126.688
126.697
126.603
126.609
126.617
126.625
126.632
126.64
126.649
126.658
126.668
126.678
126.688
126.698
126.603
126.61
126.618
126.625
126.633
126.641
126.649
126.658
126.668
126.679
126.689
126.698
126.604
126.611
126.618
126.626
126.633
126.641
126.65
126.659
126.669
126.679
126.689
126.699
126.605
126.611
126.619
126.626
126.634
126.642
126.65
126.659
126.669
126.68
126.69
126.699
126.606
126.612
126.62
126.627
126.635
126.642
126.651
126.66
126.67
126.68
126.69
126.699
126.606
126.613
126.621
126.628
126.635
126.643
126.651
126.661
126.671
126.681
126.691
126.7
126.608
126.614
126.621
126.629
126.636
126.644
126.652
126.661
126.671
126.682
126.691
126.701
126.609
126.615
126.622
126.63
126.637
126.645
126.653
126.662
126.672
126.682
126.692
126.702
126.61
126.616
126.624
126.631
126.638
126.646
126.654
126.663
126.673
126.683
126.693
126.703
126.611
126.618
126.625
126.632
126.639
126.647
126.655
126.664
126.674
126.684
126.694
126.704
126.613
126.619
126.626
126.634
126.64
126.648
126.656
126.665
126.675
126.686
126.695
126.705
126.615
126.621
126.628
126.635
126.642
126.649
126.657
126.667
126.677
126.687
126.697
126.706
126.617
126.623
126.63
126.636
126.643
126.651
126.659
126.668
126.678
126.688
126.698
126.707
126.619
126.625
126.631
126.638
126.645
126.653
126.661
126.67
126.68
126.69
126.7
126.709
126.621
126.627
126.633
126.64
126.647
126.654
126.662
126.671
126.681
126.691
126.701
126.71
126.623
126.629
126.636
126.642
126.649
126.656
126.664
126.673
126.683
126.693
126.703
126.712
126.626
126.631
126.638
126.645
126.651
126.658
126.666
126.675
126.685
126.695
126.705
126.714
126.628
126.634
126.641
126.647
126.654
126.661
126.669
126.678
126.687
126.698
126.707
126.716
126.631
126.637
126.643
126.65
126.656
126.663
126.671
126.68
126.69
126.7
126.709
126.719
126.634
126.64
126.646
126.652
126.659
126.666
126.674
126.682
126.692
126.702
126.712
126.721
126.638
126.643
126.649
126.656
126.662
126.669
126.676
126.685
126.695
126.705
126.714
126.724
126.641
126.646
126.653
126.659
126.665
126.672
126.679
126.688
126.698
126.708
126.717
126.726
126.645
126.65
126.656
126.662
126.668
126.675
126.682
126.691
126.701
126.711
126.72
126.729
126.648
126.654
126.659
126.665
126.671
126.678
126.686
126.694
126.704
126.714
126.723
126.733
126.652
126.657
126.663
126.669
126.675
126.681
126.689
126.698
126.707
126.717
126.727
126.736
126.657
126.661
126.667
126.673
126.679
126.685
126.692
126.701
126.711
126.721
126.73
126.739
126.661
126.666
126.671
126.677
126.683
126.689
126.696
126.705
126.714
126.724
126.733
126.743
126.665
126.67
126.676
126.681
126.687
126.693
126.7
126.709
126.718
126.728
126.737
126.746
126.67
126.674
126.68
126.685
126.691
126.697
126.704
126.713
126.722
126.732
126.741
126.75
126.674
126.679
126.684
126.69
126.695
126.701
126.708
126.717
126.726
126.736
126.745
126.754
126.679
126.684
126.689
126.694
126.699
126.706
126.713
126.721
126.73
126.74
126.749
126.757
126.684
126.688
126.693
126.699
126.704
126.71
126.717
126.725
126.734
126.744
126.753
126.761
126.689
126.693
126.698
126.703
126.709
126.715
126.721
126.73
126.739
126.748
126.757
126.765
126.694
126.698
126.703
126.708
126.713
126.719
126.726
126.734
126.743
126.752
126.761
126.769
126.698
126.702
126.707
126.712
126.717
126.723
126.73
126.738
126.747
126.756
126.765
126.773
126.702
126.707
126.711
126.716
126.722
126.727
126.734
126.742
126.751
126.76
126.768
126.777
126.706
126.71
126.715
126.72
126.725
126.731
126.738
126.746
126.754
126.763
126.772
126.78
126.709
126.714
126.718
126.723
126.729
126.735
126.742
126.749
126.757