/*--------------------------------*- C++ -*----------------------------------*\
| =========                 |                                                 |
| \\      /  F ield         | OpenFOAM: The Open Source CFD Toolbox           |
|  \\    /   O peration     | Version:  v1912                                 |
|   \\  /    A nd           | Website:  www.openfoam.com                      |
|    \\/     M anipulation  |                                                 |
\*---------------------------------------------------------------------------*/
FoamFile
{
    version     2.0;
    format      ascii;
    class       volVectorField;
    location    "9.2";
    object      wallShearStress;
}
// * * * * * * * * * * * * * * * * * * * * * * * * * * * * * * * * * * * * * //

dimensions      [1 -1 -2 0 0 0 0];


internalField   uniform (0 0 0);

boundaryField
{
    leftWall
    {
        type            calculated;
        value           nonuniform List<vector> 
216
(
(3.46133e-05 -1.64877e-05 0.122545)
(6.41446e-05 -1.5698e-05 0.127207)
(8.33827e-05 -1.63689e-05 0.12785)
(6.88995e-05 -1.70444e-05 0.132194)
(8.05396e-05 -1.78937e-05 0.133596)
(4.95021e-05 -1.96865e-05 0.137886)
(8.1083e-06 -2.10631e-05 0.14002)
(-6.08682e-05 -2.39021e-05 0.144425)
(-0.000146695 -2.54591e-05 0.147286)
(-0.000233835 -2.84319e-05 0.151841)
(-0.000302759 -3.00443e-05 0.155343)
(-0.000362684 -3.29537e-05 0.159975)
(-0.000406293 -3.47577e-05 0.163968)
(-0.00047128 -3.7168e-05 0.168551)
(-0.000541274 -3.82797e-05 0.172864)
(-0.000623995 -3.93824e-05 0.177344)
(-0.000665808 -3.96219e-05 0.182054)
(-0.00067305 -4.07365e-05 0.186832)
(-9.22667e-05 -1.62048e-05 0.119966)
(-8.90812e-05 -1.58611e-05 0.124758)
(-7.18249e-05 -1.74577e-05 0.125614)
(-0.000101705 -1.88733e-05 0.130166)
(-8.08246e-05 -2.04469e-05 0.131898)
(-9.9192e-05 -2.25534e-05 0.136383)
(-9.01257e-05 -2.45406e-05 0.138843)
(-9.91622e-05 -2.71954e-05 0.143295)
(-9.67505e-05 -2.89062e-05 0.146348)
(-0.000105955 -3.10325e-05 0.150722)
(-8.5774e-05 -3.17209e-05 0.154234)
(-7.82474e-05 -3.29868e-05 0.158516)
(-3.5085e-05 -3.34563e-05 0.16242)
(-4.18792e-05 -3.4969e-05 0.166677)
(-4.77094e-05 -3.60921e-05 0.171015)
(-0.000141516 -3.80713e-05 0.175425)
(-0.000248402 -3.93951e-05 0.18042)
(-0.000424306 -4.19688e-05 0.185378)
(-0.000214681 -1.67734e-05 0.118028)
(-0.000261382 -1.64402e-05 0.122692)
(-0.000218078 -1.80386e-05 0.123621)
(-0.000256709 -1.95457e-05 0.128099)
(-0.000187012 -2.10079e-05 0.129967)
(-0.000193847 -2.27189e-05 0.134429)
(-0.000102119 -2.41061e-05 0.137075)
(-7.24922e-05 -2.57151e-05 0.141535)
(1.4357e-05 -2.66522e-05 0.144801)
(3.15779e-05 -2.803e-05 0.14922)
(8.27975e-05 -2.87306e-05 0.15297)
(7.00211e-05 -3.0314e-05 0.157391)
(9.58653e-05 -3.14218e-05 0.161638)
(5.63294e-05 -3.39174e-05 0.166245)
(3.08767e-05 -3.59995e-05 0.171147)
(-7.43771e-05 -3.98383e-05 0.176144)
(-0.000200194 -4.28303e-05 0.181779)
(-0.000373653 -4.73857e-05 0.187154)
(-0.000230724 -1.80245e-05 0.11934)
(-0.00032349 -1.73972e-05 0.123763)
(-0.000305339 -1.82315e-05 0.124564)
(-0.000366139 -1.96404e-05 0.128771)
(-0.000313189 -2.03259e-05 0.130459)
(-0.000347495 -2.20067e-05 0.134712)
(-0.000262027 -2.25361e-05 0.137194)
(-0.000267407 -2.38117e-05 0.141586)
(-0.000186603 -2.41987e-05 0.144761)
(-0.000183026 -2.56528e-05 0.149295)
(-0.00011894 -2.65257e-05 0.153037)
(-9.97715e-05 -2.89015e-05 0.157706)
(-4.05132e-05 -3.0394e-05 0.161965)
(-1.97487e-05 -3.34608e-05 0.166852)
(1.14647e-05 -3.54543e-05 0.171709)
(2.05415e-05 -3.93563e-05 0.176913)
(4.76532e-05 -4.27446e-05 0.182374)
(9.71142e-05 -4.78521e-05 0.187812)
(-0.000138606 -1.85433e-05 0.122437)
(-0.000237055 -1.79206e-05 0.126833)
(-0.000261076 -1.85943e-05 0.127472)
(-0.00031727 -1.99058e-05 0.131542)
(-0.000317944 -2.01343e-05 0.132929)
(-0.000358367 -2.18077e-05 0.136947)
(-0.000324735 -2.20034e-05 0.138997)
(-0.000362778 -2.35527e-05 0.143099)
(-0.000322878 -2.41472e-05 0.145778)
(-0.000332802 -2.59408e-05 0.15007)
(-0.000271953 -2.70256e-05 0.15336)
(-0.000219813 -2.91195e-05 0.157911)
(-0.000144624 -3.01858e-05 0.161793)
(-8.29052e-05 -3.23995e-05 0.166646)
(-3.31875e-05 -3.38019e-05 0.171145)
(3.31377e-05 -3.68919e-05 0.176385)
(0.000137864 -3.95869e-05 0.181647)
(0.000289782 -4.3982e-05 0.187497)
(-0.000107258 -1.78183e-05 0.125473)
(-0.000186549 -1.72522e-05 0.130074)
(-0.0002139 -1.79851e-05 0.130576)
(-0.00024266 -1.90073e-05 0.134726)
(-0.000266239 -1.91744e-05 0.135845)
(-0.000279773 -2.07866e-05 0.139785)
(-0.000259799 -2.12706e-05 0.141452)
(-0.000287552 -2.35714e-05 0.145348)
(-0.00024917 -2.48271e-05 0.147595)
(-0.000262674 -2.72711e-05 0.151643)
(-0.000210676 -2.8558e-05 0.154527)
(-0.000176443 -3.04145e-05 0.158868)
(-0.000133098 -3.14123e-05 0.162389)
(-9.51723e-05 -3.34011e-05 0.167085)
(-7.80322e-05 -3.51187e-05 0.171275)
(-3.91608e-05 -3.79371e-05 0.176458)
(8.87899e-06 -4.00556e-05 0.181535)
(7.71564e-05 -4.30914e-05 0.187492)
(-0.000165636 -1.71132e-05 0.127271)
(-0.00019687 -1.67271e-05 0.131955)
(-0.000207829 -1.73952e-05 0.132345)
(-0.000209565 -1.79741e-05 0.136544)
(-0.000239662 -1.81363e-05 0.137491)
(-0.000230011 -1.93208e-05 0.141451)
(-0.000203352 -1.98182e-05 0.142944)
(-0.000191685 -2.24336e-05 0.146871)
(-0.000121877 -2.3691e-05 0.148993)
(-0.00010377 -2.65705e-05 0.153088)
(-3.5738e-05 -2.76565e-05 0.155879)
(-6.0018e-06 -2.96305e-05 0.160237)
(3.22561e-05 -3.07209e-05 0.163661)
(6.25706e-05 -3.29075e-05 0.168337)
(8.61235e-05 -3.48733e-05 0.172473)
(0.000123452 -3.77824e-05 0.177659)
(0.00015777 -3.98355e-05 0.18274)
(0.000185534 -4.22081e-05 0.188653)
(-0.000219381 -1.69395e-05 0.126359)
(-0.000188066 -1.67307e-05 0.130884)
(-0.000184558 -1.75779e-05 0.13132)
(-0.000174057 -1.82551e-05 0.13545)
(-0.000215641 -1.90793e-05 0.136504)
(-0.00020948 -2.03351e-05 0.140517)
(-0.000203903 -2.11871e-05 0.142173)
(-0.000170973 -2.37768e-05 0.146244)
(-0.000108576 -2.47592e-05 0.148537)
(-7.42836e-05 -2.7529e-05 0.152761)
(-2.47209e-05 -2.79776e-05 0.155671)
(-2.11472e-05 -2.96985e-05 0.160051)
(-9.86664e-06 -3.01096e-05 0.163546)
(-2.48164e-05 -3.1674e-05 0.168145)
(-3.1273e-05 -3.27226e-05 0.172385)
(-5.50055e-05 -3.44638e-05 0.177478)
(-7.49994e-05 -3.56173e-05 0.182775)
(-0.000124294 -3.80433e-05 0.188677)
(-0.000218529 -1.66522e-05 0.123083)
(-0.000158526 -1.66483e-05 0.127352)
(-0.000150784 -1.8136e-05 0.127983)
(-0.000132625 -1.9718e-05 0.132005)
(-0.000169942 -2.17011e-05 0.133416)
(-0.000147248 -2.36902e-05 0.137462)
(-0.00014053 -2.51437e-05 0.139541)
(-6.01686e-05 -2.74309e-05 0.143685)
(1.73331e-05 -2.81645e-05 0.146328)
(0.000102248 -3.04176e-05 0.150505)
(0.000163131 -3.09018e-05 0.153601)
(0.000170204 -3.29997e-05 0.157744)
(0.000169406 -3.39751e-05 0.161281)
(0.000105079 -3.64292e-05 0.165483)
(4.14357e-05 -3.79359e-05 0.169658)
(-0.000102369 -4.02303e-05 0.1742)
(-0.000259335 -4.13223e-05 0.179291)
(-0.000467432 -4.34747e-05 0.184478)
(-0.000186815 -1.66922e-05 0.119357)
(-0.000137439 -1.67799e-05 0.123547)
(-0.000109032 -1.87295e-05 0.124362)
(-7.05038e-05 -2.08381e-05 0.128374)
(-6.20825e-05 -2.31737e-05 0.130132)
(-1.84694e-06 -2.50262e-05 0.134203)
(2.66864e-05 -2.60902e-05 0.136734)
(0.000136913 -2.72519e-05 0.14089)
(0.000221907 -2.7136e-05 0.144)
(0.000347539 -2.86428e-05 0.148152)
(0.000450678 -2.93439e-05 0.151719)
(0.000531986 -3.25081e-05 0.155864)
(0.000616197 -3.48586e-05 0.159953)
(0.000639271 -3.91604e-05 0.164274)
(0.000657013 -4.20905e-05 0.169067)
(0.00055672 -4.60459e-05 0.173747)
(0.000414259 -4.85563e-05 0.179286)
(0.000167159 -5.19855e-05 0.184336)
(-0.000160798 -1.63862e-05 0.118348)
(-0.000157216 -1.61673e-05 0.122802)
(-0.000109082 -1.75772e-05 0.12371)
(-8.61353e-05 -1.90685e-05 0.127937)
(-4.1975e-05 -2.05509e-05 0.129861)
(1.45636e-06 -2.18251e-05 0.134048)
(2.04198e-05 -2.22796e-05 0.136803)
(9.68154e-05 -2.307e-05 0.141016)
(0.000147657 -2.3029e-05 0.144443)
(0.000262941 -2.44886e-05 0.14873)
(0.000370085 -2.53461e-05 0.152803)
(0.000502893 -2.85204e-05 0.157313)
(0.000637044 -3.07327e-05 0.162157)
(0.000742813 -3.4841e-05 0.167088)
(0.000820511 -3.73687e-05 0.172785)
(0.000814905 -4.13886e-05 0.178169)
(0.000770116 -4.43e-05 0.184562)
(0.000667667 -4.88245e-05 0.190231)
(-0.000244741 -1.68914e-05 0.120302)
(-0.000310528 -1.6426e-05 0.125191)
(-0.000251876 -1.73504e-05 0.126059)
(-0.000291524 -1.84224e-05 0.130586)
(-0.000231733 -1.9236e-05 0.132388)
(-0.000251541 -2.02484e-05 0.136695)
(-0.000250596 -2.05108e-05 0.13921)
(-0.000244556 -2.11341e-05 0.143384)
(-0.000242872 -2.09165e-05 0.146506)
(-0.000184616 -2.19635e-05 0.150718)
(-0.000115677 -2.24201e-05 0.154548)
(7.10532e-06 -2.47083e-05 0.159082)
(0.000141358 -2.60791e-05 0.163806)
(0.000279181 -2.88956e-05 0.168871)
(0.00039187 -3.06742e-05 0.174532)
(0.000463899 -3.39808e-05 0.180154)
(0.000509264 -3.67906e-05 0.186679)
(0.000555253 -4.10287e-05 0.192846)
)
;
    }
    rightWall
    {
        type            calculated;
        value           nonuniform List<vector> 
216
(
(0.000201199 6.94936e-06 0.349894)
(0.000323757 7.26776e-06 0.350544)
(0.000329071 6.98255e-06 0.350753)
(0.000397398 6.09021e-06 0.351325)
(0.000414338 5.42251e-06 0.35184)
(0.000478148 3.39577e-06 0.352648)
(0.000484231 2.12655e-06 0.353573)
(0.000553036 1.0854e-06 0.354837)
(0.000513151 1.43445e-06 0.3564)
(0.0004922 3.79547e-06 0.358376)
(0.000339186 6.71204e-06 0.360752)
(0.000189738 1.12435e-05 0.363484)
(-3.00217e-05 1.45827e-05 0.366513)
(-0.000143901 1.84097e-05 0.369571)
(-0.00026588 2.052e-05 0.372714)
(-0.000222399 2.22039e-05 0.375341)
(-0.00021417 2.26485e-05 0.378058)
(-4.83913e-05 2.23266e-05 0.379817)
(0.000334033 7.07042e-06 0.351418)
(0.000529259 6.59496e-06 0.352898)
(0.000489563 6.70932e-06 0.353005)
(0.00054483 6.15175e-06 0.354145)
(0.000456615 5.78198e-06 0.354392)
(0.000402966 4.13671e-06 0.355366)
(0.000218981 3.31833e-06 0.355776)
(0.000118803 2.20227e-06 0.356776)
(-8.52227e-05 3.27579e-06 0.357571)
(-0.000138034 5.52956e-06 0.358948)
(-0.000283127 9.33022e-06 0.360409)
(-0.000278771 1.40052e-05 0.36243)
(-0.000364219 1.76442e-05 0.364646)
(-0.000300926 2.05898e-05 0.367214)
(-0.000263457 2.15554e-05 0.369981)
(-0.000112123 2.16449e-05 0.372648)
(4.19089e-05 2.12346e-05 0.375702)
(0.000190821 2.02286e-05 0.37813)
(0.000307282 5.78731e-06 0.350555)
(0.00054457 4.22176e-06 0.35252)
(0.000553038 4.57162e-06 0.352818)
(0.000659427 4.21648e-06 0.354412)
(0.000610829 4.73184e-06 0.354991)
(0.000571976 4.70986e-06 0.356304)
(0.00040751 5.84404e-06 0.357108)
(0.000293828 6.56594e-06 0.35826)
(0.000127352 8.37172e-06 0.359384)
(0.000111655 9.79096e-06 0.36057)
(4.1028e-05 1.17559e-05 0.362084)
(0.000125848 1.36619e-05 0.363427)
(8.81071e-05 1.5814e-05 0.365332)
(0.000164615 1.80115e-05 0.36693)
(0.000165172 1.98654e-05 0.369316)
(0.000208926 2.17258e-05 0.371267)
(0.00029708 2.33225e-05 0.374344)
(0.000310448 2.49772e-05 0.376712)
(0.000112407 3.45095e-06 0.347814)
(0.000237338 8.41963e-07 0.349789)
(0.000217356 6.15388e-07 0.350435)
(0.000264579 -4.76814e-07 0.352242)
(0.000219531 8.74307e-08 0.353478)
(0.000186439 3.63096e-07 0.355264)
(7.91794e-05 1.99111e-06 0.35701)
(1.43297e-05 3.39914e-06 0.35889)
(-7.95444e-05 4.72678e-06 0.361155)
(-5.98077e-05 5.49233e-06 0.363086)
(-8.44941e-05 5.7839e-06 0.365684)
(4.03395e-05 6.059e-06 0.367417)
(7.56442e-05 7.01447e-06 0.370061)
(0.000253911 8.7052e-06 0.371477)
(0.000361192 1.139e-05 0.37415)
(0.000526434 1.52189e-05 0.375483)
(0.000711663 1.88798e-05 0.378564)
(0.000822667 2.30484e-05 0.380285)
(-9.98128e-05 5.09768e-06 0.346385)
(-0.000164477 2.86113e-06 0.34825)
(-0.000275408 3.52383e-06 0.348864)
(-0.000367272 2.65101e-06 0.350568)
(-0.000479586 3.77792e-06 0.351732)
(-0.000582503 3.56183e-06 0.353428)
(-0.000718456 5.20609e-06 0.355017)
(-0.00079095 6.38267e-06 0.356793)
(-0.000892455 7.63551e-06 0.358865)
(-0.000869471 8.85313e-06 0.3607)
(-0.000874519 9.09633e-06 0.363248)
(-0.00072457 9.36653e-06 0.364998)
(-0.00060506 9.48166e-06 0.367911)
(-0.000331427 9.57005e-06 0.369511)
(-8.98455e-05 1.02643e-05 0.372776)
(0.000240189 1.1473e-05 0.374458)
(0.000532587 1.28401e-05 0.378387)
(0.000776827 1.55593e-05 0.380714)
(-8.20056e-05 1.00721e-05 0.346942)
(-0.000208406 9.13022e-06 0.348626)
(-0.000257989 1.10447e-05 0.348901)
(-0.000364783 1.13468e-05 0.350274)
(-0.000411494 1.31156e-05 0.35083)
(-0.000509266 1.3168e-05 0.352049)
(-0.000581019 1.46739e-05 0.352774)
(-0.00061163 1.52984e-05 0.353865)
(-0.000669602 1.60861e-05 0.354865)
(-0.000633739 1.68112e-05 0.355879)
(-0.000650332 1.68235e-05 0.357392)
(-0.000575981 1.71055e-05 0.358475)
(-0.000520856 1.69792e-05 0.36075)
(-0.000409165 1.62528e-05 0.362144)
(-0.000327148 1.52773e-05 0.365351)
(-0.000241057 1.36624e-05 0.36735)
(-0.000228913 1.25424e-05 0.371667)
(-0.000192837 1.33423e-05 0.374656)
(0.00022537 1.14575e-05 0.347974)
(0.000169657 1.10661e-05 0.349189)
(0.000222482 1.2397e-05 0.349274)
(0.000202901 1.327e-05 0.350212)
(0.000244429 1.48606e-05 0.350494)
(0.000221384 1.55894e-05 0.351451)
(0.000217949 1.66069e-05 0.351935)
(0.000225794 1.66829e-05 0.352949)
(0.000187189 1.66467e-05 0.353764)
(0.000189852 1.64287e-05 0.354837)
(0.000128646 1.61919e-05 0.35618)
(9.18647e-05 1.63854e-05 0.357413)
(4.29853e-05 1.629e-05 0.359488)
(-3.65936e-05 1.65143e-05 0.36104)
(-0.000153785 1.66335e-05 0.363893)
(-0.000329579 1.7856e-05 0.365862)
(-0.000559388 1.98154e-05 0.369497)
(-0.000692683 2.31305e-05 0.372076)
(0.000582948 7.92387e-06 0.349832)
(0.000616114 7.32572e-06 0.351119)
(0.000669318 7.82565e-06 0.351318)
(0.000722266 8.28614e-06 0.352412)
(0.000746279 9.41285e-06 0.352916)
(0.000768693 9.94149e-06 0.354164)
(0.000717076 1.06988e-05 0.354995)
(0.000679609 1.03161e-05 0.356469)
(0.000543855 1.00751e-05 0.357684)
(0.000439528 9.31565e-06 0.359337)
(0.000286514 8.99964e-06 0.360961)
(0.000171485 9.29012e-06 0.36276)
(5.9383e-05 9.57671e-06 0.364832)
(-2.94735e-05 1.14498e-05 0.366809)
(-0.000125353 1.37011e-05 0.369359)
(-0.000161192 1.84139e-05 0.371531)
(-0.000216408 2.3158e-05 0.374587)
(-0.000153118 2.82936e-05 0.376956)
(0.000499373 3.04238e-06 0.352592)
(0.000522075 1.39779e-06 0.354549)
(0.000562794 1.78485e-06 0.35487)
(0.000604421 1.11226e-06 0.356613)
(0.000616918 2.08626e-06 0.357311)
(0.000633208 1.82515e-06 0.359046)
(0.000560441 3.27422e-06 0.360051)
(0.000483774 3.39168e-06 0.36181)
(0.000296015 4.6841e-06 0.363038)
(0.000139087 5.11496e-06 0.364766)
(-7.08735e-05 5.89173e-06 0.366105)
(-0.000198038 6.92636e-06 0.367747)
(-0.000333324 7.98438e-06 0.369198)
(-0.000364816 1.04246e-05 0.370871)
(-0.000368823 1.31098e-05 0.372741)
(-0.000223609 1.69398e-05 0.374781)
(-3.35548e-05 2.05896e-05 0.377477)
(0.000244399 2.3983e-05 0.379991)
(0.000102403 1.53938e-06 0.353208)
(3.8669e-05 -6.13044e-07 0.355387)
(7.55515e-05 -5.30518e-07 0.355695)
(2.45623e-05 -2.09804e-06 0.357576)
(4.94009e-05 -1.62805e-06 0.358242)
(1.40371e-05 -2.26088e-06 0.359946)
(1.48829e-05 -1.49847e-07 0.360887)
(-1.02442e-05 1.36866e-06 0.362484)
(-6.93132e-05 4.75619e-06 0.363627)
(-9.90253e-05 7.27591e-06 0.365153)
(-0.000193276 9.78501e-06 0.366386)
(-0.000197244 1.16579e-05 0.367747)
(-0.000264507 1.2975e-05 0.368976)
(-0.000238349 1.46625e-05 0.370201)
(-0.000228718 1.62551e-05 0.371746)
(-0.000130825 1.80261e-05 0.373344)
(3.96573e-05 1.93973e-05 0.375919)
(0.000237267 2.00278e-05 0.37838)
(-0.0002299 1.56459e-06 0.352701)
(-0.000371528 -5.70124e-07 0.355049)
(-0.000327833 -2.5303e-07 0.355345)
(-0.000481231 -1.69915e-06 0.357297)
(-0.000442291 -1.19122e-06 0.357909)
(-0.000527135 -1.66461e-06 0.359539)
(-0.000441613 1.52016e-07 0.360365)
(-0.000383861 1.61812e-06 0.361787)
(-0.000277025 4.91677e-06 0.362851)
(-0.000136397 7.4325e-06 0.364201)
(-6.17916e-05 1.02932e-05 0.365515)
(8.93551e-05 1.20165e-05 0.366722)
(0.000138911 1.3781e-05 0.368182)
(0.000248416 1.54628e-05 0.36919)
(0.000296307 1.77142e-05 0.370987)
(0.000337494 2.01264e-05 0.372206)
(0.000390491 2.2153e-05 0.374916)
(0.000341877 2.33752e-05 0.376871)
(-0.000674399 4.22993e-06 0.351627)
(-0.0009107 2.55087e-06 0.354086)
(-0.000797485 3.22289e-06 0.354338)
(-0.00102315 2.83598e-06 0.356337)
(-0.000909394 3.39603e-06 0.356883)
(-0.00101309 3.34202e-06 0.358514)
(-0.000830136 3.79968e-06 0.359245)
(-0.000740094 3.95229e-06 0.360562)
(-0.000494092 5.31787e-06 0.36153)
(-0.00028286 6.03212e-06 0.362648)
(-5.91161e-05 8.06533e-06 0.363987)
(0.000154501 8.98735e-06 0.36497)
(0.0003186 1.08761e-05 0.366807)
(0.000471171 1.22002e-05 0.367792)
(0.000611833 1.43754e-05 0.370373)
(0.000714411 1.70881e-05 0.37164)
(0.000859131 2.04613e-05 0.375149)
(0.000858535 2.47598e-05 0.37687)
)
;
    }
    leftSides_periodic0
    {
        type            cyclic;
    }
    leftSides_periodic1
    {
        type            cyclic;
    }
    rightSides_periodic0
    {
        type            cyclic;
    }
    rightSides_periodic1
    {
        type            cyclic;
    }
    leftInOut_periodic0
    {
        type            calculated;
        value           uniform (0 0 0);
    }
    leftInOut_periodic1
    {
        type            calculated;
        value           nonuniform 0();
    }
    rightInOut_periodic0
    {
        type            calculated;
        value           uniform (0 0 0);
    }
    rightInOut_periodic1
    {
        type            calculated;
        value           nonuniform 0();
    }
    procBoundary1to0
    {
        type            processor;
        value           uniform (0 0 0);
    }
    procBoundary1to2
    {
        type            processor;
        value           uniform (0 0 0);
    }
    procBoundary1to4
    {
        type            processor;
        value           uniform (0 0 0);
    }
}


// ************************************************************************* //
