/*--------------------------------*- C++ -*----------------------------------*\
| =========                 |                                                 |
| \\      /  F ield         | OpenFOAM: The Open Source CFD Toolbox           |
|  \\    /   O peration     | Version:  v1906                                 |
|   \\  /    A nd           | Web:      www.OpenFOAM.com                      |
|    \\/     M anipulation  |                                                 |
\*---------------------------------------------------------------------------*/
FoamFile
{
    version     2.0;
    format      ascii;
    class       volScalarField;
    location    "100";
    object      omega;
}
// * * * * * * * * * * * * * * * * * * * * * * * * * * * * * * * * * * * * * //

dimensions      [0 0 -1 0 0 0 0];


internalField   nonuniform List<scalar> 
634
(
156509
156509
156509
156509
26944.2
26985
26963.3
27043.4
9169.12
9177.89
9179.4
9224.79
4399.35
4387.03
4403.74
4422.94
2577.04
2555.39
2579.33
2583.12
1720.07
1695.95
1721.95
1717.1
1258.37
1235.14
1260.19
1251.09
983.545
962.615
985.104
974.584
806.262
788.057
807.237
797.147
683.865
668.303
683.96
675.465
594.393
581.165
593.386
587.156
525.876
514.606
523.625
519.985
471.272
461.603
467.719
466.83
426.238
417.855
421.396
423.292
388.091
380.72
382.02
386.601
355.105
348.506
347.895
354.982
326.132
320.091
317.89
327.252
300.375
294.703
291.216
302.6
277.262
271.792
267.309
280.448
256.36
250.958
245.758
260.367
237.326
231.916
226.289
242.03
219.896
214.486
208.749
225.177
203.898
198.584
193.083
209.609
189.265
184.185
179.258
195.196
176.015
171.262
167.199
181.882
164.18
159.746
156.734
169.675
153.728
149.521
147.581
158.595
144.555
140.466
139.275
148.629
136.532
132.472
131.294
139.705
129.552
125.433
123.396
131.722
123.524
119.261
115.806
124.594
118.382
113.897
108.872
118.242
114.066
109.294
102.725
112.601
110.427
105.42
97.2273
107.626
106.886
102.257
92.2526
103.296
102.472
99.7927
87.7452
99.5972
96.7925
97.9321
83.6569
96.5338
90.9339
96.249
79.9407
94.1286
85.8458
93.6902
76.5517
92.418
81.4765
89.1316
73.4501
91.3612
77.5713
83.6706
70.5991
90.6062
74.0243
78.8418
67.968
89.0472
70.79
74.698
65.5354
85.0064
67.8273
70.9576
63.2909
79.4965
65.0957
67.528
61.2348
74.6383
62.5509
64.3693
59.3732
70.4931
60.1539
61.4503
57.7155
66.5977
57.8804
58.746
56.273
62.8408
55.7136
56.2327
55.0614
59.3204
53.6389
53.8901
54.1071
56.0726
51.6428
51.7025
53.4485
53.0566
49.7059
49.6584
53.1579
50.2413
47.8261
47.7411
53.3179
47.6089
46.0038
45.9271
54.0316
45.1432
44.2421
44.2108
55.3587
42.831
42.5359
42.5882
57.2743
40.6626
40.8973
41.0566
58.9991
38.6317
39.3399
39.6132
57.1689
36.7369
37.8777
38.2535
52.5487
34.9809
36.5237
36.9719
48.4237
33.3701
35.2897
35.7627
44.8916
31.9121
34.185
34.622
41.6075
30.6097
33.2394
33.548
38.6542
29.4547
32.4587
32.5412
36.0434
28.4367
31.8475
31.605
33.7548
27.5479
31.4072
30.7269
31.7449
26.7855
31.1374
29.9095
29.9536
26.1502
31.0386
29.1576
28.3538
25.6459
31.1078
28.4785
26.9645
25.2805
31.3467
27.8814
25.7772
25.0665
31.755
27.3788
24.7558
25.0207
32.3318
26.997
23.8689
25.1606
33.0684
26.746
23.0883
25.521
33.9468
26.6379
22.3895
26.1331
34.9577
26.6835
21.77
27.0299
36.1056
26.8958
21.226
28.1505
37.3664
27.2832
20.7503
29.4701
38.7335
27.8668
20.3359
31.0947
40.2254
28.6475
19.9807
33.083
156509
156509
156509
156509
25851
25083.1
27056.1
25213.6
8895.45
8558.81
9345.86
8636.17
4268.93
4175.09
4482.08
4193.66
2480.21
2482.93
2612.71
2473.7
1630.74
1670.62
1735.36
1648.64
1169.8
1224.01
1263.81
1196.45
894.848
954.059
983.058
924.857
718.306
778.133
801.443
749.75
597.749
655.872
675.519
629.882
510.884
566.065
583.037
543.386
445.293
496.989
511.906
478.027
393.743
441.891
455.168
426.677
351.87
396.637
408.567
385.043
316.953
358.541
369.342
350.378
287.229
325.857
335.704
320.836
261.512
297.424
306.449
295.191
238.998
272.44
280.731
272.609
219.141
250.325
257.942
252.512
201.541
230.641
237.636
234.481
185.889
213.073
219.484
218.206
171.959
197.352
203.242
203.451
159.602
183.253
188.723
190.028
148.606
170.591
175.769
177.782
138.795
159.206
164.223
166.579
130.019
148.965
153.93
156.302
122.151
139.746
144.751
146.846
115.082
131.422
136.563
138.138
108.718
123.876
129.252
130.102
102.982
117.019
122.719
122.672
97.8055
110.776
116.881
115.79
93.1338
105.081
111.663
109.403
88.9188
99.8775
106.992
103.47
85.1194
95.1179
102.806
97.9583
81.7007
90.761
99.0522
92.8431
78.6321
86.7714
95.681
88.0983
75.8838
83.1193
92.6274
83.6849
73.4239
79.779
89.8492
79.5666
71.2192
76.7279
87.296
75.7194
69.2384
73.9433
84.8832
72.1244
67.4526
71.4002
82.3932
68.7674
65.8361
69.0722
79.528
65.6374
64.3663
66.8465
76.1935
62.7219
62.9206
64.6976
72.6629
60.0026
61.4735
62.6029
69.2773
57.457
59.9949
60.5521
66.1101
55.0627
58.4558
58.5485
63.0859
52.8011
56.8447
56.5968
60.1769
50.6573
55.196
54.7044
57.3952
48.6191
53.5443
52.8804
54.7503
46.6771
51.9104
51.1312
52.2491
44.8236
50.3189
49.4605
49.8864
43.0528
48.7859
47.8689
47.666
41.3602
47.3169
46.3518
45.5815
39.7423
45.8887
44.9244
43.6274
38.1966
44.4087
43.5813
41.7999
36.7209
42.8093
42.3134
40.0962
35.3136
41.2515
41.1087
38.5113
33.9737
39.8433
39.9516
37.0351
32.7004
38.5657
38.816
35.6529
31.4933
37.4303
37.6949
34.3494
30.3525
36.4442
36.585
33.113
29.2792
35.5835
35.489
31.9356
28.276
34.8509
34.4126
30.8127
27.346
34.2492
33.362
29.7427
26.493
33.7819
32.3644
28.7255
25.7213
33.4541
31.4324
27.7623
25.0353
33.2726
30.577
26.8557
24.4387
33.1904
29.8068
26.0105
23.9361
33.2037
29.129
25.2168
23.5328
33.3068
28.548
24.4503
23.2235
33.4923
28.0517
23.7225
22.9853
33.7523
27.6462
23.0454
22.8155
34.077
27.3364
22.4301
22.7169
34.4531
27.1275
21.8859
22.691
34.852
27.0245
21.421
22.7478
35.2286
27.0347
21.0422
22.944
35.5242
27.163
20.7544
23.334
35.7507
27.4151
20.5605
23.9522
35.965
27.7945
)
;

boundaryField
{
    leftWall
    {
        Cmu             0.09;
        kappa           0.41;
        E               9.8;
        beta1           0.075;
        blended         true;
        type            omegaWallFunction;
        value           nonuniform List<scalar> 8(156509 156509 156509 156509 156509 156509 156509 156509);
    }
    rightWall
    {
        Cmu             0.09;
        kappa           0.41;
        E               9.8;
        beta1           0.075;
        blended         true;
        type            omegaWallFunction;
        value           nonuniform 0();
    }
    leftSides_periodic0
    {
        type            cyclic;
    }
    leftSides_periodic1
    {
        type            cyclic;
    }
    rightSides_periodic0
    {
        type            cyclic;
    }
    rightSides_periodic1
    {
        type            cyclic;
    }
    leftInOut_periodic0
    {
        type            cyclic;
    }
    leftInOut_periodic1
    {
        type            cyclic;
    }
    rightInOut_periodic0
    {
        type            cyclic;
    }
    rightInOut_periodic1
    {
        type            cyclic;
    }
    procBoundary2to0
    {
        type            processor;
        value           nonuniform List<scalar> 
316
(
156508
156508
156509
156508
26917.6
26932.2
27019.3
26947.7
9113.68
9141.26
9213.54
9150.18
4314.76
4355.34
4417.42
4357.16
2469.64
2521.81
2581.38
2517.14
1597.61
1658.46
1719.34
1648.37
1128.11
1194.04
1256.59
1179.81
851.806
919.11
982.069
902.186
678.07
743.39
805.245
725.225
562.781
623.569
683.069
605.351
482.56
537.211
593.548
519.764
424.242
472.039
524.8
455.819
380.078
421.02
470.05
406.181
345.357
379.942
425.074
366.426
317.141
346.049
387.167
333.792
293.528
317.449
354.611
306.405
273.239
292.875
326.244
282.948
255.425
271.448
301.25
262.523
239.525
252.542
279.036
244.498
225.164
235.704
259.161
228.415
212.087
220.594
241.287
213.934
200.109
206.943
225.153
200.802
189.064
194.55
210.54
188.822
178.789
183.256
197.249
177.846
169.123
172.947
185.079
167.763
159.942
163.541
173.826
158.486
151.208
154.942
163.324
149.951
143
147.069
153.498
142.104
135.463
139.853
144.386
134.893
128.698
133.234
136.079
128.271
122.714
127.158
128.614
122.198
117.457
121.576
121.918
116.64
112.854
116.438
115.746
111.567
108.846
111.695
109.768
106.95
105.386
107.287
103.666
102.764
102.418
103.146
97.3791
98.9831
99.8593
99.1879
91.2557
95.5731
97.4368
95.3219
85.7336
92.4913
94.5414
91.4127
80.8528
89.6766
90.4844
87.4028
76.493
87.0392
85.2988
83.3209
72.6245
84.4553
80.0378
79.2675
69.2324
81.7775
75.2377
75.3659
66.2605
78.881
70.7911
71.7188
63.6479
75.7347
66.7202
68.3841
61.347
72.3968
63.0729
65.347
59.3215
68.9624
59.8121
62.5645
57.5437
65.5496
56.8863
60.0173
55.9994
62.2732
54.2643
57.6924
54.6788
59.2008
51.9093
55.579
53.5759
56.3643
49.7911
53.6685
52.6866
53.7519
47.9028
51.9537
52.0001
51.3467
46.2261
50.4396
51.5029
49.1364
44.7486
49.131
51.1667
47.1197
43.4614
47.9595
50.9515
45.3079
42.3528
46.7474
50.8013
43.7139
41.4136
45.1474
50.6457
42.3529
40.6538
43.0612
50.4065
41.2457
40.091
40.9762
50.0188
40.3328
39.7462
39.0849
49.2504
39.442
39.6416
37.3229
47.606
38.1733
39.7934
35.6817
44.9537
36.2623
40.2221
34.2138
42.2011
34.3131
40.8523
32.9176
39.7654
32.6454
40.8917
31.7857
37.4814
31.168
39.5407
30.807
35.3128
29.8082
37.6775
29.9697
33.2647
28.5977
36.0079
29.2682
31.3434
27.5715
34.5664
28.7022
29.5563
26.7443
33.3573
28.2678
27.9049
26.111
32.4338
27.9609
26.3806
25.6688
31.8701
27.7755
24.9419
25.4176
31.5938
27.7026
23.6193
25.3635
31.6765
27.7249
22.5075
25.5095
32.16
27.8109
21.6201
25.8567
32.9806
27.8813
20.9147
26.4027
34.0203
27.8392
20.3803
27.1407
35.1083
27.7819
20.0062
28.059
36.1791
27.8245
19.7836
29.1322
)
;
    }
    procBoundary2to0throughleftSides_periodic1
    {
        type            processorCyclic;
        value           nonuniform List<scalar> 
314
(
156509
26853.4
9139.15
4406.51
2599.74
1746.81
1282.76
1002.13
817.482
687.402
590.624
515.464
455.085
405.315
363.506
327.904
297.316
270.88
247.924
227.916
210.422
195.057
181.47
169.429
158.725
149.173
140.618
132.929
125.997
119.733
114.06
108.917
104.253
100.025
96.1959
92.7341
89.5846
86.6917
84.0294
81.5841
79.3626
77.3892
75.6855
74.326
73.2765
72.316
70.7438
67.3247
63.5762
60.1254
56.6602
53.4329
50.4533
47.7233
45.3164
43.2476
41.5083
40.0755
38.9151
38.0032
37.3159
36.8292
36.5146
36.3448
36.2927
36.3414
36.5125
36.8331
37.3517
38.0615
38.9453
39.9718
41.1694
42.5314
44.0072
45.5546
46.9934
46.7164
45.4107
156509
27142
9286.2
4454.51
2598.33
1724.45
1254.2
974.591
794.175
669.318
577.666
507.12
450.77
404.43
365.423
332.004
303.01
277.625
255.272
235.532
218.061
202.594
188.891
176.722
165.88
156.169
147.442
139.57
132.443
125.967
120.065
114.669
109.722
105.174
100.983
97.1098
93.5241
90.1994
87.1489
84.3547
81.8001
79.4669
77.3683
75.2752
72.7261
69.3774
65.9019
62.7713
59.9003
57.2688
54.8618
52.6637
50.6627
48.848
47.1819
45.6366
44.1843
42.8015
41.4683
40.1525
38.7934
37.3826
35.9784
34.6309
33.3722
32.2296
31.2255
30.3717
29.6708
29.1241
28.7303
28.4884
28.3969
28.4508
28.6523
29.0034
29.511
30.1864
31.0826
156509
26888.3
9142.34
4389.62
2575.08
1721.94
1261.74
986.811
808.409
684.372
593.081
522.721
466.495
420.185
381.106
347.521
318.23
292.36
269.261
248.466
229.666
212.688
197.43
183.787
171.612
160.729
150.989
142.269
134.462
127.469
121.207
115.606
110.606
106.162
102.241
98.8217
95.9062
93.4746
91.52
89.8807
88.0806
84.9648
80.1857
75.6415
71.4601
67.4673
63.9327
60.7812
57.9883
55.528
53.3667
51.4681
49.7832
48.2802
46.9266
45.6905
44.5405
43.4462
42.3789
41.3121
40.1239
38.8137
37.4115
35.979
34.5647
33.1786
31.8229
30.501
29.2157
27.9806
26.8197
25.7261
24.7008
23.7686
22.9456
22.2538
21.6904
21.2541
156509
27207.1
9344.17
4505.24
2643.87
1765.86
1291.71
1008.35
824.447
696.488
602.153
529.3
470.983
422.929
382.388
347.577
317.29
290.668
267.085
246.073
227.29
210.486
195.47
182.069
170.098
159.375
149.739
141.039
133.159
125.998
119.471
113.506
108.038
103.011
98.3764
94.0842
90.097
86.3765
82.8876
79.5975
76.4761
73.4965
70.6371
67.8839
65.2279
62.6663
60.1958
57.8117
55.5151
53.2919
51.1389
49.0607
47.0611
45.1442
43.3143
41.5729
39.9197
38.3515
36.8607
35.4363
34.0673
32.7535
31.5142
30.3678
29.3281
28.4034
27.5999
26.921
26.3676
25.9379
25.6357
25.4756
25.4553
25.5643
25.801
26.1489
26.5723
27.0458
)
;
    }
    procBoundary2to1throughleftSides_periodic1
    {
        type            processorCyclic;
        value           nonuniform List<scalar> 2(20.9319 27.574);
    }
    procBoundary2to1throughrightSides_periodic1
    {
        type            processorCyclic;
        value           nonuniform List<scalar> 2(44.3752 32.1605);
    }
    procBoundary2to3
    {
        type            processor;
        value           nonuniform List<scalar> 
11
(
41.8324
29.6109
19.7022
35.4176
20.4621
24.8347
41.8324
29.6109
36.1904
20.4621
28.295
)
;
    }
    procBoundary2to3throughrightInOut_periodic1
    {
        type            processorCyclic;
        value           uniform 24.8347;
    }
}


// ************************************************************************* //
