
400
(
0.0462734
0.0468221
0.047767
0.0467608
0.0472837
0.0486552
0.0477387
0.0495076
0.0482362
0.050417
0.0487744
0.0514022
0.0493407
0.0524429
0.0499347
0.0535188
0.0505624
0.0546158
0.0512309
0.0557228
0.0519467
0.0568303
0.0527125
0.0579322
0.0535215
0.0590254
0.0543618
0.0600879
0.0552249
0.061076
0.0561074
0.0619688
0.0570084
0.0627881
0.0579287
0.0635687
0.0588706
0.0643318
0.059837
0.0650841
0.0608312
0.0658263
0.0618556
0.0665601
0.0629125
0.0672869
0.0640041
0.0680076
0.0651325
0.0687221
0.0662994
0.0694303
0.0675041
0.0701313
0.0687433
0.0708242
0.0700366
0.071508
0.0714451
0.0721823
0.0730042
0.0728479
0.0746314
0.0735079
0.0761874
0.0741666
0.077641
0.0748293
0.079071
0.0755001
0.0805445
0.076183
0.082084
0.0768823
0.0836903
0.0776039
0.0853643
0.0783537
0.0871232
0.0791325
0.0889804
0.0799335
0.0909123
0.0807503
0.0928626
0.0815912
0.0947886
0.0824762
0.0966984
0.0834206
0.098625
0.0844181
0.100571
0.0854358
0.102516
0.0864362
0.104463
0.0874147
0.106443
0.0884001
0.108481
0.0894222
0.110576
0.0904924
0.112714
0.091606
0.114882
0.0927522
0.117069
0.0939185
0.119261
0.0950863
0.121432
0.096229
0.123545
0.0973145
0.125556
0.0983034
0.127409
0.0991459
0.129032
0.0997785
0.130335
0.10012
0.131196
0.100066
0.131461
0.0994862
0.130954
0.098235
0.129506
0.0961767
0.126979
0.0932017
0.123296
0.0892546
0.118465
0.0843564
0.112584
0.0786058
0.105803
0.0721572
0.0982659
0.0651805
0.0900637
0.0578225
0.0811987
0.0501909
0.0715619
0.0423666
0.0608785
0.0344575
0.0486742
0.0268446
0.0373164
0.0233433
0.0904101
0.0868299
1
1
0.0472299
0.0464279
0.0479563
0.0486807
0.0494884
0.0504187
0.0514659
0.0526044
0.0538365
0.0552239
0.0567465
0.0582111
0.0595458
0.060864
0.0621598
0.0633145
0.0643203
0.065275
0.0662472
0.0672556
0.0682961
0.0693631
0.0704551
0.07157
0.0726994
0.0738418
0.0750212
0.076264
0.0775492
0.0788245
0.080034
0.0811095
0.0820379
0.0828842
0.0837077
0.0845314
0.08536
0.0861919
0.0870263
0.0878629
0.088701
0.0895403
0.0903803
0.0912203
0.0920606
0.0929023
0.0937466
0.0945947
0.0954475
0.0963047
0.0971642
0.0980224
0.0988741
0.0997123
0.100527
0.101304
0.102025
0.102664
0.103185
0.103542
0.103673
0.103497
0.102911
0.101796
0.100031
0.0975033
0.0941209
0.0898381
0.0846772
0.0787375
0.0721815
0.0651968
0.0579511
0.0505567
0.0430521
0.0354089
0.0277501
0.0240976
0.0868163
1
0.046285
0.0459405
0.0465848
0.0469118
0.0473077
0.0477908
0.0483636
0.0490203
0.0497831
0.0507319
0.0518629
0.0529914
0.0540419
0.0551379
0.0563086
0.057453
0.0585406
0.0596351
0.0607859
0.0620086
0.063301
0.0646585
0.0660806
0.0675665
0.0691098
0.0707109
0.072394
0.0741831
0.0760777
0.0780873
0.0801903
0.082233
0.0840587
0.085696
0.0872786
0.088893
0.0905617
0.0922783
0.094037
0.0958535
0.0977479
0.0997023
0.101652
0.103533
0.105338
0.107109
0.108882
0.110674
0.112496
0.114348
0.116223
0.118106
0.119982
0.121842
0.123678
0.125479
0.127228
0.128894
0.130438
0.131805
0.132927
0.133712
0.134041
0.133771
0.132751
0.130833
0.127899
0.123879
0.118786
0.112716
0.105827
0.0982821
0.0901922
0.0815645
0.0722474
0.0618299
0.0495796
0.0380706
0.0903964
1
0.0468221
0.0462734
0.0472837
0.0477387
0.0482362
0.0487744
0.0493407
0.0499347
0.0505624
0.0512309
0.0519467
0.0527125
0.0535215
0.0543618
0.0552249
0.0561074
0.0570084
0.0579287
0.0588706
0.059837
0.0608312
0.0618556
0.0629125
0.0640041
0.0651325
0.0662994
0.0675041
0.0687433
0.0700366
0.0714451
0.0730042
0.0746314
0.0761874
0.077641
0.079071
0.0805445
0.082084
0.0836903
0.0853643
0.0871232
0.0889804
0.0909123
0.0928626
0.0947886
0.0966984
0.098625
0.100571
0.102516
0.104463
0.106443
0.108481
0.110576
0.112714
0.114882
0.117069
0.119261
0.121432
0.123545
0.125556
0.127409
0.129032
0.130335
0.131196
0.131461
0.130954
0.129506
0.126979
0.123296
0.118465
0.112584
0.105803
0.0982659
0.0900637
0.0811987
0.0715619
0.0608785
0.0486742
0.0373164
0.0904101
1
)
