
400
(
0.00101898
0.00101047
0.000947554
0.000954896
0.00100077
0.000941285
0.000989254
0.000934959
0.000976324
0.000928329
0.000962519
0.00092132
0.000948355
0.000913959
0.000934256
0.000906286
0.000920508
0.000898344
0.000907252
0.000890172
0.000894628
0.00088179
0.000882693
0.000873135
0.000871272
0.000864175
0.000860047
0.000855193
0.000848724
0.000846537
0.000837106
0.000838013
0.000825046
0.000829061
0.00081239
0.000819283
0.000799007
0.000808513
0.000784873
0.000796729
0.000770044
0.000783974
0.000754567
0.000770319
0.000738391
0.00075586
0.000721536
0.000740711
0.000704089
0.000724989
0.000686111
0.000708818
0.000667735
0.000692323
0.000649092
0.000675622
0.000630209
0.000658815
0.000611061
0.000641949
0.000591927
0.000625009
0.000573355
0.000607979
0.000555453
0.000590793
0.000537719
0.00057325
0.000519739
0.00055522
0.000501457
0.000536754
0.00048293
0.000517899
0.000464223
0.000498646
0.000445352
0.000479007
0.000426335
0.000459082
0.000407398
0.000439059
0.000388947
0.000419111
0.000371226
0.00039929
0.000354124
0.000379562
0.000337326
0.000359893
0.000320634
0.000340317
0.000304178
0.000321047
0.000288181
0.000302322
0.000272659
0.000284167
0.000257476
0.000266445
0.000242511
0.000249028
0.000227723
0.000231882
0.000213135
0.00021506
0.000198772
0.000198626
0.000184642
0.000182628
0.000170777
0.000167123
0.000157222
0.000152158
0.000144002
0.000137763
0.000131104
0.000123947
0.00011849
0.000110709
0.000106123
9.80315e-05
9.39748e-05
8.58962e-05
8.20326e-05
7.42843e-05
7.03135e-05
6.31872e-05
5.88973e-05
5.26333e-05
4.79518e-05
4.2714e-05
3.77196e-05
3.35757e-05
2.84832e-05
2.53994e-05
2.05155e-05
1.83675e-05
1.40118e-05
1.26151e-05
9.02683e-06
8.17874e-06
5.45428e-06
4.97294e-06
3.06541e-06
2.81076e-06
1.57946e-06
1.45544e-06
7.27203e-07
6.73177e-07
2.86047e-07
2.66158e-07
8.9029e-08
8.36707e-08
1.96868e-08
1.95151e-08
3.31061e-09
4.17714e-09
1.36551e-09
2.03762e-09
0.000936235
0.00094655
0.000926436
0.000916055
0.000905045
0.000893454
0.000881452
0.00086932
0.000857103
0.000844569
0.000832782
0.00082317
0.000814674
0.000806122
0.000798576
0.000792302
0.000785776
0.00077793
0.000768589
0.000757849
0.000745867
0.000732844
0.000719033
0.000704616
0.000689723
0.00067441
0.000658598
0.000642498
0.000626639
0.000611411
0.000597241
0.00058427
0.000571735
0.000558811
0.000545228
0.00053096
0.000516028
0.000500492
0.00048444
0.000467966
0.000451148
0.00043406
0.000416767
0.000399324
0.000381763
0.000364111
0.000346383
0.000328583
0.000310736
0.000292884
0.000275074
0.000257355
0.000239775
0.000222382
0.000205223
0.000188348
0.000171798
0.000155619
0.000139879
0.000124645
0.000109976
9.59161e-05
8.25007e-05
6.97688e-05
5.77869e-05
4.66606e-05
3.65308e-05
2.75588e-05
1.98994e-05
1.36602e-05
8.85612e-06
5.38521e-06
3.04391e-06
1.57622e-06
7.28872e-07
2.87794e-07
9.01637e-08
2.09645e-08
4.52379e-09
2.20999e-09
0.000999151
0.00101064
0.000985917
0.000970349
0.000953041
0.000934653
0.000915849
0.00089729
0.000879266
0.00086165
0.00084562
0.000832728
0.000821772
0.000810977
0.000800762
0.000791395
0.000781761
0.000771037
0.000759083
0.000745992
0.000731938
0.000717092
0.000701564
0.000685441
0.000668823
0.000651703
0.00063401
0.000615968
0.000598033
0.000580523
0.000564159
0.000549646
0.000536395
0.00052328
0.000509746
0.000495663
0.000481059
0.00046607
0.000450785
0.000435218
0.000419487
0.000403895
0.000388703
0.000373885
0.000359196
0.000344428
0.000329513
0.000314443
0.000299228
0.000283915
0.000268557
0.000253196
0.000237851
0.000222528
0.000207237
0.000192002
0.000176861
0.000161859
0.000147035
0.000132426
0.000118068
0.000103995
9.0249e-05
7.68952e-05
6.40509e-05
5.18985e-05
4.06747e-05
3.06425e-05
2.20473e-05
1.50569e-05
9.70421e-06
5.86656e-06
3.29857e-06
1.70024e-06
7.82898e-07
3.07683e-07
9.5522e-08
2.11362e-08
3.65725e-09
1.53787e-09
0.00101047
0.00101898
0.00100077
0.000989254
0.000976324
0.000962519
0.000948355
0.000934256
0.000920508
0.000907252
0.000894628
0.000882693
0.000871272
0.000860047
0.000848724
0.000837106
0.000825046
0.00081239
0.000799007
0.000784873
0.000770044
0.000754567
0.000738391
0.000721536
0.000704089
0.000686111
0.000667735
0.000649092
0.000630209
0.000611061
0.000591927
0.000573355
0.000555453
0.000537719
0.000519739
0.000501457
0.00048293
0.000464223
0.000445352
0.000426335
0.000407398
0.000388947
0.000371226
0.000354124
0.000337326
0.000320634
0.000304178
0.000288181
0.000272659
0.000257476
0.000242511
0.000227723
0.000213135
0.000198772
0.000184642
0.000170777
0.000157222
0.000144002
0.000131104
0.00011849
0.000106123
9.39748e-05
8.20326e-05
7.03135e-05
5.88973e-05
4.79518e-05
3.77196e-05
2.84832e-05
2.05155e-05
1.40118e-05
9.02683e-06
5.45428e-06
3.06541e-06
1.57946e-06
7.27203e-07
2.86047e-07
8.9029e-08
1.96868e-08
3.31061e-09
1.36551e-09
)
