/*--------------------------------*- C++ -*----------------------------------*\
| =========                 |                                                 |
| \\      /  F ield         | OpenFOAM: The Open Source CFD Toolbox           |
|  \\    /   O peration     | Version:  v1912                                 |
|   \\  /    A nd           | Website:  www.openfoam.com                      |
|    \\/     M anipulation  |                                                 |
\*---------------------------------------------------------------------------*/
FoamFile
{
    version     2.0;
    format      ascii;
    class       volScalarField;
    location    "198.8";
    object      heatTransferCoeff(T);
}
// * * * * * * * * * * * * * * * * * * * * * * * * * * * * * * * * * * * * * //

dimensions      [1 0 -3 -1 0 0 0];


internalField   uniform 0;

boundaryField
{
    leftWall
    {
        type            calculated;
        value           nonuniform List<scalar> 
128
(
-26.8782
-467.549
-329.484
-346.538
-273.973
-327.867
-252.159
-323.097
-394.709
-384.219
-358.424
-313.267
-314.42
-284.345
-299.593
-269.639
-313.634
-295.184
-357.907
-279.874
-325.248
-251.334
-312.522
-234.111
-280.853
-313.926
-351.371
-288.88
-320.3
-266.479
-306.644
-252.179
-284.935
-325.286
-350.8
-293.095
-317.267
-269.239
-303.493
-254.943
-283.394
-332.312
-353.102
-298.85
-319.575
-274.361
-305.494
-258.626
-283.893
-336.187
-353.051
-300.363
-318.977
-275.551
-305.05
-259.624
-284.299
-339.009
-353.999
-302.033
-319.612
-276.874
-305.495
-260.541
-284.52
-339.45
-353.891
-302.026
-319.318
-276.778
-305.239
-260.479
-284.156
-339.042
-354.018
-302.102
-319.623
-276.925
-305.505
-260.603
-283.708
-336.275
-353.079
-300.465
-318.987
-275.632
-305.048
-259.74
-283.199
-332.443
-353.152
-298.974
-319.587
-274.462
-305.506
-258.775
-284.733
-325.381
-350.779
-293.175
-317.229
-269.324
-303.491
-255.094
-280.683
-314.01
-351.294
-288.932
-320.262
-266.571
-306.677
-252.347
-313.517
-295.236
-357.851
-279.918
-325.253
-251.403
-312.595
-234.221
-394.792
-384.155
-358.494
-313.227
-314.498
-284.294
-299.757
-269.633
)
;
    }
    rightWall
    {
        type            calculated;
        value           nonuniform 0();
    }
    leftSides_periodic0
    {
        type            cyclic;
    }
    leftSides_periodic1
    {
        type            cyclic;
    }
    rightSides_periodic0
    {
        type            cyclic;
    }
    rightSides_periodic1
    {
        type            cyclic;
    }
    leftInOut_periodic0
    {
        type            cyclic;
    }
    leftInOut_periodic1
    {
        type            cyclic;
    }
    rightInOut_periodic0
    {
        type            cyclic;
    }
    rightInOut_periodic1
    {
        type            cyclic;
    }
    procBoundary0to1
    {
        type            processor;
        value           uniform 0;
    }
    procBoundary0to1throughleftInOut_periodic1
    {
        type            processorCyclic;
        value           uniform 0;
    }
    procBoundary0to2
    {
        type            processor;
        value           uniform 0;
    }
    procBoundary0to2throughleftSides_periodic0
    {
        type            processorCyclic;
        value           uniform 0;
    }
}


// ************************************************************************* //
