/*--------------------------------*- C++ -*----------------------------------*\
| =========                 |                                                 |
| \\      /  F ield         | OpenFOAM: The Open Source CFD Toolbox           |
|  \\    /   O peration     | Version:  v1906                                 |
|   \\  /    A nd           | Web:      www.OpenFOAM.com                      |
|    \\/     M anipulation  |                                                 |
\*---------------------------------------------------------------------------*/
FoamFile
{
    version     2.0;
    format      ascii;
    class       volScalarField;
    location    "200";
    object      alphat;
}
// * * * * * * * * * * * * * * * * * * * * * * * * * * * * * * * * * * * * * //

dimensions      [1 -1 -1 0 0 0 0];


internalField   nonuniform List<scalar> 
255960
(
1.05027e-08
1.05959e-08
1.03397e-08
1.06044e-08
1.01545e-08
1.03645e-08
1.00716e-08
9.96885e-09
9.81384e-09
9.35913e-09
9.40281e-09
8.57073e-09
8.72606e-09
8.03487e-09
8.01137e-09
7.8345e-09
7.46922e-09
7.76602e-09
1.0503e-08
1.05962e-08
1.034e-08
1.06047e-08
1.01547e-08
1.03647e-08
1.00718e-08
9.96913e-09
9.8141e-09
9.35938e-09
9.40308e-09
8.57097e-09
8.72637e-09
7.72994e-09
8.01165e-09
7.83471e-09
7.46941e-09
7.7662e-09
1.05032e-08
1.05964e-08
1.03402e-08
1.0605e-08
9.97041e-09
1.0365e-08
1.0072e-08
9.9694e-09
9.81434e-09
9.3596e-09
9.40334e-09
8.57118e-09
8.72666e-09
7.73012e-09
8.01193e-09
7.83491e-09
7.46959e-09
7.76636e-09
1.05034e-08
1.05967e-08
1.03404e-08
1.06053e-08
1.01551e-08
1.03653e-08
1.00722e-08
9.96964e-09
9.81456e-09
9.35982e-09
9.40358e-09
8.57138e-09
8.72693e-09
8.03543e-09
8.01218e-09
7.8351e-09
7.46976e-09
7.76652e-09
1.05036e-08
1.05969e-08
1.03405e-08
1.06055e-08
1.01552e-08
1.03655e-08
1.00724e-08
9.96986e-09
9.81477e-09
9.36002e-09
9.40379e-09
8.57157e-09
8.72717e-09
7.73045e-09
8.01243e-09
7.83529e-09
7.46992e-09
7.76666e-09
8.22356e-08
8.33007e-08
8.0794e-08
8.39038e-08
7.78221e-08
8.26453e-08
7.95396e-08
8.11372e-08
8.00451e-08
7.93887e-08
8.03984e-08
7.74424e-08
8.04556e-08
8.0022e-08
8.51812e-08
8.15014e-08
5.33048e-08
5.45932e-08
8.22413e-08
8.3307e-08
8.0799e-08
8.39105e-08
7.89495e-08
8.26519e-08
7.95445e-08
8.11434e-08
8.00507e-08
7.93943e-08
8.04046e-08
7.74472e-08
8.04621e-08
8.00265e-08
8.51884e-08
8.15068e-08
5.33087e-08
5.45969e-08
8.22468e-08
8.33131e-08
8.08038e-08
8.3917e-08
7.89536e-08
8.26583e-08
7.95493e-08
8.11494e-08
8.00561e-08
7.93997e-08
8.04106e-08
7.74519e-08
8.04684e-08
8.00309e-08
8.51954e-08
8.1512e-08
5.33125e-08
5.46005e-08
8.22522e-08
8.33191e-08
8.08085e-08
8.39232e-08
7.89576e-08
8.26645e-08
7.95539e-08
8.11552e-08
8.00613e-08
7.9405e-08
8.04164e-08
7.74565e-08
8.04745e-08
8.00353e-08
8.52022e-08
8.15171e-08
5.33162e-08
5.46041e-08
8.22574e-08
8.33248e-08
8.08131e-08
8.39293e-08
7.89616e-08
8.26704e-08
7.95584e-08
8.11607e-08
8.00664e-08
7.94101e-08
8.0422e-08
7.74609e-08
8.04803e-08
7.55811e-08
8.52087e-08
8.1522e-08
5.33198e-08
5.46075e-08
6.85529e-07
6.91748e-07
6.77064e-07
6.95225e-07
6.66069e-07
6.85919e-07
6.67617e-07
6.7617e-07
6.69914e-07
6.66704e-07
6.72789e-07
6.5949e-07
6.78131e-07
6.51756e-07
7.05458e-07
6.77052e-07
4.3251e-07
4.36168e-07
6.85572e-07
6.91795e-07
6.77101e-07
6.95275e-07
6.661e-07
6.85969e-07
6.67654e-07
6.76216e-07
6.69956e-07
6.66746e-07
6.72835e-07
6.59526e-07
6.78179e-07
6.51786e-07
7.05512e-07
6.77092e-07
4.32538e-07
4.36195e-07
6.85614e-07
6.91842e-07
6.77137e-07
6.95324e-07
6.66131e-07
6.86017e-07
6.6769e-07
6.76261e-07
6.69997e-07
6.66787e-07
6.7288e-07
6.59561e-07
6.78227e-07
6.74915e-07
7.05564e-07
6.77131e-07
4.32566e-07
4.36221e-07
6.85654e-07
6.91887e-07
6.77173e-07
6.95372e-07
6.66161e-07
6.86064e-07
6.67725e-07
6.76306e-07
6.70037e-07
6.66827e-07
6.72924e-07
6.59596e-07
6.78273e-07
6.51846e-07
7.05614e-07
6.77169e-07
4.32594e-07
4.36248e-07
6.85694e-07
6.91931e-07
6.77208e-07
6.95418e-07
6.66192e-07
6.86109e-07
6.67759e-07
6.76348e-07
6.70076e-07
6.66866e-07
6.72967e-07
6.5963e-07
6.78318e-07
6.51875e-07
7.05663e-07
6.77206e-07
4.32621e-07
4.36274e-07
3.54559e-06
3.56564e-06
3.51732e-06
3.5758e-06
3.48015e-06
3.52941e-06
3.46902e-06
3.48555e-06
3.46491e-06
3.44275e-06
3.46251e-06
3.43124e-06
3.49491e-06
3.42825e-06
3.52332e-06
3.3945e-06
2.20575e-06
2.19833e-06
3.54577e-06
3.56584e-06
3.51748e-06
3.57602e-06
3.48028e-06
3.52962e-06
3.46918e-06
3.48575e-06
3.46509e-06
3.44293e-06
3.46271e-06
3.4314e-06
3.49512e-06
3.42839e-06
3.52355e-06
3.39467e-06
2.20586e-06
2.19844e-06
3.54595e-06
3.56605e-06
3.51764e-06
3.57623e-06
3.48042e-06
3.52983e-06
3.46934e-06
3.48595e-06
3.46527e-06
3.44311e-06
3.4629e-06
3.43155e-06
3.49533e-06
3.41659e-06
3.52378e-06
3.39484e-06
2.20598e-06
2.19855e-06
3.54613e-06
3.56624e-06
3.5178e-06
3.57644e-06
3.48055e-06
3.53004e-06
3.46949e-06
3.48614e-06
3.46544e-06
3.44328e-06
3.4631e-06
3.4317e-06
3.49553e-06
3.41672e-06
3.524e-06
3.39501e-06
2.2061e-06
2.19867e-06
3.54631e-06
3.56644e-06
3.51795e-06
3.57665e-06
3.48069e-06
3.53024e-06
3.46964e-06
3.48633e-06
3.46561e-06
3.44345e-06
3.46329e-06
3.43186e-06
3.49573e-06
3.41685e-06
3.52421e-06
3.39517e-06
2.20622e-06
2.19878e-06
1.29415e-05
1.29868e-05
1.28738e-05
1.30054e-05
1.27833e-05
1.28359e-05
1.26945e-05
1.26858e-05
1.26367e-05
1.25251e-05
1.25693e-05
1.25292e-05
1.26818e-05
1.25203e-05
1.24115e-05
1.19878e-05
7.9348e-06
7.84988e-06
1.29421e-05
1.29874e-05
1.28743e-05
1.30061e-05
1.27837e-05
1.28366e-05
1.2695e-05
1.26864e-05
1.26372e-05
1.25256e-05
1.25699e-05
1.25297e-05
1.26824e-05
1.22239e-05
1.24122e-05
1.19883e-05
7.93515e-06
7.85022e-06
1.29427e-05
1.2988e-05
1.28748e-05
1.30068e-05
1.27841e-05
1.28372e-05
1.26955e-05
1.2687e-05
1.26378e-05
1.25262e-05
1.25705e-05
1.25302e-05
1.26831e-05
1.22244e-05
1.24129e-05
1.19888e-05
7.9355e-06
7.85056e-06
1.29432e-05
1.29887e-05
1.28753e-05
1.30074e-05
1.27846e-05
1.28379e-05
1.2696e-05
1.26876e-05
1.26383e-05
1.25267e-05
1.25711e-05
1.25307e-05
1.26837e-05
1.25215e-05
1.24136e-05
1.19893e-05
7.93587e-06
7.85091e-06
1.29438e-05
1.29893e-05
1.28758e-05
1.30081e-05
1.2785e-05
1.28385e-05
1.26965e-05
1.26882e-05
1.26389e-05
1.25272e-05
1.25717e-05
1.25311e-05
1.26843e-05
1.25219e-05
1.24142e-05
1.19898e-05
7.93624e-06
7.85126e-06
3.67101e-05
3.67875e-05
3.65807e-05
3.68041e-05
3.5976e-05
3.63047e-05
3.60472e-05
3.58729e-05
3.57774e-05
3.53381e-05
3.54088e-05
3.53736e-05
3.56447e-05
3.36408e-05
3.38445e-05
3.27464e-05
2.2117e-05
2.17858e-05
3.67115e-05
3.6789e-05
3.65819e-05
3.68057e-05
3.5977e-05
3.63063e-05
3.60483e-05
3.58743e-05
3.57788e-05
3.53394e-05
3.54103e-05
3.53747e-05
3.56463e-05
3.36418e-05
3.3846e-05
3.27475e-05
2.21178e-05
2.17866e-05
3.67128e-05
3.67905e-05
3.6583e-05
3.68073e-05
3.64071e-05
3.63078e-05
3.60495e-05
3.58758e-05
3.57801e-05
3.53407e-05
3.54117e-05
3.53759e-05
3.56478e-05
3.36428e-05
3.38476e-05
3.27487e-05
2.21187e-05
2.17874e-05
3.67142e-05
3.6792e-05
3.65842e-05
3.68089e-05
3.64081e-05
3.63094e-05
3.60507e-05
3.58773e-05
3.57814e-05
3.5342e-05
3.54131e-05
3.5377e-05
3.56493e-05
3.36437e-05
3.38491e-05
3.27498e-05
2.21195e-05
2.17882e-05
3.67156e-05
3.67935e-05
3.65854e-05
3.68105e-05
3.64091e-05
3.63109e-05
3.60518e-05
3.58787e-05
3.57827e-05
3.53433e-05
3.54146e-05
3.53781e-05
3.56508e-05
3.36446e-05
3.38505e-05
3.27509e-05
2.21204e-05
2.17891e-05
8.56135e-05
8.57103e-05
8.54049e-05
8.56793e-05
8.51209e-05
8.44318e-05
8.40609e-05
8.33368e-05
8.31702e-05
8.17749e-05
8.18385e-05
8.16947e-05
8.20215e-05
8.16025e-05
7.5473e-05
7.31347e-05
5.05245e-05
4.96648e-05
8.56161e-05
8.57133e-05
8.54072e-05
8.56825e-05
8.51229e-05
8.44349e-05
8.40632e-05
8.33397e-05
8.31728e-05
8.17774e-05
8.18413e-05
8.16969e-05
8.20245e-05
8.16044e-05
7.54759e-05
7.31369e-05
5.05261e-05
4.96663e-05
8.56188e-05
8.57163e-05
8.54096e-05
8.56856e-05
8.51249e-05
8.44379e-05
8.40656e-05
8.33426e-05
8.31754e-05
8.178e-05
8.18441e-05
8.16992e-05
8.20275e-05
8.16063e-05
7.54787e-05
7.3139e-05
5.05277e-05
4.96678e-05
8.56215e-05
8.57193e-05
8.5412e-05
8.56888e-05
8.51269e-05
8.4441e-05
8.40679e-05
8.33455e-05
8.3178e-05
8.17825e-05
8.18469e-05
8.17014e-05
8.20305e-05
8.16082e-05
7.54815e-05
7.31411e-05
5.05294e-05
4.96695e-05
8.56243e-05
8.57223e-05
8.54143e-05
8.56919e-05
8.51289e-05
8.44441e-05
8.40702e-05
8.33484e-05
8.31806e-05
8.17851e-05
8.18498e-05
8.17037e-05
8.20335e-05
8.16101e-05
7.54842e-05
7.31432e-05
5.05312e-05
4.96712e-05
0.000169709
0.00016978
0.000169408
0.000169593
0.000169009
0.000166899
0.000166482
0.000164436
0.000164148
0.000160554
0.000160511
0.000159753
0.00015989
0.00015911
0.000142661
0.000138451
9.79826e-05
9.62905e-05
0.000169713
0.000169785
0.000169412
0.000169598
0.000166743
0.000166905
0.000166486
0.00016444
0.000164153
0.000160558
0.000160515
0.000159757
0.000159895
0.000159114
0.000142665
0.000138454
9.79852e-05
9.6293e-05
0.000169718
0.00016979
0.000169416
0.000169604
0.000166746
0.00016691
0.00016649
0.000164445
0.000164157
0.000160563
0.00016052
0.00015976
0.0001599
0.000159117
0.00014267
0.000138457
9.79879e-05
9.62956e-05
0.000169722
0.000169795
0.00016942
0.000169609
0.000169019
0.000166915
0.000166494
0.00016445
0.000164161
0.000160567
0.000160524
0.000159764
0.000159905
0.000143907
0.000142674
0.00013846
9.79907e-05
9.62983e-05
0.000169727
0.0001698
0.000169424
0.000169614
0.000169023
0.00016692
0.000166498
0.000164455
0.000164166
0.000160571
0.000160529
0.000159768
0.00015991
0.000159123
0.000142678
0.000138464
9.79938e-05
9.63012e-05
0.000292805
0.000292785
0.000292386
0.000292272
0.000291863
0.000287192
0.000286829
0.000282321
0.000281815
0.000274162
0.000273848
0.000271448
0.000270985
0.000269362
0.000234957
0.000228386
0.00016574
0.000163059
0.000292811
0.000292792
0.000292391
0.00029228
0.000291868
0.000287199
0.000286834
0.000282328
0.000281821
0.000274167
0.000273854
0.000271453
0.000270992
0.000269367
0.000234962
0.00022839
0.000165744
0.000163062
0.000292818
0.000292799
0.000292397
0.000292287
0.000291873
0.000287206
0.00028684
0.000282335
0.000281828
0.000274173
0.000273861
0.000271458
0.000270998
0.000269371
0.000234968
0.000228394
0.000165748
0.000163066
0.000292824
0.000292806
0.000292402
0.000292294
0.000291877
0.000287214
0.000286845
0.000282341
0.000281834
0.000274179
0.000273867
0.000271463
0.000271005
0.000238365
0.000234973
0.000228398
0.000165752
0.00016307
0.00029283
0.000292813
0.000292408
0.000292302
0.000291882
0.000287221
0.000286851
0.000282348
0.00028184
0.000274185
0.000273874
0.000271468
0.000271012
0.000238369
0.000234979
0.000228402
0.000165756
0.000163074
0.000449414
0.000449247
0.000448818
0.000448224
0.000448135
0.000439741
0.000439497
0.000431289
0.000430424
0.000416534
0.000415778
0.000410467
0.000408973
0.000405805
0.000339007
0.00033023
0.000250068
0.000246475
0.000449422
0.000449255
0.000448825
0.000448232
0.000448141
0.00043975
0.000439504
0.000431297
0.000430431
0.000416541
0.000415786
0.000410473
0.000408982
0.00040581
0.000339012
0.000330234
0.000250073
0.000246479
0.00044943
0.000449264
0.000448832
0.000448242
0.000441113
0.000439759
0.00043951
0.000431305
0.000430439
0.000416548
0.000415793
0.000410479
0.00040899
0.000346129
0.000339017
0.000330238
0.000250078
0.000246484
0.000449438
0.000449272
0.000448839
0.000448251
0.000448153
0.000439768
0.000439517
0.000431314
0.000430446
0.000416555
0.000415801
0.000410485
0.000408998
0.00040582
0.000339023
0.000330243
0.000250083
0.000246489
0.000449446
0.000449281
0.000448846
0.00044826
0.000448159
0.000439777
0.000439524
0.000431322
0.000430454
0.000416562
0.000415809
0.000410492
0.000409007
0.000405826
0.000339028
0.000330247
0.000250088
0.000246494
0.000625167
0.000624785
0.000624437
0.000623155
0.000612002
0.000609254
0.000609294
0.00059563
0.000594323
0.000569029
0.000567576
0.000556103
0.000552201
0.000545274
0.000442917
0.000432403
0.000333298
0.000329783
0.000625175
0.000624794
0.000624444
0.000623165
0.000623595
0.000609263
0.0006093
0.000595639
0.000594331
0.000569035
0.000567584
0.00055611
0.000552209
0.000545279
0.000442921
0.000432406
0.000333302
0.000329786
0.000625184
0.000624804
0.000624452
0.000623175
0.000612014
0.000609273
0.000609307
0.000595647
0.000594339
0.000569042
0.000567591
0.000556116
0.000552218
0.000545285
0.000442925
0.000432409
0.000333307
0.000329791
0.000625193
0.000624813
0.000624459
0.000623185
0.00061202
0.000609283
0.000609315
0.000595656
0.000594347
0.000569049
0.000567599
0.000556122
0.000552226
0.000455206
0.00044293
0.000432413
0.000333312
0.000329796
0.000625202
0.000624823
0.000624467
0.000623195
0.000623615
0.000609293
0.000609322
0.000595666
0.000594355
0.000569057
0.000567607
0.000556129
0.000552235
0.000455209
0.000442935
0.000432417
0.000333318
0.000329801
0.000792373
0.000791614
0.000790944
0.00078841
0.000773782
0.000768805
0.000769056
0.00074727
0.000744713
0.000708761
0.000706152
0.000687571
0.000682051
0.000671852
0.000532302
0.000520051
0.000413246
0.000410218
0.00079238
0.000791622
0.00079095
0.000788418
0.000789666
0.000768813
0.000769062
0.000747277
0.000744719
0.000708766
0.000706158
0.000687576
0.000682058
0.000671856
0.000532306
0.000520054
0.00041325
0.000410221
0.000792387
0.00079163
0.000790956
0.000788427
0.000789672
0.000768821
0.000769068
0.000747284
0.000744725
0.000708772
0.000706164
0.000687581
0.000682065
0.000671861
0.00053231
0.000520057
0.000413254
0.000410225
0.000792395
0.000791638
0.000790963
0.000788436
0.000773797
0.000768829
0.000769074
0.000747292
0.000744733
0.000708778
0.000706171
0.000687586
0.000682072
0.000671866
0.000532315
0.00052006
0.000413259
0.00041023
0.000792403
0.000791647
0.00079097
0.000788445
0.000773803
0.000768838
0.000769081
0.0007473
0.00074474
0.000708784
0.000706178
0.000687592
0.000682079
0.000671871
0.000532319
0.000520064
0.000413264
0.000410236
0.000928298
0.000927515
0.000926635
0.000923996
0.000904959
0.000899577
0.000899674
0.000873659
0.000870633
0.000823852
0.000820838
0.000800787
0.000794386
0.000782298
0.000613397
0.000600617
0.000489534
0.000487013
0.000928303
0.000927521
0.000926639
0.000924002
0.000924988
0.000899583
0.000899678
0.000873665
0.000870638
0.000823857
0.000820843
0.000800792
0.000794392
0.000782301
0.000613401
0.000600619
0.000489538
0.000487017
0.000928309
0.000927528
0.000926644
0.000924009
0.000904967
0.00089959
0.000899683
0.000873671
0.000870643
0.000823862
0.000820849
0.000800796
0.000794398
0.000633331
0.000613405
0.000600622
0.000489542
0.000487021
0.000928315
0.000927535
0.00092665
0.000924016
0.000924997
0.000899597
0.000899688
0.000873677
0.000870649
0.000823867
0.000820855
0.000800801
0.000794404
0.00078231
0.000613409
0.000600626
0.000489548
0.000487026
0.000928322
0.000927542
0.000926656
0.000924024
0.000925002
0.000899605
0.000899694
0.000873685
0.000870656
0.000823874
0.000820862
0.000800806
0.000794411
0.000633336
0.000613415
0.00060063
0.000489554
0.000487032
0.0010467
0.00104572
0.00104505
0.00104182
0.0010434
0.00101447
0.0010149
0.000985615
0.000982354
0.000929314
0.000925884
0.000903917
0.00089638
0.000882949
0.000691838
0.000678999
0.00056806
0.000566257
0.0010467
0.00104573
0.00104506
0.00104183
0.0010209
0.00101448
0.00101491
0.00098562
0.000982359
0.000929318
0.000925889
0.000903921
0.000896386
0.000882952
0.000691841
0.000679001
0.000568064
0.000566261
0.00104671
0.00104574
0.00104506
0.00104184
0.0010209
0.00101449
0.00101491
0.000985626
0.000982364
0.000929323
0.000925894
0.000903926
0.000896392
0.000714424
0.000691845
0.000679004
0.000568069
0.000566265
0.00104672
0.00104574
0.00104507
0.00104184
0.00104342
0.00101449
0.00101492
0.000985633
0.00098237
0.000929329
0.0009259
0.000903931
0.000896398
0.000882961
0.00069185
0.000679008
0.000568075
0.000566271
0.00104672
0.00104575
0.00104508
0.00104185
0.00104342
0.0010145
0.00101492
0.00098564
0.000982377
0.000929336
0.000925908
0.000903936
0.000896405
0.00071443
0.000691856
0.000679013
0.000568082
0.000566278
0.00116092
0.00115975
0.0011593
0.00115546
0.00115766
0.00112536
0.00112613
0.00109364
0.00109013
0.00103116
0.00102731
0.00100331
0.000994634
0.000791876
0.00076689
0.000754348
0.000648786
0.000647875
0.00116093
0.00115976
0.0011593
0.00115547
0.00115766
0.00112537
0.00112613
0.00109364
0.00109014
0.00103116
0.00102732
0.00100331
0.00099464
0.000979813
0.000766893
0.00075435
0.00064879
0.000647879
0.00116093
0.00115977
0.00115931
0.00115547
0.00115766
0.00112538
0.00112614
0.00109365
0.00109014
0.00103117
0.00102732
0.00100331
0.000994646
0.000979817
0.000766897
0.000754353
0.000648796
0.000647884
0.00116094
0.00115977
0.00115931
0.00115548
0.00115767
0.00112538
0.00112615
0.00109366
0.00109015
0.00103118
0.00102733
0.00100332
0.000994652
0.000979822
0.000766902
0.000754357
0.000648803
0.000647891
0.00116095
0.00115978
0.00115932
0.00115549
0.00115767
0.00112539
0.00112615
0.00109367
0.00109016
0.00103118
0.00102734
0.00100332
0.000994659
0.000979828
0.000766908
0.000754362
0.000648811
0.000647898
0.00127281
0.00127147
0.00127118
0.0012668
0.00124239
0.00123397
0.001235
0.00119932
0.00119554
0.00113047
0.00112622
0.00110011
0.00109035
0.000866225
0.00083908
0.000827203
0.000731741
0.000731844
0.00127282
0.00127147
0.00127118
0.0012668
0.00126951
0.00123397
0.00123501
0.00119933
0.00119554
0.00113048
0.00112622
0.00110012
0.00109036
0.001074
0.000839083
0.000827205
0.000731746
0.000731849
0.00127282
0.00127148
0.00127118
0.00126681
0.00126951
0.00123398
0.00123501
0.00119934
0.00119555
0.00113048
0.00112623
0.00110012
0.00109036
0.001074
0.000839087
0.000827208
0.000731752
0.000731855
0.00127283
0.00127149
0.00127119
0.00126682
0.00126952
0.00123399
0.00123502
0.00119934
0.00119555
0.00113049
0.00112623
0.00110013
0.00109037
0.000866233
0.000839092
0.000827212
0.00073176
0.000731862
0.00138467
0.00138319
0.00138301
0.00137818
0.00138127
0.00134262
0.00134384
0.00130504
0.00130091
0.00122936
0.0012247
0.00119642
0.00118561
0.00116748
0.000910576
0.000899783
0.000819331
0.000820669
0.00138468
0.00138319
0.00138301
0.00137819
0.00138127
0.00134262
0.00134385
0.00130504
0.00130091
0.00122936
0.00122471
0.00119642
0.00118562
0.00116749
0.000910578
0.000899784
0.000819336
0.000820673
0.00138468
0.0013832
0.00138302
0.0013782
0.00138127
0.00134263
0.00134385
0.00130505
0.00130092
0.00122937
0.00122471
0.00119643
0.00118562
0.000939811
0.00091058
0.000899785
0.000819341
0.000820679
0.00138469
0.0013832
0.00138302
0.0013782
0.00138128
0.00134264
0.00134386
0.00130505
0.00130093
0.00122937
0.00122472
0.00119643
0.00118563
0.00116749
0.000910584
0.000899789
0.000819349
0.000820686
0.0013847
0.00138321
0.00138303
0.00137821
0.00138128
0.00134265
0.00134386
0.00130506
0.00130093
0.00122938
0.00122472
0.00119644
0.00118564
0.0011675
0.00091059
0.000899793
0.000819357
0.000820694
0.00150118
0.00149958
0.00149948
0.0014943
0.00146586
0.00145595
0.00145727
0.00141534
0.00141078
0.00133052
0.00132548
0.00129562
0.00128379
0.00101492
0.000983448
0.000974116
0.00091354
0.000916362
0.00150118
0.00149958
0.00149948
0.00149431
0.0014976
0.00145596
0.00145728
0.00141534
0.00141078
0.00133052
0.00132548
0.00129563
0.00128379
0.00126339
0.000983449
0.000974116
0.000913546
0.000916367
0.00150119
0.00149959
0.00149949
0.00149432
0.0014976
0.00145596
0.00145728
0.00141535
0.00141079
0.00133053
0.00132548
0.00129563
0.0012838
0.00126339
0.000983452
0.000974118
0.000913553
0.000916374
0.00150119
0.0014996
0.00149949
0.00149432
0.00149761
0.00145597
0.00145729
0.00141536
0.00141079
0.00133054
0.00132549
0.00129564
0.00128381
0.00101492
0.000983456
0.000974121
0.000913561
0.000916382
0.0015012
0.00149961
0.0014995
0.00149433
0.00149762
0.00145598
0.00145729
0.00141537
0.0014108
0.00133054
0.0013255
0.00129564
0.00128382
0.0012634
0.000983462
0.000974126
0.00091357
0.000916391
0.00162873
0.00162705
0.00162697
0.00162152
0.00162489
0.00157951
0.00158079
0.00153514
0.00152994
0.00143909
0.00143362
0.00140051
0.00138772
0.00136406
0.00106016
0.0010526
0.00101658
0.00102116
0.00162873
0.00162705
0.00162697
0.00162153
0.00162489
0.00157952
0.0015808
0.00153514
0.00152994
0.00143909
0.00143362
0.00140051
0.00138772
0.00109433
0.00106016
0.0010526
0.00101659
0.00102116
0.00162874
0.00162706
0.00162698
0.00162154
0.0016249
0.00157953
0.0015808
0.00153515
0.00152995
0.0014391
0.00143363
0.00140052
0.00138773
0.00136407
0.00106017
0.0010526
0.0010166
0.00102117
0.00162875
0.00162707
0.00162698
0.00162155
0.0016249
0.00157954
0.00158081
0.00153516
0.00152996
0.00143911
0.00143364
0.00140052
0.00138774
0.00109433
0.00106017
0.0010526
0.00101661
0.00102118
0.00162876
0.00162708
0.00162699
0.00162156
0.00158992
0.00157955
0.00158082
0.00153517
0.00152997
0.00143912
0.00143365
0.00140053
0.00138775
0.00136408
0.00106018
0.00105261
0.00101662
0.00102119
0.00176687
0.00176515
0.00176493
0.00175935
0.00176265
0.00171667
0.00171782
0.00166972
0.00166362
0.00156261
0.00155658
0.00151847
0.00150453
0.00118097
0.00114335
0.00113778
0.00113084
0.00113746
0.00176688
0.00176515
0.00176494
0.00175936
0.00176266
0.00171668
0.00171783
0.00166973
0.00166363
0.00156262
0.00155658
0.00151847
0.00150454
0.00118097
0.00114335
0.00113778
0.00113085
0.00113747
0.00176688
0.00176516
0.00176495
0.00175937
0.00176266
0.00171669
0.00171783
0.00166974
0.00166364
0.00156262
0.00155659
0.00151848
0.00150455
0.00118097
0.00114335
0.00113778
0.00113086
0.00113748
0.00176689
0.00176517
0.00176495
0.00175938
0.00176267
0.0017167
0.00171784
0.00166975
0.00166365
0.00156263
0.0015566
0.00151849
0.00150456
0.00118098
0.00114335
0.00113778
0.00113087
0.00113749
0.00176691
0.00176518
0.00176496
0.0017594
0.00172732
0.00171671
0.00171785
0.00166976
0.00166366
0.00156264
0.00155661
0.0015185
0.00150457
0.00118098
0.00114336
0.00113779
0.00113088
0.0011375
0.00191015
0.00190839
0.00190923
0.00190367
0.00190751
0.00186096
0.00186274
0.00181332
0.00180656
0.00170378
0.00169713
0.00164912
0.00163347
0.0012771
0.00123517
0.00123184
0.00125868
0.00126766
0.00191015
0.00190839
0.00190924
0.00190368
0.00190752
0.00186097
0.00186275
0.00181333
0.00180656
0.00170379
0.00169714
0.00164913
0.00163348
0.00160053
0.00123517
0.00123184
0.0012587
0.00126767
0.00191016
0.0019084
0.00190925
0.00190369
0.00190752
0.00186098
0.00186275
0.00181334
0.00180657
0.00170379
0.00169715
0.00164914
0.00163349
0.00127711
0.00123518
0.00123184
0.00125871
0.00126768
0.00191017
0.00190841
0.00190926
0.0019037
0.00190753
0.00186099
0.00186276
0.00181335
0.00180658
0.0017038
0.00169716
0.00164915
0.0016335
0.00127711
0.00123518
0.00123184
0.00125872
0.0012677
0.00191018
0.00190843
0.00190927
0.00190372
0.00190754
0.00186101
0.00186277
0.00181336
0.00180659
0.00170382
0.00169717
0.00164916
0.00163352
0.00127712
0.00123519
0.00123185
0.00125873
0.00126771
0.00204997
0.00204827
0.00204869
0.0020433
0.00201055
0.00200009
0.00200156
0.00195523
0.0019493
0.00184281
0.00183663
0.00178401
0.00176582
0.00138025
0.00133463
0.00133433
0.00140231
0.00141396
0.00204998
0.00204828
0.0020487
0.00204331
0.00201055
0.0020001
0.00200156
0.00195524
0.00194931
0.00184282
0.00183664
0.00178402
0.00176584
0.00138025
0.00133463
0.00133433
0.00140232
0.00141398
0.00204998
0.00204829
0.00204871
0.00204332
0.00201056
0.00200011
0.00200157
0.00195525
0.00194932
0.00184283
0.00183665
0.00178403
0.00176585
0.00138026
0.00133463
0.00133433
0.00140233
0.00141399
0.00204999
0.0020483
0.00204871
0.00204333
0.00204656
0.00200012
0.00200158
0.00195526
0.00194933
0.00184284
0.00183666
0.00178403
0.00176586
0.00138026
0.00133464
0.00133434
0.00140235
0.001414
0.00205001
0.00204831
0.00204873
0.00204335
0.00204657
0.00200013
0.00200159
0.00195527
0.00194934
0.00184285
0.00183667
0.00178404
0.00176587
0.00138027
0.00133465
0.00133435
0.00140236
0.00141402
0.0021866
0.00218487
0.00218507
0.00217956
0.00218249
0.00213339
0.00213468
0.00208675
0.00208038
0.00197513
0.00196871
0.00190877
0.00188974
0.00148692
0.00143992
0.0014441
0.00156318
0.00157782
0.0021866
0.00218488
0.00218507
0.00217957
0.00218249
0.0021334
0.00213469
0.00208676
0.00208039
0.00197513
0.00196871
0.00190877
0.00188976
0.00184876
0.00143992
0.0014441
0.00156319
0.00157783
0.00218661
0.00218489
0.00218508
0.00217958
0.0021825
0.00213341
0.00213469
0.00208677
0.0020804
0.00197514
0.00196872
0.00190878
0.00188977
0.00184876
0.00143993
0.00144411
0.00156321
0.00157785
0.00218662
0.0021849
0.00218509
0.00217959
0.00218251
0.00213342
0.0021347
0.00208678
0.00208041
0.00197515
0.00196873
0.00190879
0.00188978
0.00184877
0.00143993
0.00144411
0.00156323
0.00157787
0.00218663
0.00218491
0.0021851
0.0021796
0.00218252
0.00213344
0.00213471
0.00208679
0.00208042
0.00197516
0.00196874
0.0019088
0.00188979
0.00184878
0.00143995
0.00144412
0.00156325
0.00157789
0.00231684
0.00231507
0.00231519
0.00230953
0.00231232
0.00226088
0.00226212
0.00221269
0.00220598
0.00209779
0.00209102
0.00202692
0.00200714
0.00160173
0.00155467
0.00156431
0.00173969
0.00175747
0.00231685
0.00231508
0.00231519
0.00230954
0.0022722
0.00226089
0.00226212
0.00221269
0.00220598
0.00209779
0.00209103
0.00202693
0.00200715
0.00160174
0.00155467
0.00156431
0.00173971
0.00175749
0.00231686
0.00231509
0.0023152
0.00230955
0.00227221
0.0022609
0.00226213
0.0022127
0.00220599
0.0020978
0.00209103
0.00202693
0.00200716
0.00160174
0.00155467
0.00156431
0.00173973
0.00175751
0.00231687
0.0023151
0.00231521
0.00230956
0.00231233
0.00226091
0.00226214
0.00221271
0.002206
0.00209781
0.00209105
0.00202694
0.00200717
0.00196443
0.00155468
0.00156432
0.00173975
0.00175753
0.00231688
0.00231511
0.00231522
0.00230957
0.00227222
0.00226092
0.00226215
0.00221273
0.00220601
0.00209782
0.00209106
0.00202695
0.00200718
0.00196444
0.0015547
0.00156433
0.00173977
0.00175755
0.00243292
0.00243109
0.00243133
0.00242555
0.00242839
0.00237603
0.00237738
0.00232862
0.00232206
0.00221491
0.00220805
0.0021412
0.00212087
0.00207776
0.00167892
0.00169455
0.00192283
0.00194353
0.00243292
0.00243109
0.00243134
0.00242556
0.00242839
0.00237603
0.00237738
0.00232863
0.00232207
0.00221492
0.00220805
0.00214121
0.00212088
0.00172469
0.00167892
0.00169455
0.00192285
0.00194355
0.00243293
0.0024311
0.00243134
0.00242557
0.0024284
0.00237604
0.00237739
0.00232863
0.00232208
0.00221492
0.00220806
0.00214121
0.00212089
0.0017247
0.00167892
0.00169456
0.00192287
0.00194357
0.00243294
0.00243111
0.00243135
0.00242558
0.00242841
0.00237605
0.0023774
0.00232864
0.00232209
0.00221493
0.00220807
0.00214122
0.0021209
0.00207777
0.00167894
0.00169457
0.00192289
0.00194359
0.00243295
0.00243112
0.00243136
0.00242559
0.00242841
0.00237606
0.00237741
0.00232866
0.0023221
0.00221494
0.00220809
0.00214123
0.00212091
0.00172472
0.00167895
0.00169458
0.00192291
0.00194361
0.00252973
0.00252784
0.00252849
0.0025226
0.00248595
0.00247425
0.00247594
0.00243055
0.00242473
0.00232454
0.00231791
0.00224981
0.00222925
0.00185284
0.00180946
0.00182994
0.00211117
0.00213445
0.00252973
0.00252784
0.00252849
0.0025226
0.00248596
0.00247425
0.00247595
0.00243055
0.00242473
0.00232454
0.00231792
0.00224981
0.00222926
0.00185285
0.00180946
0.00182995
0.00211119
0.00213447
0.00252974
0.00252785
0.0025285
0.00252261
0.00248596
0.00247426
0.00247595
0.00243056
0.00242474
0.00232455
0.00231793
0.00224982
0.00222927
0.00218742
0.00180947
0.00182995
0.00211121
0.0021345
0.00252975
0.00252785
0.0025285
0.00252262
0.00248596
0.00247427
0.00247596
0.00243057
0.00242475
0.00232456
0.00231794
0.00224983
0.00222928
0.00185286
0.00180948
0.00182996
0.00211123
0.00213452
0.00252976
0.00252786
0.00252851
0.00252263
0.00252578
0.00247428
0.00247597
0.00243058
0.00242475
0.00232457
0.00231795
0.00224983
0.00222929
0.00185287
0.0018095
0.00182997
0.00211125
0.00213453
0.00260603
0.00260406
0.00260541
0.00259941
0.00256603
0.00255436
0.00255664
0.00251722
0.0025127
0.00242541
0.00241933
0.00235178
0.00233139
0.00229272
0.00195117
0.00197713
0.00230709
0.00233266
0.00260604
0.00260406
0.00260541
0.00259941
0.00256603
0.00255437
0.00255664
0.00251722
0.00251271
0.00242542
0.00241934
0.00235178
0.0023314
0.00229273
0.00195117
0.00197714
0.00230711
0.00233269
0.00260604
0.00260407
0.00260542
0.00259941
0.00256603
0.00255437
0.00255664
0.00251723
0.00251271
0.00242542
0.00241935
0.00235179
0.00233141
0.00229273
0.00195118
0.00197714
0.00230714
0.00233271
0.00260604
0.00260407
0.00260542
0.00259942
0.00256604
0.00255438
0.00255665
0.00251724
0.00251272
0.00242543
0.00241936
0.00235179
0.00233142
0.00229273
0.00195119
0.00197715
0.00230716
0.00233273
0.00260605
0.00260408
0.00260543
0.00259943
0.00256605
0.00255439
0.00255666
0.00251724
0.00251273
0.00242544
0.00241937
0.0023518
0.00233143
0.00229274
0.00195121
0.00197717
0.00230719
0.00233275
0.00266361
0.00266154
0.00266385
0.00265772
0.00266241
0.00261798
0.00262104
0.00258991
0.0025872
0.00251807
0.0025128
0.00244806
0.0024283
0.00239471
0.0021056
0.00213805
0.00252124
0.00254915
0.00266361
0.00266154
0.00266385
0.00265772
0.0026624
0.00261798
0.00262104
0.00258991
0.0025872
0.00251808
0.00251281
0.00244807
0.00242831
0.00239471
0.00210561
0.00213805
0.00252127
0.00254918
0.00266361
0.00266154
0.00266385
0.00265772
0.00266241
0.00261798
0.00262105
0.00258992
0.0025872
0.00251808
0.00251281
0.00244807
0.00242831
0.0021385
0.00210562
0.00213806
0.0025213
0.0025492
0.00266361
0.00266155
0.00266386
0.00265772
0.00266241
0.00261798
0.00262105
0.00258992
0.00258721
0.00251809
0.00251282
0.00244808
0.00242832
0.00213851
0.00210564
0.00213807
0.00252132
0.00254923
0.00266362
0.00266156
0.00266386
0.00265773
0.00266241
0.00261799
0.00262106
0.00258993
0.00258721
0.0025181
0.00251284
0.00244808
0.00242833
0.00213852
0.00210566
0.00213809
0.00252135
0.00254925
0.00270681
0.00270466
0.00270809
0.00270187
0.00270763
0.00266935
0.00267333
0.00265241
0.00265187
0.00260528
0.00260107
0.00254165
0.00252299
0.00229681
0.00227177
0.00231182
0.00275628
0.00278669
0.00270681
0.00270466
0.00270809
0.00270187
0.00270763
0.00266934
0.00267333
0.00265241
0.00265187
0.00260529
0.00260108
0.00254165
0.00252299
0.00229681
0.00227178
0.00231182
0.00275632
0.00278672
0.00270681
0.00270466
0.00270809
0.00270187
0.00270763
0.00266935
0.00267333
0.00265241
0.00265187
0.00260529
0.00260109
0.00254166
0.002523
0.00249607