/*--------------------------------*- C++ -*----------------------------------*\
| =========                 |                                                 |
| \\      /  F ield         | OpenFOAM: The Open Source CFD Toolbox           |
|  \\    /   O peration     | Version:  v1906                                 |
|   \\  /    A nd           | Web:      www.OpenFOAM.com                      |
|    \\/     M anipulation  |                                                 |
\*---------------------------------------------------------------------------*/
FoamFile
{
    version     2.0;
    format      ascii;
    class       volScalarField;
    location    "200";
    object      pPrime2Mean;
}
// * * * * * * * * * * * * * * * * * * * * * * * * * * * * * * * * * * * * * //

dimensions      [2 -2 -4 0 0 0 0];


internalField   nonuniform List<scalar> 
255960
(
1404.31
1404.32
1402.45
1401.89
1401.3
1393.65
1392.25
1376.77
1373.98
1341.26
1334.88
1280.47
1271.23
1265.5
1220.1
1217.88
1200.48
1201.68
1404.31
1404.32
1402.45
1401.89
1401.3
1393.65
1392.25
1376.77
1373.98
1341.26
1334.88
1280.46
1271.23
1226.51
1220.1
1217.88
1200.47
1201.68
1404.31
1404.32
1402.45
1401.89
1395.02
1393.65
1392.25
1376.77
1373.98
1341.26
1334.88
1280.46
1271.23
1226.51
1220.1
1217.88
1200.47
1201.67
1404.31
1404.32
1402.45
1401.89
1401.3
1393.65
1392.25
1376.77
1373.98
1341.26
1334.88
1280.46
1271.23
1265.5
1220.1
1217.88
1200.47
1201.67
1404.31
1404.32
1402.45
1401.89
1401.3
1393.65
1392.25
1376.77
1373.98
1341.26
1334.88
1280.46
1271.23
1226.51
1220.1
1217.88
1200.47
1201.67
1404.03
1404.03
1402.09
1401.64
1394.49
1393.38
1392.29
1376.33
1374.17
1340.76
1335.81
1273.32
1265.8
1219.5
1213.93
1212.49
1193.88
1194.52
1404.03
1404.03
1402.09
1401.64
1401.19
1393.38
1392.29
1376.33
1374.17
1340.76
1335.81
1273.32
1265.8
1219.5
1213.93
1212.49
1193.88
1194.52
1404.03
1404.03
1402.09
1401.64
1401.19
1393.38
1392.29
1376.33
1374.17
1340.76
1335.81
1273.32
1265.8
1219.5
1213.93
1212.49
1193.88
1194.52
1404.03
1404.03
1402.09
1401.64
1401.19
1393.38
1392.29
1376.33
1374.17
1340.76
1335.81
1273.32
1265.8
1219.5
1213.93
1212.49
1193.88
1194.52
1404.03
1404.03
1402.09
1401.64
1401.19
1393.38
1392.29
1376.33
1374.17
1340.76
1335.81
1273.32
1265.8
1261.7
1213.93
1212.49
1193.88
1194.52
1404.03
1404.03
1402.09
1401.64
1401.19
1393.38
1392.29
1376.34
1374.17
1340.77
1335.82
1273.37
1265.86
1261.75
1213.93
1212.47
1193.75
1194.39
1404.03
1404.03
1402.09
1401.64
1401.19
1393.38
1392.29
1376.34
1374.17
1340.77
1335.82
1273.37
1265.86
1261.75
1213.93
1212.47
1193.75
1194.39
1404.03
1404.03
1402.09
1401.64
1401.19
1393.38
1392.29
1376.34
1374.17
1340.77
1335.82
1273.37
1265.86
1219.5
1213.93
1212.47
1193.75
1194.39
1404.03
1404.03
1402.09
1401.64
1401.19
1393.38
1392.29
1376.34
1374.17
1340.77
1335.82
1273.37
1265.86
1261.75
1213.93
1212.47
1193.75
1194.39
1404.03
1404.03
1402.09
1401.64
1401.19
1393.38
1392.29
1376.34
1374.17
1340.77
1335.82
1273.37
1265.86
1261.75
1213.93
1212.47
1193.75
1194.39
1404.03
1404.03
1402.09
1401.64
1401.19
1393.39
1392.3
1376.35
1374.18
1340.8
1335.85
1273.47
1265.96
1219.54
1213.96
1212.48
1193.55
1194.18
1404.03
1404.03
1402.09
1401.64
1401.19
1393.39
1392.3
1376.35
1374.18
1340.8
1335.85
1273.47
1265.95
1219.54
1213.96
1212.48
1193.55
1194.18
1404.03
1404.03
1402.09
1401.64
1401.19
1393.39
1392.3
1376.35
1374.18
1340.8
1335.85
1273.47
1265.95
1261.84
1213.96
1212.48
1193.55
1194.18
1404.03
1404.03
1402.09
1401.64
1401.19
1393.39
1392.3
1376.35
1374.18
1340.8
1335.85
1273.47
1265.95
1261.84
1213.96
1212.48
1193.55
1194.18
1404.03
1404.03
1402.09
1401.64
1401.2
1393.39
1392.3
1376.35
1374.18
1340.8
1335.85
1273.47
1265.96
1261.85
1213.96
1212.48
1193.55
1194.18
1404.03
1404.04
1402.1
1401.65
1401.2
1393.4
1392.31
1376.36
1374.19
1340.83
1335.9
1273.61
1266.1
1261.99
1214.01
1212.48
1193.26
1193.88
1404.03
1404.04
1402.1
1401.65
1401.2
1393.4
1392.31
1376.36
1374.19
1340.83
1335.9
1273.61
1266.1
1219.6
1214.01
1212.48
1193.26
1193.87
1404.03
1404.04
1402.1
1401.65
1401.2
1393.4
1392.31
1376.36
1374.19
1340.83
1335.9
1273.61
1266.1
1219.6
1214.01
1212.48
1193.26
1193.87
1404.03
1404.04
1402.1
1401.65
1401.2
1393.4
1392.31
1376.36
1374.19
1340.83
1335.9
1273.61
1266.1
1261.99
1214.01
1212.48
1193.26
1193.87
1404.03
1404.04
1402.1
1401.65
1401.2
1393.4
1392.31
1376.36
1374.19
1340.83
1335.9
1273.61
1266.1
1261.99
1214.01
1212.48
1193.26
1193.88
1404.03
1404.04
1402.1
1401.65
1394.51
1393.41
1392.32
1376.38
1374.21
1340.88
1335.95
1273.79
1266.3
1219.69
1214.08
1212.51
1192.85
1193.45
1404.03
1404.04
1402.1
1401.65
1394.51
1393.41
1392.32
1376.38
1374.21
1340.88
1335.95
1273.79
1266.3
1219.69
1214.08
1212.51
1192.85
1193.45
1404.03
1404.04
1402.1
1401.65
1401.2
1393.41
1392.32
1376.38
1374.21
1340.88
1335.95
1273.79
1266.3
1219.69
1214.08
1212.51
1192.85
1193.45
1404.03
1404.04
1402.1
1401.65
1401.2
1393.41
1392.32
1376.38
1374.21
1340.88
1335.95
1273.79
1266.3
1219.69
1214.08
1212.51
1192.85
1193.45
1404.03
1404.04
1402.1
1401.65
1401.2
1393.41
1392.32
1376.38
1374.21
1340.88
1335.95
1273.79
1266.3
1219.7
1214.08
1212.51
1192.85
1193.45
1404.04
1404.04
1402.1
1401.65
1401.21
1393.42
1392.33
1376.4
1374.23
1340.95
1336.03
1274.04
1266.57
1262.46
1214.2
1212.55
1192.33
1192.9
1404.04
1404.04
1402.1
1401.65
1401.21
1393.42
1392.33
1376.4
1374.23
1340.95
1336.03
1274.04
1266.57
1262.45
1214.2
1212.55
1192.33
1192.9
1404.04
1404.04
1402.1
1401.65
1401.21
1393.42
1392.33
1376.4
1374.23
1340.95
1336.03
1274.04
1266.57
1262.45
1214.2
1212.55
1192.33
1192.9
1404.04
1404.04
1402.1
1401.65
1401.21
1393.42
1392.33
1376.4
1374.23
1340.95
1336.03
1274.04
1266.57
1262.46
1214.2
1212.55
1192.33
1192.9
1404.04
1404.04
1402.1
1401.65
1401.21
1393.42
1392.33
1376.4
1374.23
1340.95
1336.03
1274.04
1266.57
1262.46
1214.2
1212.55
1192.33
1192.9
1404.04
1404.04
1402.11
1401.66
1401.22
1393.44
1392.35
1376.43
1374.26
1341.03
1336.12
1274.35
1266.9
1262.79
1214.36
1212.63
1191.69
1192.23
1404.04
1404.04
1402.11
1401.66
1394.54
1393.44
1392.35
1376.43
1374.26
1341.03
1336.12
1274.35
1266.9
1262.79
1214.36
1212.63
1191.69
1192.23
1404.04
1404.04
1402.11
1401.66
1394.54
1393.44
1392.35
1376.43
1374.26
1341.03
1336.12
1274.35
1266.9
1262.79
1214.36
1212.63
1191.69
1192.23
1404.04
1404.04
1402.11
1401.66
1401.22
1393.44
1392.35
1376.43
1374.26
1341.03
1336.12
1274.35
1266.9
1220.02
1214.36
1212.63
1191.69
1192.23
1404.04
1404.04
1402.11
1401.66
1401.22
1393.44
1392.35
1376.43
1374.26
1341.03
1336.12
1274.35
1266.9
1262.79
1214.36
1212.63
1191.69
1192.23
1404.04
1404.05
1402.12
1401.67
1401.23
1393.46
1392.37
1376.46
1374.3
1341.12
1336.23
1274.73
1267.31
1263.21
1214.58
1212.74
1190.9
1191.4
1404.04
1404.05
1402.12
1401.67
1401.23
1393.46
1392.37
1376.46
1374.3
1341.12
1336.23
1274.73
1267.31
1263.21
1214.58
1212.74
1190.9
1191.4
1404.04
1404.05
1402.12
1401.67
1401.23
1393.46
1392.37
1376.46
1374.3
1341.12
1336.23
1274.73
1267.31
1263.21
1214.58
1212.74
1190.9
1191.4
1404.04
1404.05
1402.12
1401.67
1401.23
1393.46
1392.37
1376.46
1374.3
1341.12
1336.23
1274.73
1267.31
1220.26
1214.58
1212.74
1190.9
1191.4
1404.04
1404.05
1402.12
1401.67
1401.23
1393.46
1392.37
1376.46
1374.3
1341.12
1336.23
1274.73
1267.31
1220.26
1214.58
1212.74
1190.9
1191.4
1404.05
1404.05
1402.13
1401.68
1401.23
1393.48
1392.39
1376.5
1374.34
1341.24
1336.37
1275.19
1267.81
1263.71
1214.86
1212.88
1189.95
1190.39
1404.05
1404.05
1402.13
1401.68
1401.23
1393.48
1392.39
1376.5
1374.34
1341.24
1336.37
1275.19
1267.81
1263.71
1214.86
1212.88
1189.95
1190.39
1404.05
1404.05
1402.13
1401.68
1394.57
1393.48
1392.39
1376.5
1374.34
1341.24
1336.37
1275.19
1267.81
1220.57
1214.86
1212.88
1189.95
1190.39
1404.05
1404.05
1402.13
1401.68
1401.23
1393.48
1392.39
1376.5
1374.34
1341.24
1336.37
1275.19
1267.81
1263.71
1214.86
1212.88
1189.95
1190.39
1404.05
1404.05
1402.13
1401.68
1401.23
1393.48
1392.39
1376.5
1374.34
1341.24
1336.37
1275.19
1267.81
1263.71
1214.86
1212.88
1189.95
1190.39
1404.06
1404.06
1402.13
1401.69
1394.6
1393.5
1392.42
1376.55
1374.39
1341.38
1336.53
1275.75
1268.41
1264.33
1215.2
1213.06
1188.82
1189.2
1404.06
1404.06
1402.13
1401.69
1401.24
1393.5
1392.42
1376.55
1374.39
1341.38
1336.53
1275.75
1268.41
1264.33
1215.2
1213.06
1188.82
1189.2
1404.06
1404.06
1402.13
1401.69
1394.6
1393.5
1392.42
1376.55
1374.39
1341.38
1336.53
1275.75
1268.41
1264.33
1215.2
1213.06
1188.82
1189.2
1404.06
1404.06
1402.13
1401.69
1394.6
1393.5
1392.42
1376.55
1374.39
1341.38
1336.53
1275.75
1268.41
1220.95
1215.2
1213.06
1188.82
1189.2
1404.06
1404.06
1402.13
1401.69
1401.24
1393.5
1392.42
1376.55
1374.39
1341.38
1336.53
1275.75
1268.41
1220.95
1215.2
1213.07
1188.82
1189.2
1404.07
1404.07
1402.15
1401.7
1394.63
1393.53
1392.45
1376.61
1374.45
1341.54
1336.72
1276.4
1269.12
1265.05
1215.63
1213.3
1187.51
1187.82
1404.07
1404.07
1402.15
1401.7
1401.26
1393.53
1392.45
1376.61
1374.45
1341.54
1336.72
1276.4
1269.12
1265.05
1215.62
1213.3
1187.51
1187.82
1404.07
1404.07
1402.15
1401.7
1401.26
1393.53
1392.45
1376.61
1374.45
1341.54
1336.72
1276.4
1269.12
1265.05
1215.62
1213.3
1187.51
1187.82
1404.07
1404.07
1402.15
1401.7
1394.63
1393.53
1392.45
1376.61
1374.45
1341.54
1336.72
1276.4
1269.12
1265.05
1215.63
1213.3
1187.51
1187.82
1404.07
1404.07
1402.15
1401.7
1394.63
1393.53
1392.45
1376.61
1374.45
1341.54
1336.72
1276.4
1269.12
1265.05
1215.63
1213.3
1187.51
1187.82
1404.08
1404.08
1402.16
1401.71
1394.66
1393.57
1392.49
1376.67
1374.51
1341.72
1336.93
1277.15
1269.93
1265.88
1216.13
1213.58
1186.03
1186.25
1404.08
1404.08
1402.16
1401.71
1401.27
1393.57
1392.49
1376.67
1374.51
1341.72
1336.93
1277.15
1269.93
1265.88
1216.13
1213.57
1186.03
1186.24
1404.08
1404.08
1402.16
1401.71
1394.66
1393.57
1392.49
1376.67
1374.51
1341.72
1336.93
1277.15
1269.93
1221.96
1216.13
1213.57
1186.03
1186.24
1404.08
1404.08
1402.16
1401.71
1401.27
1393.57
1392.49
1376.67
1374.51
1341.72
1336.93
1277.15
1269.93
1265.88
1216.13
1213.58
1186.03
1186.24
1404.08
1404.08
1402.16
1401.71
1401.27
1393.57
1392.49
1376.67
1374.51
1341.72
1336.93
1277.15
1269.93
1221.96
1216.13
1213.58
1186.03
1186.25
1404.09
1404.09
1402.17
1401.73
1401.29
1393.61
1392.53
1376.74
1374.58
1341.92
1337.17
1277.99
1270.85
1266.83
1216.71
1213.91
1184.37
1184.49
1404.09
1404.09
1402.17
1401.73
1394.69
1393.61
1392.53
1376.74
1374.58
1341.92
1337.17
1277.99
1270.85
1266.82
1216.71
1213.91
1184.37
1184.49
1404.09
1404.09
1402.17
1401.73
1394.69
1393.61
1392.53
1376.74
1374.58
1341.92
1337.17
1277.99
1270.85
1222.6
1216.71
1213.91
1184.37
1184.49
1404.09
1404.09
1402.17
1401.73
1401.29
1393.61
1392.53
1376.74
1374.58
1341.92
1337.17
1277.99
1270.85
1266.83
1216.71
1213.91
1184.37
1184.49
1404.09
1404.09
1402.17
1401.73
1401.29
1393.61
1392.53
1376.74
1374.58
1341.92
1337.17
1277.99
1270.85
1222.6
1216.71
1213.91
1184.37
1184.49
1404.1
1404.1
1402.19
1401.75
1401.31
1393.65
1392.58
1376.82
1374.67
1342.15
1337.44
1278.94
1271.87
1223.32
1217.39
1214.3
1182.52
1182.53
1404.1
1404.1
1402.19
1401.75
1401.31
1393.65
1392.58
1376.82
1374.67
1342.15
1337.44
1278.94
1271.87
1267.88
1217.38
1214.3
1182.52
1182.53
1404.1
1404.1
1402.19
1401.75
1401.31
1393.65
1392.58
1376.82
1374.67
1342.15
1337.44
1278.94
1271.87
1267.88
1217.38
1214.3
1182.52
1182.53
1404.1
1404.1
1402.19
1401.75
1401.31
1393.65
1392.58
1376.82
1374.67
1342.15
1337.44
1278.94
1271.87
1267.88
1217.39
1214.3
1182.52
1182.53
1404.1
1404.1
1402.19
1401.75
1401.31
1393.65
1392.58
1376.82
1374.67
1342.15
1337.44
1278.94
1271.87
1267.88
1217.39
1214.3
1182.52
1182.53
1404.11
1404.11
1402.21
1401.77
1394.78
1393.7
1392.63
1376.91
1374.76
1342.4
1337.74
1279.98
1273
1224.14
1218.15
1214.75
1180.45
1180.34
1404.11
1404.11
1402.21
1401.77
1401.33
1393.7
1392.63
1376.91
1374.76
1342.4
1337.74
1279.98
1273
1269.05
1218.15
1214.75
1180.45
1180.34
1404.11
1404.11
1402.21
1401.77
1401.33
1393.7
1392.63
1376.91
1374.76
1342.4
1337.74
1279.98
1273
1269.05
1218.15
1214.75
1180.45
1180.34
1404.11
1404.11
1402.21
1401.77
1401.33
1393.7
1392.63
1376.91
1374.76
1342.4
1337.74
1279.98
1273
1224.14
1218.15
1214.75
1180.45
1180.34
1404.12
1404.13
1402.23
1401.79
1401.36
1393.75
1392.69
1377.01
1374.86
1342.68
1338.06
1281.12
1274.24
1270.34
1219.01
1215.25
1178.15
1177.9
1404.12
1404.13
1402.23
1401.79
1401.36
1393.75
1392.69
1377.01
1374.86
1342.68
1338.06
1281.12
1274.24
1270.34
1219
1215.25
1178.15
1177.9
1404.12
1404.13
1402.23
1401.79
1401.36
1393.75
1392.69
1377.01
1374.86
1342.68
1338.06
1281.12
1274.24
1225.05
1219
1215.25
1178.15
1177.9
1404.12
1404.13
1402.23
1401.79
1401.36
1393.75
1392.69
1377.01
1374.86
1342.68
1338.06
1281.12
1274.24
1270.34
1219
1215.25
1178.15
1177.9
1404.12
1404.13
1402.23
1401.79
1401.36
1393.75
1392.69
1377.01
1374.86
1342.68
1338.06
1281.12
1274.24
1270.34
1219
1215.25
1178.15
1177.9
1404.13
1404.14
1402.25
1401.81
1394.88
1393.81
1392.75
1377.11
1374.96
1342.98
1338.41
1282.36
1275.6
1226.07
1219.96
1215.82
1175.59
1175.18
1404.13
1404.14
1402.25
1401.81
1401.38
1393.81
1392.75
1377.11
1374.96
1342.98
1338.41
1282.36
1275.6
1271.74
1219.96
1215.81
1175.58
1175.18
1404.13
1404.14
1402.25
1401.81
1401.38
1393.81
1392.75
1377.11
1374.96
1342.98
1338.41
1282.36
1275.6
1271.74
1219.96
1215.81
1175.58
1175.17
1404.13
1404.14
1402.25
1401.81
1401.38
1393.81
1392.75
1377.11
1374.96
1342.98
1338.41
1282.36
1275.6
1226.07
1219.96
1215.81
1175.58
1175.17
1404.13
1404.14
1402.25
1401.81
1401.38
1393.81
1392.75
1377.11
1374.96
1342.98
1338.41
1282.36
1275.6
1271.75
1219.96
1215.82
1175.58
1175.17
1404.15
1404.15
1402.27
1401.83
1401.41
1393.87
1392.82
1377.23
1375.08
1343.3
1338.8
1283.72
1277.08
1273.28
1221
1216.43
1172.71
1172.13
1404.15
1404.15
1402.27
1401.83
1401.41
1393.87
1392.82
1377.23
1375.08
1343.3
1338.8
1283.72
1277.08
1227.18
1221
1216.43
1172.71
1172.13
1404.15
1404.15
1402.27
1401.83
1401.41
1393.87
1392.82
1377.23
1375.08
1343.3
1338.8
1283.72
1277.08
1273.28
1221
1216.43
1172.71
1172.13
1404.15
1404.15
1402.27
1401.83
1401.41
1393.87
1392.82
1377.23
1375.08
1343.3
1338.8
1283.72
1277.08
1227.18
1221
1216.43
1172.71
1172.13
1404.15
1404.15
1402.27
1401.83
1394.94
1393.87
1392.82
1377.23
1375.08
1343.3
1338.8
1283.72
1277.08
1273.28
1221
1216.43
1172.71
1172.13
1404.17
1404.17
1402.3
1401.86
1401.44
1393.94
1392.9
1377.35
1375.21
1343.66
1339.21
1285.2
1278.69
1228.39
1222.14
1217.09
1169.49
1168.72
1404.17
1404.17
1402.3
1401.86
1401.44
1393.94
1392.9
1377.35
1375.21
1343.66
1339.21
1285.2
1278.69
1228.39
1222.13
1217.09
1169.49
1168.72
1404.17
1404.17
1402.3
1401.86
1401.44
1393.94
1392.9
1377.35
1375.21
1343.66
1339.21
1285.2
1278.69
1228.39
1222.13
1217.09
1169.49
1168.71
1404.17
1404.17
1402.3
1401.86
1401.44
1393.94
1392.9
1377.35
1375.21
1343.66
1339.21
1285.2
1278.69
1228.39
1222.13
1217.09
1169.49
1168.71
1404.17
1404.17
1402.3
1401.86
1395
1393.94
1392.9
1377.35
1375.21
1343.66
1339.21
1285.2
1278.69
1228.39
1222.14
1217.09
1169.49
1168.71
1404.19
1404.19
1402.33
1401.89
1401.47
1394.01
1392.97
1377.49
1375.35
1344.04
1339.67
1286.8
1280.43
1229.69
1223.36
1217.8
1165.88
1164.89
1404.19
1404.19
1402.33
1401.89
1401.47
1394.01
1392.97
1377.49
1375.35
1344.04
1339.67
1286.8
1280.43
1276.77
1223.36
1217.8
1165.88
1164.89
1404.19
1404.19
1402.33
1401.89
1401.47
1394.01
1392.97
1377.49
1375.35
1344.04
1339.67
1286.8
1280.43
1229.69
1223.36
1217.8
1165.88
1164.88
1404.19
1404.19
1402.33
1401.89
1401.47
1394.01
1392.97
1377.49
1375.35
1344.04
1339.67
1286.8
1280.43
1229.69
1223.36
1217.8
1165.87
1164.88
1404.19
1404.19
1402.33
1401.89
1401.47
1394.01
1392.97
1377.49
1375.35
1344.04
1339.67
1286.8
1280.43
1229.69
1223.36
1217.8
1165.87
1164.88
1404.21
1404.21
1402.36
1401.92
1395.14
1394.09
1393.06
1377.63
1375.49
1344.46
1340.16
1288.53
1282.32
1231.09
1224.66
1218.53
1161.83
1160.6
1404.21
1404.21
1402.36
1401.92
1395.14
1394.09
1393.06
1377.63
1375.49
1344.46
1340.16
1288.53
1282.32
1231.09
1224.66
1218.53
1161.82
1160.59
1404.21
1404.21
1402.36
1401.92
1395.14
1394.09
1393.06
1377.63
1375.49
1344.46
1340.16
1288.53
1282.32
1231.09
1224.66
1218.53
1161.82
1160.59
1404.21
1404.21
1402.36
1401.92
1401.51
1394.09
1393.06
1377.63
1375.49
1344.46
1340.16
1288.53
1282.32
1231.09
1224.66
1218.53
1161.82
1160.59
1404.21
1404.21
1402.36
1401.92
1401.51
1394.09
1393.06
1377.63
1375.49
1344.46
1340.16
1288.53
1282.32
1231.09
1224.66
1218.53
1161.82
1160.59
1404.23
1404.23
1402.39
1401.96
1401.55
1394.18
1393.15
1377.79
1375.66
1344.91
1340.69
1290.39
1284.34
1232.58
1226.04
1219.29
1157.29
1155.79
1404.23
1404.23
1402.39
1401.96
1401.55
1394.18
1393.15
1377.79
1375.66
1344.91
1340.69
1290.39
1284.34
1280.83
1226.04
1219.29
1157.28
1155.79
1404.23
1404.23
1402.39
1401.96
1401.55
1394.18
1393.15
1377.79
1375.66
1344.91
1340.69
1290.39
1284.34
1280.83
1226.04
1219.29
1157.28
1155.79
1404.23
1404.23
1402.39
1401.96
1401.55
1394.18
1393.15
1377.79
1375.66
1344.91
1340.69
1290.39
1284.34
1280.83
1226.04
1219.29
1157.28
1155.79
1404.23
1404.23
1402.39
1401.96
1401.55
1394.18
1393.15
1377.79
1375.66
1344.91
1340.69
1290.39
1284.34
1280.83
1226.04
1219.29
1157.28
1155.79
1404.25
1404.25
1402.43
1402
1401.59
1394.27
1393.25
1377.96
1375.83
1345.4
1341.26
1292.37
1286.5
1234.15
1227.48
1220.06
1152.23
1150.44
1404.25
1404.25
1402.43
1402
1395.31
1394.27
1393.25
1377.96
1375.83
1345.4
1341.25
1292.37
1286.49
1234.15
1227.48
1220.06
1152.23
1150.44
1404.25
1404.25
1402.43
1402
1395.31
1394.27
1393.25
1377.96
1375.83
1345.4
1341.25
1292.37
1286.49
1234.15
1227.48
1220.06
1152.23
1150.44
1404.25
1404.25
1402.43
1402
1401.59
1394.27
1393.25
1377.96
1375.83
1345.4
1341.25
1292.37
1286.49
1283.07
1227.48
1220.06
1152.22
1150.44
1404.25
1404.25
1402.43
1402
1395.31
1394.27
1393.25
1377.96
1375.83
1345.4
1341.26
1292.37
1286.5
1283.07
1227.48
1220.06
1152.22
1150.44
1404.28
1404.28
1402.46
1402.03
1401.63
1394.37
1393.36
1378.14
1376.01
1345.91
1341.86
1294.47
1288.78
1285.45
1228.99
1220.84
1146.65
1144.54
1404.27
1404.28
1402.46
1402.03
1401.63
1394.37
1393.36
1378.14
1376.01
1345.91
1341.86
1294.47
1288.78
1235.79
1228.99
1220.84
1146.64
1144.54
1404.27
1404.28
1402.46
1402.03
1401.63
1394.37
1393.36
1378.14
1376.01
1345.91
1341.86
1294.47
1288.78
1235.79
1228.99
1220.84
1146.64
1144.54
1404.27
1404.28
1402.46
1402.03
1401.63
1394.37
1393.36
1378.14
1376.01
1345.91
1341.86
1294.47
1288.78
1285.45
1228.99
1220.84
1146.64
1144.54
1404.27
1404.28
1402.46
1402.03
1401.63
1394.37
1393.36
1378.14
1376.01
1345.91
1341.86
1294.47
1288.78
1235.79
1228.99
1220.84
1146.64
1144.54
1404.3
1404.3
1402.5
1402.08
1395.49
1394.47
1393.46
1378.32
1376.21
1346.46
1342.5
1296.67
1291.17
1237.5
1230.56
1221.63
1140.57
1138.12
1404.3
1404.3
1402.5
1402.08
1395.49
1394.47
1393.46
1378.32
1376.21
1346.46
1342.5
1296.67
1291.17
1237.5
1230.56
1221.63
1140.56
1138.11
1404.3
1404.3
1402.5
1402.08
1395.49
1394.47
1393.46
1378.32
1376.21
1346.46
1342.5
1296.67
1291.17
1287.94
1230.56
1221.63
1140.56
1138.11
1404.3
1404.3
1402.5
1402.08
1395.49
1394.47
1393.46
1378.32
1376.21
1346.46
1342.5
1296.67
1291.17
1237.5
1230.56
1221.63
1140.56
1138.11
1404.3
1404.3
1402.5
1402.08
1401.68
1394.47
1393.46
1378.32
1376.21
1346.46
1342.5
1296.67
1291.17
1237.51
1230.56
1221.63
1140.56
1138.11
1404.33
1404.33
1402.54
1402.12
1395.59
1394.58
1393.58
1378.52
1376.41
1347.03
1343.17
1298.97
1293.67
1290.55
1232.2
1222.45
1134.04
1131.22
1404.33
1404.33
1402.54
1402.12
1395.59
1394.58
1393.58
1378.52
1376.41
1347.03
1343.17
1298.97
1293.67
1290.55
1232.2
1222.45
1134.03
1131.22
1404.33
1404.33
1402.54
1402.12
1395.59
1394.58
1393.58
1378.52
1376.41
1347.03
1343.17
1298.97
1293.67
1290.55
1232.2
1222.45
1134.03
1131.21
1404.33
1404.33
1402.54
1402.12
1395.59
1394.58
1393.58
1378.52
1376.41
1347.03
1343.17
1298.97
1293.67
1290.55
1232.2
1222.45
1134.03
1131.21
1404.33
1404.33
1402.54
1402.12
1395.59
1394.58
1393.58
1378.52
1376.41
1347.03
1343.17
1298.97
1293.67
1290.55
1232.21
1222.45
1134.03
1131.21
1404.35
1404.36
1402.58
1402.16
1401.78
1394.68
1393.7
1378.73
1376.62
1347.64
1343.88
1301.36
1296.27
1293.25
1233.92
1223.3
1127.09
1123.88
1404.35
1404.36
1402.58
1402.16
1401.78
1394.68
1393.7
1378.73
1376.62
1347.64
1343.87
1301.36
1296.27
1293.25
1233.92
1223.3
1127.09
1123.88
1404.35
1404.36
1402.58
1402.16
1401.78
1394.68
1393.7
1378.73
1376.62
1347.64
1343.87
1301.36
1296.27
1241.18
1233.92
1223.3
1127.08
1123.87
1404.35
1404.36
1402.58
1402.16
1401.78
1394.68
1393.7
1378.73
1376.62
1347.64
1343.87
1301.36
1296.27
1241.18
1233.92
1223.3
1127.08
1123.87
1404.35
1404.36
1402.58
1402.16
1401.78
1394.68
1393.7
1378.73
1376.62
1347.64
1343.88
1301.36
1296.27
1241.18
1233.92
1223.3
1127.08
1123.87
1404.39
1404.39
1402.63
1402.21
1401.83
1394.79
1393.81
1378.94
1376.84
1348.27
1344.61
1303.82
1298.94
1243.12
1235.7
1224.17
1119.75
1116.12
1404.39
1404.39
1402.63
1402.21
1401.83
1394.79
1393.81
1378.94
1376.84
1348.27
1344.61
1303.82
1298.94
1243.12
1235.7
1224.17
1119.74
1116.12
1404.39
1404.39
1402.63
1402.21
1401.83
1394.79
1393.81
1378.94
1376.84
1348.27
1344.61
1303.82
1298.94
1296.05
1235.7
1224.17
1119.74
1116.12
1404.39
1404.39
1402.63
1402.21
1401.83
1394.79
1393.81
1378.94
1376.84
1348.27
1344.61
1303.82
1298.94
1243.12
1235.7
1224.17
1119.74
1116.11
1404.39
1404.39
1402.63
1402.21
1401.83
1394.79
1393.81
1378.94
1376.84
1348.27
1344.61
1303.82
1298.94
1243.12
1235.7
1224.17
1119.74
1116.12
1404.42
1404.42
1402.67
1402.26
1395.9
1394.91
1393.94
1379.15
1377.07
1348.93
1345.37
1306.35
1301.69
1245.12
1237.52
1225.06
1112.01
1107.95
1404.42
1404.42
1402.67
1402.26
1395.9
1394.91
1393.94
1379.15
1377.07
1348.93
1345.37
1306.35
1301.69
1245.13
1237.52
1225.06
1112.01
1107.95
1404.42
1404.42
1402.67
1402.26
1401.88
1394.91
1393.93
1379.15
1377.07
1348.93
1345.37
1306.35
1301.69
1245.13
1237.52
1225.06
1112
1107.95
1404.42
1404.42
1402.67
1402.26
1401.88
1394.91
1393.94
1379.15
1377.07
1348.93
1345.37
1306.35
1301.69
1298.92
1237.53
1225.06
1112
1107.94
1404.42
1404.42
1402.67
1402.26
1401.88
1394.91
1393.94
1379.15
1377.07
1348.93
1345.37
1306.35
1301.69
1245.13
1237.53
1225.06
1112
1107.95
1404.45
1404.45
1402.72
1402.31
1401.94
1395.03
1394.06
1379.37
1377.3
1349.61
1346.17
1308.93
1304.5
1247.17
1239.39
1225.95
1103.91
1099.4
1404.45
1404.45
1402.72
1402.31
1396.01
1395.03
1394.06
1379.37
1377.3
1349.61
1346.17
1308.93
1304.5
1247.17
1239.39
1225.95
1103.9
1099.39
1404.45
1404.45
1402.72
1402.31
1396.01
1395.03
1394.06
1379.37
1377.3
1349.61
1346.17
1308.93
1304.5
1247.17
1239.39
1225.95
1103.9
1099.39
1404.45
1404.45
1402.72
1402.31
1401.94
1395.03
1394.06
1379.37
1377.3
1349.61
1346.17
1308.93
1304.5
1247.18
1239.39
1225.95
1103.9
1099.39
1404.45
1404.45
1402.72
1402.31
1396.01
1395.03
1394.06
1379.37
1377.3
1349.61
1346.17
1308.93
1304.5
1247.18
1239.39
1225.95
1103.9
1099.39
1404.48
1404.49
1402.77
1402.36
1401.99
1395.14
1394.19
1379.6
1377.54
1350.33
1346.99
1311.58
1307.37
1249.26
1241.28
1226.85
1095.47
1090.49
1404.48
1404.49
1402.77
1402.36
1401.99
1395.14
1394.19
1379.6
1377.54
1350.33
1346.99
1311.58
1307.37
1249.26
1241.29
1226.85
1095.46
1090.48
1404.48
1404.49
1402.77
1402.36
1396.11
1395.14
1394.19
1379.6
1377.54
1350.33
1346.99
1311.58
1307.37
1304.85
1241.29
1226.85
1095.46
1090.48
1404.48
1404.49
1402.77
1402.36
1401.99
1395.14
1394.19
1379.6
1377.54
1350.33
1346.99
1311.58
1307.37
1249.26
1241.29
1226.85
1095.46
1090.47
1404.48
1404.49
1402.77
1402.36
1396.11
1395.14
1394.19
1379.6
1377.54
1350.33
1346.99
1311.58
1307.37
1304.85
1241.29
1226.85
1095.46
1090.48
1404.51
1404.52
1402.82
1402.41
1402.05
1395.27
1394.32
1379.84
1377.79
1351.07
1347.85
1314.27
1310.29
1251.38
1243.2
1227.74
1086.75
1081.28
1404.51
1404.52
1402.82
1402.41
1402.05
1395.27
1394.32
1379.84
1377.79
1351.07
1347.85
1314.27
1310.29
1307.9
1243.2
1227.74
1086.74
1081.27
1404.51
1404.52
1402.82
1402.41
1402.05
1395.27
1394.32
1379.84
1377.79
1351.07
1347.85
1314.27
1310.29
1307.9
1243.2
1227.74
1086.74
1081.27
1404.51
1404.52
1402.82
1402.41
1402.05
1395.27
1394.32
1379.84
1377.79
1351.07
1347.85
1314.27
1310.29
1307.9
1243.2
1227.74
1086.73
1081.26
1404.51
1404.52
1402.82
1402.41
1402.05
1395.27
1394.32
1379.84
1377.79
1351.07
1347.85
1314.27
1310.29
1307.9
1243.2
1227.74
1086.74
1081.26
1404.55
1404.55
1402.87
1402.47
1402.11
1395.39
1394.45
1380.09
1378.06
1351.84
1348.74
1317
1313.26
1310.99
1245.13
1228.64
1077.81
1071.84
1404.55
1404.55
1402.87
1402.47
1402.11
1395.39
1394.45
1380.09
1378.06
1351.84
1348.74
1317
1313.26
1253.52
1245.13
1228.64
1077.8
1071.83
1404.55
1404.55
1402.87
1402.47
1402.11
1395.39
1394.45
1380.09
1378.06
1351.84
1348.74
1317
1313.26
1310.99
1245.13
1228.64
1077.8
1071.83
1404.55
1404.55
1402.87
1402.47
1396.34
1395.39
1394.45
1380.09
1378.06
1351.84
1348.74
1317.01
1313.26
1253.52
1245.13
1228.64
1077.8
1071.83
1404.55
1404.55
1402.87
1402.47
1396.34
1395.39
1394.45
1380.09
1378.06
1351.84
1348.74
1317.01
1313.26
1253.52
1245.13
1228.64
1077.8
1071.83
1404.58
1404.59
1402.92
1402.52
1402.17
1395.52
1394.59
1380.34
1378.32
1352.65
1349.66
1319.79
1316.27
1255.68
1247.08
1229.55
1068.77
1062.29
1404.58
1404.59
1402.92
1402.52
1402.17
1395.52
1394.59
1380.34
1378.32
1352.65
1349.66
1319.79
1316.27
1314.13
1247.08
1229.55
1068.76
1062.28
1404.58
1404.59
1402.92
1402.52
1402.17
1395.52
1394.59
1380.34
1378.32
1352.65
1349.66
1319.79
1316.27
1314.13
1247.08
1229.55
1068.75
1062.28
1404.58
1404.59
1402.92
1402.52
1396.47
1395.52
1394.59
1380.34
1378.32
1352.65
1349.66
1319.79
1316.28
1314.13
1247.08
1229.55
1068.75
1062.28
1404.58
1404.59
1402.92
1402.52
1402.17
1395.52
1394.59
1380.34
1378.32
1352.65
1349.66
1319.79
1316.28
1314.13
1247.08
1229.55
1068.75
1062.28
1404.62
1404.63
1402.98
1402.59
1402.24
1395.66
1394.74
1380.6
1378.61
1353.49
1350.62
1322.62
1319.33
1317.3
1249.04
1230.48
1059.72
1052.74
1404.62
1404.63
1402.98
1402.59
1396.59
1395.66
1394.74
1380.6
1378.61
1353.49
1350.62
1322.62
1319.33
1317.3
1249.04
1230.48
1059.72
1052.73
1404.62
1404.63
1402.98
1402.59
1402.24
1395.66
1394.74
1380.6
1378.61
1353.49
1350.62
1322.62
1319.33
1317.3
1249.04
1230.48
1059.71
1052.73
1404.62
1404.63
1402.98
1402.59
1396.59
1395.66
1394.74
1380.6
1378.61
1353.49
1350.62
1322.62
1319.33
1317.3
1249.04
1230.48
1059.71
1052.73
1404.62
1404.63
1402.98
1402.59
1402.24
1395.66
1394.74
1380.6
1378.61
1353.49
1350.62
1322.62
1319.33
1317.3
1249.04
1230.48
1059.71
1052.73
1404.66
1404.67
1403.04
1402.65
1396.72
1395.8
1394.89
1380.88
1378.91
1354.37
1351.63
1325.48
1322.43
1260.05
1251
1231.43
1050.84
1043.36
1404.66
1404.67
1403.04
1402.65
1402.31
1395.8
1394.89
1380.88
1378.9
1354.37
1351.63
1325.48
1322.43
1320.5
1251
1231.43
1050.84
1043.35
1404.66
1404.67
1403.04
1402.65
1402.31
1395.8
1394.89
1380.88
1378.9
1354.37
1351.63
1325.48
1322.43
1260.05
1251
1231.43
1050.83
1043.35
1404.66
1404.67
1403.04
1402.65
1402.31
1395.8
1394.89
1380.88
1378.9
1354.37
1351.63
1325.48
1322.43
1260.05
1251
1231.43
1050.83
1043.35
1404.66
1404.67
1403.04
1402.65
1402.31
1395.8
1394.89
1380.88
1378.91
1354.37
1351.63
1325.48
1322.43
1320.5
1251
1231.43
1050.83
1043.35
1404.71
1404.71
1403.1
1402.72
1402.39
1395.95
1395.04
1381.17
1379.22
1355.29
1352.68
1328.39
1325.56
1323.72
1252.95
1232.41
1042.31
1034.34
1404.71
1404.71
1403.1
1402.72
1402.39
1395.95
1395.04
1381.17
1379.22
1355.29
1352.68
1328.39
1325.56
1323.72
1252.96
1232.41
1042.31
1034.34
1404.71
1404.71
1403.1
1402.72
1402.38
1395.95
1395.04
1381.17
1379.22
1355.29
1352.68
1328.39
1325.56
1323.72
1252.96
1232.41
1042.3
1034.33
1404.71
1404.71
1403.1
1402.72
1396.86
1395.95
1395.04
1381.17
1379.22
1355.29
1352.68
1328.39
1325.56
1323.72
1252.96
1232.41
1042.3
1034.33
1404.71
1404.71
1403.1
1402.72
1402.39
1395.95
1395.04
1381.17
1379.22
1355.29
1352.68
1328.4
1325.56
1262.24
1252.96
1232.41
1042.3
1034.33
1404.75
1404.76
1403.17
1402.79
1402.47
1396.1
1395.21
1381.48
1379.56
1356.27
1353.79
1331.34
1328.73
1264.41
1254.89
1233.43
1034.35
1025.92
1404.75
1404.76
1403.17
1402.79
1397.01
1396.1
1395.21
1381.48
1379.55
1356.27
1353.79
1331.34
1328.73
1326.94
1254.89
1233.43
1034.34
1025.91
1404.75
1404.76
1403.17
1402.79
1402.47
1396.1
1395.21
1381.48
1379.55
1356.27
1353.79
1331.34
1328.73
1326.94
1254.89
1233.43
1034.33
1025.9
1404.75
1404.76
1403.17
1402.79
1402.47
1396.1
1395.21
1381.48
1379.55
1356.27
1353.79
1331.34
1328.73
1326.94
1254.89
1233.43
1034.33
1025.9
1404.75
1404.76
1403.17
1402.79
1397.01
1396.1
1395.21
1381.48
1379.56
1356.27
1353.79
1331.34
1328.73
1326.94
1254.89
1233.44
1034.33
1025.91
1404.8
1404.81
1403.25
1402.87
1402.55
1396.27
1395.39
1381.81
1379.91
1357.3
1354.96
1334.34
1331.93
1330.17
1256.79
1234.5
1027.17
1018.32
1404.8
1404.81
1403.25
1402.87
1397.16
1396.27
1395.39
1381.81
1379.91
1357.3
1354.96
1334.34
1331.93
1330.17
1256.79
1234.51
1027.16
1018.31
1404.8
1404.81
1403.25
1402.87
1397.16
1396.27
1395.39
1381.81
1379.91
1357.3
1354.96
1334.34
1331.93
1266.56
1256.79
1234.51
1027.16
1018.31
1404.8
1404.81
1403.25
1402.87
1402.55
1396.27
1395.39
1381.81
1379.91
1357.3
1354.96
1334.34
1331.93
1330.17
1256.79
1234.51
1027.16
1018.3
1404.8
1404.81
1403.25
1402.87
1402.55
1396.27
1395.39
1381.81
1379.91
1357.3
1354.96
1334.34
1331.93
1330.17
1256.79
1234.51
1027.16
1018.31
1404.86
1404.86
1403.33
1402.95
1397.33
1396.45
1395.57
1382.16
1380.29
1358.4
1356.2
1337.37
1335.16
1333.39
1258.66
1235.64
1021
1011.77
1404.86
1404.86
1403.33
1402.95
1397.33
1396.45
1395.57
1382.16
1380.29
1358.4
1356.2
1337.37
1335.16
1333.39
1258.66
1235.64
1020.99
1011.76
1404.86
1404.86
1403.33
1402.95
1402.64
1396.45
1395.57
1382.16
1380.29
1358.4
1356.2
1337.37
1335.16
1268.67
1258.66
1235.64
1020.98
1011.76
1404.86
1404.86
1403.33
1402.95
1397.33
1396.45
1395.57
1382.16
1380.29
1358.4
1356.2
1337.37
1335.16
1268.67
1258.66
1235.64
1020.98
1011.76
1404.86
1404.86
1403.33
1402.95
1397.33
1396.45
1395.57
1382.16
1380.29
1358.4
1356.2
1337.37
1335.16
1268.67
1258.66
1235.64
1020.98
1011.76
1404.91
1404.92
1403.41
1403.04
1397.51
1396.64
1395.77
1382.53
1380.7
1359.57
1357.51
1340.44
1338.41
1270.74
1260.48
1236.85
1016.01
1006.47
1404.91
1404.92
1403.41
1403.04
1397.51
1396.64
1395.77
1382.53