
400
(
0.00104981
0.000944081
0.000941088
0.00133896
0.000937541
0.00133438
0.000933296
0.00132438
0.000928438
0.00130935
0.000923012
0.00128985
0.000916987
0.00126664
0.000910291
0.00124059
0.000902864
0.00121259
0.000894686
0.0011834
0.000885769
0.00115361
0.000876158
0.00112365
0.000865901
0.00109385
0.000855045
0.00106439
0.000843631
0.00103535
0.000831692
0.00100678
0.000819259
0.000978713
0.000806351
0.000951156
0.000792975
0.000924116
0.000779144
0.000897587
0.000764917
0.000871555
0.000750365
0.000845963
0.000735542
0.000820724
0.000720486
0.000795764
0.000705217
0.000771006
0.000689729
0.000746379
0.000674004
0.00072181
0.000658031
0.000697254
0.000641807
0.000672677
0.000625341
0.00064806
0.000608616
0.000623398
0.000591566
0.000598726
0.00057412
0.000573912
0.000556255
0.000548914
0.000537986
0.000523898
0.000519351
0.000499043
0.000500433
0.00047455
0.000481318
0.000450591
0.000462079
0.000427238
0.000442788
0.000404561
0.000423517
0.000382656
0.000404324
0.00036156
0.000385254
0.000341273
0.000366352
0.000321797
0.000347656
0.000303115
0.000329199
0.000285219
0.000311014
0.00026809
0.000293127
0.000251692
0.000275558
0.000235988
0.000258328
0.000220924
0.000241463
0.000206467
0.00022499
0.000192626
0.000208928
0.000179403
0.000193289
0.000166775
0.000178091
0.000154686
0.000163358
0.000143057
0.000149109
0.000131885
0.000135354
0.000121108
0.000122092
0.00011063
0.000109313
0.000100372
9.70044e-05
9.02684e-05
8.51476e-05
8.0273e-05
7.37342e-05
7.03597e-05
6.2774e-05
6.0544e-05
5.23126e-05
5.09153e-05
4.24531e-05
4.15742e-05
3.33557e-05
3.27072e-05
2.52118e-05
2.45905e-05
1.82081e-05
1.75203e-05
1.24797e-05
1.17359e-05
8.06389e-06
7.33863e-06
4.87723e-06
4.25044e-06
2.73483e-06
2.24975e-06
1.4004e-06
1.05791e-06
6.38531e-07
4.14427e-07
2.48464e-07
1.12357e-07
7.69325e-08
1.96762e-09
1.76284e-08
-1.77012e-08
3.66574e-09
-8.16869e-09
1.8039e-09
-8.53293e-10
0.000976193
0.000973273
0.00096961
0.000965257
0.000960335
0.00095485
0.000948689
0.000941693
0.000933749
0.000924808
0.000914882
0.000904022
0.000892306
0.000879831
0.00086669
0.000852959
0.000838702
0.00082397
0.000808804
0.000793261
0.00077727
0.000760654
0.000743709
0.000727276
0.000711791
0.000696864
0.000681944
0.000666798
0.00065139
0.000635716
0.000619769
0.000603541
0.000587041
0.000570283
0.000553268
0.000535985
0.00051846
0.000500752
0.000482911
0.000464963
0.000446932
0.000428849
0.000410749
0.00039266
0.000374606
0.000356593
0.000338629
0.00032074
0.000302953
0.000285297
0.000267803
0.000250496
0.0002334
0.000216544
0.00019997
0.000183719
0.000167832
0.000152353
0.000137321
0.000122766
0.000108709
9.51739e-05
8.21837e-05
6.97714e-05
5.80028e-05
4.69942e-05
3.69022e-05
2.7906e-05
2.01817e-05
1.38589e-05
8.97212e-06
5.43395e-06
3.04856e-06
1.56055e-06
7.10966e-07
2.76471e-07
8.57551e-08
2.00477e-08
4.49927e-09
2.27059e-09
0.00108192
0.00108205
0.00108013
0.00107587
0.00106928
0.00106052
0.00104979
0.00103728
0.00102318
0.00100769
0.000991031
0.000973374
0.000954906
0.000935798
0.000916194
0.000896208
0.000875937
0.000855471
0.000834899
0.000814286
0.000793509
0.000772311
0.000750925
0.000730153
0.000710426
0.00069141
0.000672661
0.000654047
0.00063559
0.000617297
0.000599152
0.00058113
0.000563198
0.000545328
0.000527474
0.000509572
0.000491608
0.000473648
0.000455771
0.000438029
0.000420463
0.000403101
0.000385959
0.000369038
0.000352335
0.000335841
0.000319549
0.000303451
0.000287538
0.0002718
0.000256233
0.000240827
0.000225575
0.000210476
0.000195539
0.000180777
0.000166207
0.00015184
0.00013769
0.000123774
0.000110114
9.67433e-05
8.37038e-05
7.10695e-05
5.89754e-05
4.7605e-05
3.71744e-05
2.79135e-05
2.00279e-05
1.36454e-05
8.77288e-06
5.28453e-06
2.95352e-06
1.50822e-06
6.85937e-07
2.66162e-07
8.20249e-08
1.83915e-08
3.46023e-09
1.57194e-09
0.00104981
0.00104987
0.00104807
0.0010439
0.00103738
0.00102868
0.00101809
0.00100587
0.000992291
0.000977573
0.000961919
0.00094551
0.000928502
0.000911013
0.000893135
0.000874941
0.000856493
0.000837852
0.00081907
0.00080017
0.000781155
0.000762022
0.000742759
0.000723363
0.000703852
0.000684275
0.000664721
0.00064528
0.000626008
0.000606922
0.000587999
0.000569154
0.000550277
0.000531301
0.000512193
0.000492938
0.00047358
0.000454214
0.000434939
0.000415854
0.000397048
0.000378576
0.000360464
0.000342731
0.000325385
0.000308448
0.000291935
0.000275838
0.000260143
0.000244831
0.000229893
0.000215321
0.000201103
0.00018722
0.00017366
0.000160417
0.000147484
0.00013484
0.000122461
0.000110322
9.84085e-05
8.67169e-05
7.52543e-05
6.4072e-05
5.32852e-05
4.3064e-05
3.36279e-05
2.52194e-05
1.80542e-05
1.22663e-05
7.86465e-06
4.72781e-06
2.6398e-06
1.34807e-06
6.13502e-07
2.38156e-07
7.32022e-08
1.59721e-08
2.62669e-09
1.10525e-09
)
