/*--------------------------------*- C++ -*----------------------------------*\
| =========                 |                                                 |
| \\      /  F ield         | OpenFOAM: The Open Source CFD Toolbox           |
|  \\    /   O peration     | Version:  v1912                                 |
|   \\  /    A nd           | Website:  www.openfoam.com                      |
|    \\/     M anipulation  |                                                 |
\*---------------------------------------------------------------------------*/
FoamFile
{
    version     2.0;
    format      ascii;
    class       volScalarField;
    location    "198";
    object      pPrime2Mean;
}
// * * * * * * * * * * * * * * * * * * * * * * * * * * * * * * * * * * * * * //

dimensions      [2 -2 -4 0 0 0 0];


internalField   nonuniform List<scalar> 
10147
(
1636.02
1634.25
1637.7
1636.92
1638.13
1638.46
1638.7
1638.75
1638.55
1638.1
1637.39
1636.54
1635.82
1635.51
1635.12
1633.6
1636.02
1634.25
1637.7
1636.92
1638.13
1638.46
1638.7
1638.75
1638.55
1638.1
1637.39
1636.54
1635.82
1635.51
1635.12
1633.6
1636.01
1634.25
1637.7
1636.93
1638.13
1638.46
1638.7
1638.75
1638.55
1638.1
1637.39
1636.54
1635.82
1635.51
1635.12
1633.6
1636.01
1634.25
1637.7
1636.93
1638.13
1638.46
1638.7
1638.75
1638.55
1638.1
1637.39
1636.54
1635.82
1635.51
1635.12
1633.6
1636.01
1634.26
1637.7
1636.93
1638.14
1638.46
1638.7
1638.75
1638.55
1638.1
1637.39
1636.54
1635.82
1635.51
1635.13
1633.6
1636.01
1634.26
1637.7
1636.93
1638.14
1638.47
1638.7
1638.75
1638.55
1638.11
1637.39
1636.54
1635.82
1635.52
1635.13
1633.6
1636
1634.26
1637.7
1636.93
1638.14
1638.47
1638.71
1638.76
1638.56
1638.11
1637.39
1636.54
1635.82
1635.52
1635.13
1633.6
1636
1634.27
1637.69
1636.94
1638.14
1638.47
1638.71
1638.76
1638.56
1638.11
1637.4
1636.55
1635.83
1635.52
1635.13
1633.61
1635.99
1634.27
1637.69
1636.94
1638.14
1638.48
1638.71
1638.77
1638.56
1638.12
1637.4
1636.55
1635.83
1635.52
1635.13
1633.61
1635.98
1634.28
1637.69
1636.95
1638.15
1638.48
1638.72
1638.77
1638.57
1638.12
1637.41
1636.55
1635.83
1635.52
1635.14
1633.62
1635.97
1634.29
1637.69
1636.96
1638.15
1638.49
1638.73
1638.78
1638.58
1638.13
1637.41
1636.56
1635.84
1635.53
1635.14
1633.62
1635.96
1634.3
1637.68
1636.97
1638.15
1638.49
1638.73
1638.78
1638.58
1638.14
1637.42
1636.56
1635.84
1635.53
1635.14
1633.63
1635.94
1634.31
1637.67
1636.98
1638.16
1638.5
1638.74
1638.79
1638.59
1638.15
1637.43
1636.57
1635.85
1635.54
1635.15
1633.64
1635.92
1634.32
1637.66
1636.99
1638.16
1638.51
1638.75
1638.8
1638.6
1638.15
1637.44
1636.58
1635.85
1635.54
1635.15
1633.65
1635.9
1634.34
1637.65
1637
1638.17
1638.52
1638.76
1638.81
1638.61
1638.17
1637.45
1636.59
1635.86
1635.55
1635.16
1633.66
1635.87
1634.35
1637.64
1637.02
1638.17
1638.53
1638.77
1638.82
1638.62
1638.18
1637.46
1636.59
1635.87
1635.55
1635.16
1633.67
1635.84
1634.38
1637.62
1637.04
1638.18
1638.54
1638.78
1638.83
1638.64
1638.19
1637.47
1636.6
1635.88
1635.56
1635.16
1633.69
1635.8
1634.4
1637.6
1637.06
1638.19
1638.55
1638.79
1638.85
1638.65
1638.21
1637.48
1636.62
1635.89
1635.57
1635.17
1633.71
1635.75
1634.43
1637.57
1637.08
1638.19
1638.56
1638.81
1638.86
1638.67
1638.22
1637.5
1636.63
1635.9
1635.57
1635.17
1633.73
1635.7
1634.46
1637.54
1637.11
1638.2
1638.58
1638.82
1638.88
1638.69
1638.24
1637.51
1636.64
1635.91
1635.58
1635.18
1633.76
1635.64
1634.5
1637.51
1637.14
1638.21
1638.6
1638.84
1638.9
1638.71
1638.26
1637.53
1636.65
1635.92
1635.59
1635.18
1633.79
1635.57
1634.55
1637.47
1637.18
1638.21
1638.62
1638.86
1638.92
1638.73
1638.28
1637.55
1636.67
1635.94
1635.6
1635.19
1633.82
1635.49
1634.6
1637.43
1637.21
1638.22
1638.64
1638.88
1638.94
1638.75
1638.31
1637.57
1636.69
1635.95
1635.62
1635.19
1633.86
1635.41
1634.65
1637.38
1637.25
1638.23
1638.66
1638.9
1638.96
1638.78
1638.33
1637.6
1636.71
1635.97
1635.63
1635.2
1633.9
1635.32
1634.72
1637.33
1637.3
1638.24
1638.68
1638.93
1638.99
1638.81
1638.36
1637.62
1636.73
1635.99
1635.64
1635.2
1633.95
1635.22
1634.79
1637.28
1637.35
1638.25
1638.71
1638.95
1639.02
1638.84
1638.39
1637.65
1636.75
1636.01
1635.66
1635.2
1634
1635.11
1634.86
1637.23
1637.4
1638.26
1638.74
1638.98
1639.04
1638.87
1638.42
1637.68
1636.77
1636.03
1635.68
1635.21
1634.06
1635
1634.94
1637.17
1637.46
1638.27
1638.76
1639.01
1639.08
1638.91
1638.46
1637.71
1636.8
1636.05
1635.69
1635.21
1634.12
1634.89
1635.04
1637.12
1637.52
1638.28
1638.8
1639.04
1639.11
1638.95
1638.49
1637.75
1636.82
1636.08
1635.71
1635.22
1634.19
1634.76
1635.13
1637.06
1637.59
1638.3
1638.83
1639.07
1639.15
1638.98
1638.53
1637.78
1636.85
1636.1
1635.73
1635.22
1634.26
1634.64
1635.24
1637
1637.66
1638.32
1638.87
1639.11
1639.19
1639.03
1638.58
1637.82
1636.88
1636.13
1635.75
1635.23
1634.33
1634.51
1635.36
1636.95
1637.74
1638.33
1638.9
1639.15
1639.23
1639.07
1638.62
1637.86
1636.91
1636.16
1635.77
1635.24
1634.41
1634.38
1635.48
1636.89
1637.82
1638.35
1638.94
1639.19
1639.27
1639.12
1638.67
1637.91
1636.95
1636.19
1635.8
1635.24
1634.5
1634.25
1635.61
1636.84
1637.9
1638.37
1638.98
1639.23
1639.32
1639.17
1638.72
1637.95
1636.99
1636.22
1635.82
1635.25
1634.59
1634.12
1635.74
1636.79
1637.98
1638.4
1639.03
1639.28
1639.36
1639.22
1638.77
1638
1637.02
1636.26
1635.84
1635.26
1634.68
1634
1635.88
1636.75
1638.07
1638.43
1639.07
1639.33
1639.42
1639.28
1638.83
1638.05
1637.06
1636.29
1635.87
1635.27
1634.78
1633.88
1636.02
1636.71
1638.16
1638.46
1639.12
1639.38
1639.47
1639.34
1638.89
1638.1
1637.11
1636.33
1635.9
1635.28
1634.87
1633.76
1636.17
1636.68
1638.25
1638.49
1639.17
1639.43
1639.53
1639.4
1638.95
1638.16
1637.15
1636.37
1635.93
1635.3
1634.97
1633.66
1636.32
1636.66
1638.34
1638.53
1639.22
1639.49
1639.59
1639.47
1639.02
1638.22
1637.2
1636.41
1635.95
1635.31
1635.07
1633.56
1636.47
1636.64
1638.43
1638.57
1639.27
1639.55
1639.65
1639.54
1639.08
1638.28
1637.25
1636.46
1635.98
1635.33
1635.16
1633.48
1636.62
1636.63
1638.52
1638.61
1639.33
1639.61
1639.72
1639.61
1639.16
1638.35
1637.3
1636.5
1636.01
1635.35
1635.26
1633.41
1636.76
1636.63
1638.61
1638.66
1639.38
1639.67
1639.78
1639.68
1639.23
1638.41
1637.36
1636.55
1636.05
1635.38
1635.35
1633.35
1636.9
1636.63
1638.7
1638.71
1639.44
1639.74
1639.86
1639.76
1639.31
1638.48
1637.41
1636.6
1636.08
1635.4
1635.44
1633.3
1637.03
1636.64
1638.78
1638.77
1639.5
1639.81
1639.93
1639.84
1639.39
1638.56
1637.47
1636.65
1636.11
1635.44
1635.53
1633.27
1637.15
1636.67
1638.86
1638.83
1639.56
1639.88
1640.01
1639.93
1639.47
1638.63
1637.53
1636.7
1636.14
1635.47
1635.61
1633.26
1637.27
1636.7
1638.93
1638.89
1639.63
1639.96
1640.09
1640.01
1639.56
1638.71
1637.6
1636.76
1636.18
1635.51
1635.69
1633.26
1637.37
1636.74
1639
1638.96
1639.7
1640.03
1640.17
1640.1
1639.65
1638.79
1637.67
1636.81
1636.21
1635.55
1635.76
1633.28
1637.46
1636.78
1639.07
1639.03
1639.76
1640.11
1640.26
1640.2
1639.74
1638.87
1637.73
1636.87
1636.25
1635.6
1635.82
1633.32
1637.54
1636.84
1639.13
1639.11
1639.83
1640.19
1640.35
1640.29
1639.84
1638.96
1637.81
1636.93
1636.29
1635.65
1635.88
1633.38
1637.61
1636.9
1639.18
1639.19
1639.91
1640.28
1640.44
1640.39
1639.94
1639.05
1637.88
1636.99
1636.33
1635.7
1635.93
1633.45
1637.67
1636.97
1639.23
1639.27
1639.98
1640.37
1640.53
1640.49
1640.04
1639.14
1637.96
1637.05
1636.37
1635.75
1635.98
1633.53
1637.72
1637.05
1639.28
1639.36
1640.06
1640.45
1640.63
1640.6
1640.15
1639.23
1638.03
1637.12
1636.41
1635.81
1636.02
1633.63
1637.76
1637.13
1639.33
1639.45
1640.14
1640.54
1640.73
1640.71
1640.25
1639.33
1638.11
1637.18
1636.45
1635.88
1636.06
1633.74
1637.78
1637.23
1639.37
1639.54
1640.22
1640.64
1640.83
1640.82
1640.36
1639.43
1638.2
1637.25
1636.49
1635.94
1636.1
1633.87
1637.81
1637.32
1639.4
1639.64
1640.3
1640.73
1640.94
1640.93
1640.48
1639.53
1638.28
1637.31
1636.54
1636.01
1636.13
1634.01
1637.82
1637.43
1639.44
1639.73
1640.39
1640.83
1641.05
1641.05
1640.59
1639.63
1638.37
1637.38
1636.59
1636.08
1636.16
1634.15
1637.83
1637.53
1639.48
1639.83
1640.47
1640.93
1641.16
1641.17
1640.71
1639.74
1638.46
1637.45
1636.64
1636.15
1636.19
1634.31
1637.84
1637.65
1639.52
1639.94
1640.56
1641.03
1641.27
1641.29
1640.83
1639.84
1638.55
1637.52
1636.69
1636.22
1636.22
1634.48
1637.85
1637.76
1639.56
1640.04
1640.66
1641.13
1641.39
1641.41
1640.96
1639.95
1638.64
1637.59
1636.74
1636.3
1636.25
1634.65
1637.86
1637.88
1639.6
1640.14
1640.75
1641.24
1641.51
1641.54
1641.09
1640.07
1638.74
1637.67
1636.79
1636.37
1636.28
1634.83
1637.87
1638.01
1639.64
1640.25
1640.85
1641.35
1641.63
1641.67
1641.22
1640.18
1638.84
1637.74
1636.85
1636.45
1636.32
1635.03
1637.89
1638.13
1639.68
1640.35
1640.95
1641.46
1641.75
1641.8
1641.35
1640.3
1638.94
1637.81
1636.91
1636.52
1636.36
1635.23
1637.91
1638.26
1639.73
1640.46
1641.06
1641.57
1641.87
1641.94
1641.48
1640.42
1639.04
1637.89
1636.97
1636.6
1636.4
1635.44
1637.94
1638.38
1639.79
1640.57
1641.17
1641.68
1642
1642.08
1641.62
1640.54
1639.14
1637.96
1637.03
1636.68
1636.45
1635.67
1637.97
1638.51
1639.84
1640.67
1641.28
1641.8
1642.13
1642.23
1641.77
1640.66
1639.25
1638.04
1637.1
1636.75
1636.5
1635.9
1638.01
1638.64
1639.9
1640.78
1641.39
1641.92
1642.27
1642.37
1641.91
1640.79
1639.36
1638.12
1637.17
1636.83
1636.56
1636.12
1638.06
1638.77
1639.97
1640.89
1641.5
1642.04
1642.4
1642.52
1642.06
1640.92
1639.47
1638.2
1637.23
1636.91
1636.63
1636.35
1638.12
1638.89
1640.04
1641.01
1641.62
1642.17
1642.54
1642.68
1642.22
1641.06
1639.59
1638.28
1637.31
1636.99
1636.7
1636.57
1638.19
1639.02
1640.12
1641.12
1641.75
1642.3
1642.69
1642.84
1642.38
1641.2
1639.71
1638.37
1637.38
1637.07
1636.78
1636.79
1638.27
1639.14
1640.2
1641.23
1641.88
1642.43
1642.84
1643.01
1642.54
1641.34
1639.83
1638.45
1637.45
1637.15
1636.86
1637.01
1638.35
1639.26
1640.29
1641.35
1642.01
1642.57
1642.99
1643.18
1642.71
1641.49
1639.96
1638.54
1637.53
1637.23
1636.96
1637.22
1638.44
1639.38
1640.38
1641.47
1642.15
1642.71
1643.15
1643.36
1642.89
1641.64
1640.09
1638.63
1637.61
1637.32
1637.05
1637.42
1638.54
1639.51
1640.48
1641.6
1642.29
1642.86
1643.31
1643.55
1643.07
1641.8
1640.22
1638.73
1637.7
1637.4
1637.15
1637.62
1638.65
1639.63
1640.59
1641.72
1642.44
1643.01
1643.48
1643.75
1643.27
1641.96
1640.37
1638.82
1637.78
1637.49
1637.26
1637.82
1638.77
1639.75
1640.7
1641.86
1642.59
1643.17
1643.65
1643.95
1643.47
1642.13
1640.51
1638.92
1637.87
1637.58
1637.37
1638.01
1638.89
1639.87
1640.81
1641.99
1642.74
1643.32
1643.82
1644.15
1643.66
1642.3
1640.66
1639.02
1637.95
1637.67
1637.48
1638.17
1639
1639.97
1640.9
1642.1
1642.88
1643.46
1643.97
1644.33
1643.84
1642.45
1640.79
1639.11
1638.03
1637.75
1637.58
1638.3
1639.08
1640.05
1640.98
1642.18
1642.98
1643.57
1644.09
1644.47
1643.98
1642.56
1640.89
1639.17
1638.09
1637.81
1637.66
1638.37
1639.12
1640.08
1641.01
1642.22
1643.03
1643.61
1644.14
1644.53
1644.03
1642.61
1640.93
1639.19
1638.11
1637.83
1637.7
1608.57
1607.59
1608.39
1608.03
1609.02
1609.62
1610.25
1610.64
1610.72
1610.48
1609.88
1608.93
1607.89
1607.07
1607.01
1607.2
1608.57
1607.59
1608.39
1608.03
1609.02
1609.62
1610.25
1610.64
1610.72
1610.48
1609.88
1608.93
1607.89
1607.07
1607.01
1607.2
1608.57
1607.6
1608.39
1608.03
1609.02
1609.62
1610.25
1610.64
1610.72
1610.48
1609.89
1608.93
1607.89
1607.07
1607.01
1607.2
1608.57
1607.6
1608.38
1608.03
1609.02
1609.62
1610.25
1610.64
1610.72
1610.48
1609.89
1608.93
1607.9
1607.08
1607.01
1607.2
1608.57
1607.6
1608.38
1608.04
1609.02
1609.63
1610.25
1610.64
1610.72
1610.48
1609.89
1608.93
1607.9
1607.08
1607.01
1607.2
1608.57
1607.6
1608.38
1608.04
1609.02
1609.63
1610.25
1610.64
1610.72
1610.49
1609.89
1608.93
1607.9
1607.08
1607.01
1607.2
1608.57
1607.6
1608.38
1608.04
1609.02
1609.63
1610.26
1610.64
1610.73
1610.49
1609.89
1608.94
1607.9
1607.08
1607.01
1607.21
1608.57
1607.6
1608.38
1608.04
1609.02
1609.63
1610.26
1610.64
1610.73
1610.49
1609.89
1608.94
1607.9
1607.08
1607.01
1607.21
1608.57
1607.61
1608.38
1608.05
1609.02
1609.63
1610.26
1610.65
1610.73
1610.49
1609.9
1608.94
1607.9
1607.08
1607.01
1607.21
1608.57
1607.61
1608.37
1608.05
1609.03
1609.63
1610.26
1610.65
1610.73
1610.5
1609.9
1608.94
1607.91
1607.09
1607.01
1607.22
1608.57
1607.62
1608.37
1608.05
1609.03
1609.64
1610.27
1610.65
1610.74
1610.5
1609.9
1608.95
1607.91
1607.09
1607.02
1607.22
1608.57
1607.62
1608.36
1608.06
1609.03
1609.64
1610.27
1610.66
1610.74
1610.5
1609.91
1608.95
1607.91
1607.1
1607.02
1607.23
1608.57
1607.63
1608.36
1608.06
1609.03
1609.65
1610.27
1610.66
1610.75
1610.51
1609.91
1608.95
1607.92
1607.1
1607.02
1607.24
1608.57
1607.64
1608.35
1608.07
1609.03
1609.65
1610.28
1610.67
1610.75
1610.51
1609.92
1608.96
1607.92
1607.11
1607.02
1607.24
1608.57
1607.65
1608.34
1608.08
1609.04
1609.65
1610.28
1610.67
1610.76
1610.52
1609.92
1608.96
1607.93
1607.11
1607.02
1607.25
1608.56
1607.66
1608.33
1608.09
1609.04
1609.66
1610.29
1610.68
1610.77
1610.53
1609.93
1608.97
1607.93
1607.12
1607.02
1607.27
1608.56
1607.68
1608.32
1608.1
1609.04
1609.67
1610.29
1610.69
1610.77
1610.54
1609.94
1608.98
1607.94
1607.13
1607.02
1607.28
1608.55
1607.69
1608.3
1608.11
1609.04
1609.67
1610.3
1610.69
1610.78
1610.55
1609.94
1608.98
1607.95
1607.14
1607.02
1607.29
1608.55
1607.71
1608.28
1608.12
1609.05
1609.68
1610.31
1610.7
1610.79
1610.56
1609.95
1608.99
1607.95
1607.15
1607.02
1607.31
1608.54
1607.73
1608.26
1608.14
1609.05
1609.69
1610.32
1610.71
1610.8
1610.57
1609.96
1609
1607.96
1607.16
1607.02
1607.33
1608.53
1607.76
1608.24
1608.16
1609.05
1609.7
1610.33
1610.72
1610.81
1610.58
1609.98
1609.01
1607.97
1607.17
1607.02
1607.35
1608.52
1607.78
1608.22
1608.18
1609.06
1609.71
1610.34
1610.73
1610.83
1610.59
1609.99
1609.02
1607.99
1607.19
1607.02
1607.38
1608.51
1607.81
1608.19
1608.2
1609.06
1609.72
1610.35
1610.74
1610.84
1610.61
1610
1609.04
1608
1607.2
1607.02
1607.4
1608.5
1607.84
1608.16
1608.22
1609.07
1609.74
1610.36
1610.76
1610.86
1610.62
1610.02
1609.05
1608.01
1607.22
1607.02
1607.43
1608.49
1607.88
1608.13
1608.24
1609.07
1609.75
1610.37
1610.77
1610.87
1610.64
1610.03
1609.06
1608.02
1607.24
1607.02
1607.47
1608.48
1607.91
1608.1
1608.27
1609.08
1609.77
1610.38
1610.79
1610.89
1610.66
1610.05
1609.08
1608.04
1607.26
1607.02
1607.5
1608.47
1607.95
1608.07
1608.3
1609.09
1609.78
1610.4
1610.8
1610.91
1610.68
1610.07
1609.1
1608.06
1607.28
1607.02
1607.54
1608.46
1608
1608.04
1608.33
1609.1
1609.8
1610.41
1610.82
1610.93
1610.7
1610.09
1609.11
1608.07
1607.3
1607.02
1607.58
1608.45
1608.04
1608.01
1608.36
1609.1
1609.82
1610.43
1610.84
1610.95
1610.72
1610.11
1609.13
1608.09
1607.33
1607.03
1607.62
1608.44
1608.09
1607.98
1608.39
1609.11
1609.84
1610.45
1610.86
1610.97
1610.74
1610.13
1609.15
1608.11
1607.35
1607.03
1607.66
1608.42
1608.14
1607.94
1608.42
1609.12
1609.86
1610.47
1610.88
1610.99
1610.77
1610.15
1609.17
1608.14
1607.38
1607.03
1607.71
1608.41
1608.19
1607.91
1608.45
1609.13
1609.88
1610.49
1610.9
1611.02
1610.79
1610.17
1609.19
1608.16
1607.41
1607.04
1607.76
1608.4
1608.24
1607.88
1608.49
1609.15
1609.9
1610.51
1610.92
1611.04
1610.82
1610.2
1609.22
1608.18
1607.44
1607.05
1607.81
1608.39
1608.29
1607.85
1608.52
1609.16
1609.92
1610.53
1610.94
1611.07
1610.85
1610.22
1609.24
1608.21
1607.47
1607.06
1607.86
1608.38
1608.35
1607.82
1608.56
1609.17
1609.95
1610.55
1610.97
1611.1
1610.88
1610.25
1609.26
1608.23
1607.5
1607.07
1607.91
1608.37
1608.4
1607.8
1608.59
1609.19
1609.97
1610.57
1610.99
1611.13
1610.91
1610.28
1609.29
1608.26
1607.53
1607.08
1607.96
1608.37
1608.45
1607.78
1608.62
1609.21
1609.99
1610.6
1611.01
1611.16
1610.94
1610.31
1609.32
1608.29
1607.56
1607.09
1608.02
1608.36
1608.51
1607.76
1608.66
1609.23
1610.02
1610.62
1611.04
1611.19
1610.97
1610.34
1609.34
1608.32
1607.6
1607.11
1608.07
1608.36
1608.56
1607.74
1608.69
1609.25
1610.05
1610.64
1611.07
1611.22
1611.01
1610.37
1609.37
1608.35
1607.63
1607.13
1608.13
1608.35
1608.61
1607.72
1608.72
1609.27
1610.07
1610.67
1611.1
1611.25
1611.04
1610.4
1609.4
1608.38
1607.66
1607.15
1608.18
1608.35
1608.66
1607.71
1608.75
1609.29
1610.1
1610.7
1611.12
1611.29
1611.08
1610.43
1609.43
1608.41
1607.7
1607.17
1608.23
1608.35
1608.71
1607.7
1608.79
1609.31
1610.13
1610.73
1611.15
1611.32
1611.11
1610.47
1609.46
1608.44
1607.74
1607.2
1608.29
1608.35
1608.76
1607.7
1608.81
1609.34
1610.16
1610.75
1611.19
1611.36
1611.15
1610.5
1609.5
1608.48
1607.77
1607.23
1608.34
1608.36
1608.8
1607.7
1608.84
1609.37
1610.19
1610.78
1611.22
1611.4
1611.19
1610.54
1609.53
1608.52
1607.81
1607.27
1608.39
1608.37
1608.84
1607.7
1608.87
1609.4
1610.22
1610.81
1611.25
1611.44
1611.23
1610.57
1609.56
1608.55
1607.85
1607.3
1608.44
1608.38
1608.87
1607.71
1608.9
1609.43
1610.25
1610.85
1611.28
1611.48
1611.27
1610.61
1609.6
1608.59
1607.89
1607.34
1608.48
1608.39
1608.9
1607.72
1608.92
1609.46
1610.28
1610.88
1611.32
1611.52
1611.32
1610.65
1609.64
1608.64
1607.93
1607.39
1608.52
1608.4
1608.93
1607.74
1608.95
1609.5
1610.32
1610.91
1611.36
1611.56
1611.36
1610.69
1609.68
1608.68
1607.97
1607.43
1608.56
1608.42
1608.95
1607.76
1608.97
1609.54
1610.35
1610.95
1611.39
1611.6
1611.41
1610.73
1609.71
1608.72
1608.01
1607.49
1608.6
1608.44
1608.97
1607.79
1608.99
1609.58
1610.39
1610.98
1611.43
1611.65
1611.45
1610.77
1609.75
1608.77
1608.06
1607.54
1608.64
1608.46
1608.98
1607.82
1609.01
1609.62
1610.42
1611.02
1611.47
1611.7
1611.5
1610.81
1609.8
1608.81
1608.1
1607.6
1608.67
1608.49
1609
1607.86
1609.04
1609.66
1610.46
1611.05
1611.51
1611.74
1611.55
1610.86
1609.84
1608.86
1608.15
1607.66
1608.7
1608.51
1609
1607.9
1609.06
1609.7
1610.5
1611.09
1611.55
1611.79
1611.6
1610.9
1609.88
1608.91
1608.2
1607.73
1608.73
1608.54
1609.01
1607.94
1609.08
1609.75
1610.54
1611.13
1611.59
1611.84
1611.65
1610.95
1609.93
1608.96
1608.25
1607.81
1608.76
1608.57
1609.01
1607.99
1609.1
1609.8
1610.58
1611.17
1611.63
1611.89
1611.71
1611
1609.97
1609.01
1608.3
1607.88
1608.79
1608.61
1609.02
1608.05
1609.12
1609.85
1610.63
1611.21
1611.67
1611.94
1611.76
1611.04
1610.02
1609.07
1608.35
1607.96
1608.82
1608.64
1609.02
1608.1
1609.14
1609.9
1610.67
1611.25
1611.72
1612
1611.82
1611.09
1610.07
1609.12
1608.4
1608.05
1608.84
1608.68
1609.02
1608.16
1609.17
1609.95
1610.72
1611.3
1611.76
1612.05
1611.87
1611.14
1610.12
1609.18
1608.46
1608.14
1608.87
1608.72
1609.02
1608.23
1609.2
1610
1610.77
1611.34
1611.81
1612.11
1611.93
1611.19
1610.17
1609.24
1608.52
1608.22
1608.9
1608.77
1609.02
1608.29
1609.22
1610.06
1610.82
1611.39
1611.86
1612.17
1611.99
1611.25
1610.22
1609.3
1608.59
1608.32
1608.93
1608.81
1609.02
1608.36
1609.25
1610.12
1610.87
1611.43
1611.91
1612.23
1612.06
1611.3
1610.28
1609.36
1608.65
1608.41
1608.96
1608.85
1609.03
1608.42
1609.29
1610.18
1610.93
1611.48
1611.96
1612.3
1612.12
1611.36
1610.34
1609.42
1608.72
1608.5
1608.99
1608.9
1609.03
1608.49
1609.32
1610.24
1610.98
1611.53
1612.02
1612.37
1612.19
1611.42
1610.39
1609.49
1608.79
1608.6
1609.02
1608.95
1609.04
1608.56
1609.36
1610.31
1611.04
1611.58
1612.07
1612.44
1612.26
1611.48
1610.46
1609.56
1608.87
1608.7
1609.06
1608.99
1609.04
1608.63
1609.4
1610.37
1611.11
1611.64
1612.13
1612.51
1612.34
1611.54
1610.52
1609.63
1608.94
1608.8
1609.1
1609.04
1609.06
1608.7
1609.45
1610.44
1611.18
1611.7
1612.19
1612.59
1612.42
1611.61
1610.59
1609.7
1609.03
1608.9
1609.14
1609.09
1609.07
1608.77
1609.49
1610.52
1611.25
1611.76
1612.26
1612.67
1612.5
1611.68
1610.65
1609.78
1609.11
1609
1609.19
1609.14
1609.09
1608.85
1609.54
1610.59
1611.32
1611.82
1612.32
1612.75
1612.59
1611.75
1610.73
1609.86
1609.2
1609.1
1609.24
1609.19
1609.11
1608.92
1609.6
1610.67
1611.4
1611.89
1612.39
1612.84
1612.68
1611.83
1610.8
1609.94
1609.3
1609.21
1609.29
1609.25
1609.14
1608.99
1609.66
1610.76
1611.49
1611.96
1612.47
1612.94
1612.78
1611.91
1610.88
1610.03
1609.4
1609.32
1609.35
1609.3
1609.16
1609.06
1609.72
1610.84
1611.58
1612.03
1612.55
1613.04
1612.88
1611.99
1610.97
1610.12
1609.5
1609.43
1609.42
1609.35
1609.2
1609.13
1609.79
1610.94
1611.68
1612.11
1612.63
1613.15
1612.99
1612.08
1611.05
1610.22
1609.61
1609.54
1609.49
1609.41
1609.24
1609.21
1609.86
1611.03
1611.78
1612.19
1612.72
1613.27
1613.11
1612.18
1611.14
1610.32
1609.72
1609.65
1609.56
1609.47
1609.28
1609.28
1609.93
1611.14
1611.89
1612.28
1612.81
1613.4
1613.23
1612.27
1611.24
1610.43
1609.83
1609.77
1609.64
1609.54
1609.33
1609.35
1610
1611.25
1612
1612.37
1612.91
1613.53
1613.37
1612.38
1611.34
1610.54
1609.95
1609.89
1609.73
1609.6
1609.38
1609.43
1610.08
1611.36
1612.12
1612.46
1613
1613.67
1613.5
1612.48
1611.44
1610.65
1610.08
1610.01
1609.83
1609.66
1609.42
1609.49
1610.15
1611.45
1612.22
1612.55
1613.09
1613.79
1613.63
1612.58
1611.53
1610.75
1610.18
1610.12
1609.91
1609.7
1609.45
1609.53
1610.2
1611.53
1612.3
1612.61
1613.16
1613.88
1613.72
1612.65
1611.6
1610.83
1610.27
1610.2
1609.97
1609.71
1609.46
1609.55
1610.22
1611.56
1612.34
1612.63
1613.19
1613.92
1613.76
1612.68
1611.63
1610.86
1610.31
1610.23
1609.99
1562.49
1563.92
1566.05
1565.25
1565.34
1565.23
1565.16
1565.18
1565.31
1565.44
1565.51
1565.57
1565.61
1565.77
1566.03
1564.58
1562.49
1563.92
1566.05
1565.25
1565.34
1565.23
1565.16
1565.18
1565.31
1565.44
1565.51
1565.57
1565.61
1565.77
1566.03
1564.58
1562.49
1563.92
1566.05
1565.25
1565.34
1565.23
1565.16
1565.18
1565.31
1565.44
1565.51
1565.57
1565.61
1565.77
1566.03
1564.58
1562.49
1563.92
1566.05
1565.25
1565.34
1565.23
1565.16
1565.18
1565.31
1565.44
1565.51
1565.57
1565.61
1565.77
1566.03
1564.58
1562.49
1563.92
1566.05
1565.25
1565.34
1565.23
1565.16
1565.18
1565.31
1565.44
1565.51
1565.57
1565.61
1565.77
1566.03
1564.58
1562.49
1563.93
1566.05
1565.25
1565.34
1565.23
1565.16
1565.18
1565.31
1565.44
1565.51
1565.57
1565.61
1565.77
1566.03
1564.58
1562.49
1563.93
1566.05
1565.25
1565.34
1565.23
1565.16
1565.19
1565.32
1565.44
1565.51
1565.57
1565.61
1565.77
1566.03
1564.58
1562.5
1563.94
1566.06
1565.26
1565.35
1565.23
1565.16
1565.19
1565.32
1565.44
1565.51
1565.57
1565.61
1565.77
1566.04
1564.59
1562.5
1563.94
1566.06
1565.26
1565.35
1565.23
1565.16
1565.19
1565.32
1565.45
1565.51
1565.57
1565.62
1565.78
1566.04
1564.59
1562.5
1563.95
1566.06
1565.27
1565.35
1565.24
1565.17
1565.19
1565.32
1565.45
1565.52
1565.58
1565.62
1565.78
1566.04
1564.6
1562.5
1563.95
1566.06
1565.27
1565.35
1565.24
1565.17
1565.19
1565.32
1565.45
1565.52
1565.58
1565.62
1565.78
1566.05
1564.6
1562.5
1563.96
1566.07
1565.28
1565.36
1565.24
1565.17
1565.2
1565.33
1565.45
1565.52
1565.58
1565.63
1565.78
1566.05
1564.61
1562.51
1563.97
1566.07
1565.28
1565.36
1565.25
1565.17
1565.2
1565.33
1565.46
1565.53
1565.59
1565.63
1565.79
1566.05
1564.61
1562.51
1563.98
1566.08
1565.29
1565.37
1565.25
1565.18
1565.2
1565.34
1565.46
1565.53
1565.59
1565.64
1565.79
1566.06
1564.62
1562.51
1564
1566.08
1565.3
1565.37
1565.26
1565.18
1565.21
1565.34
1565.47
1565.54
1565.59
1565.64
1565.8
1566.07
1564.63
1562.52
1564.01
1566.08
1565.32
1565.38
1565.26
1565.19
1565.21
1565.35
1565.47
1565.54
1565.6
1565.65
1565.8
1566.07
1564.64
1562.53
1564.03
1566.09
1565.33
1565.39
1565.27
1565.19
1565.22
1565.35
1565.48
1565.55
1565.61
1565.65
1565.81
1566.08
1564.65
1562.53
1564.05
1566.09
1565.35
1565.39
1565.28
1565.2
1565.23
1565.36
1565.49
1565.56
1565.61
1565.66
1565.82
1566.09
1564.66
1562.54
1564.07
1566.1
1565.36
1565.4
1565.28
1565.21
1565.24
1565.37
1565.5
1565.57
1565.62
1565.67
1565.83
1566.1
1564.68
1562.56
1564.09
1566.1
1565.38
1565.41
1565.29
1565.22
1565.25
1565.38
1565.51
1565.58
1565.63
1565.68
1565.84
1566.11
1564.69
1562.57
1564.12
1566.11
1565.41
1565.42
1565.3
1565.23
1565.26
1565.39
1565.52
1565.59
1565.64
1565.69
1565.85
1566.12
1564.71
1562.59
1564.15
1566.11
1565.43
1565.44
1565.32
1565.24
1565.27
1565.4
1565.53
1565.6
1565.65
1565.71
1565.86
1566.14
1564.72
1562.6
1564.18
1566.12
1565.46
1565.45
1565.33
1565.25
1565.28
1565.42
1565.55
1565.62
1565.66
1565.72
1565.88
1566.15
1564.74
1562.63
1564.22
1566.12
1565.49
1565.46
1565.34
1565.26
1565.29
1565.43
1565.56
1565.63
1565.68
1565.73
1565.89
1566.16
1564.77
1562.65
1564.26
1566.13
1565.53
1565.48
1565.36
1565.28
1565.31
1565.45
1565.58
1565.65
1565.69
1565.75
1565.91
1566.18
1564.79
1562.68
1564.3
1566.13
1565.56
1565.5
1565.38
1565.3
1565.33
1565.47
1565.6
1565.67
1565.71
1565.77
1565.93
1566.2
1564.81
1562.72
1564.35
1566.14
1565.6
1565.51
1565.4
1565.31
1565.35
1565.49
1565.62
1565.69
1565.73
1565.79
1565.95
1566.21
1564.84
1562.76
1564.4
1566.14
1565.65
1565.54
1565.42
1565.33
1565.37
1565.51
1565.64
1565.71
1565.75
1565.81
1565.97
1566.23
1564.87
1562.81
1564.45
1566.15
1565.69
1565.56
1565.44
1565.35
1565.39
1565.53
1565.67
1565.74
1565.77
1565.83
1565.99
1566.25
1564.9
1562.86
1564.51
1566.16
1565.74
1565.58
1565.46
1565.38
1565.41
1565.56
1565.69
1565.76
1565.79
1565.86
1566.02
1566.27
1564.93
1562.92
1564.57
1566.17
1565.8
1565.61
1565.49
1565.4
1565.44
1565.59
1565.72
1565.79
1565.82
1565.88
1566.05
1566.29
1564.97
1562.99
1564.64
1566.17
1565.85
1565.64
1565.52
1565.43
1565.47
1565.62
1565.75
1565.82
1565.85
1565.91
1566.08
1566.32
1565.01
1563.07
1564.71
1566.19
1565.91
1565.67
1565.55
1565.46
1565.5
1565.65
1565.79
1565.86
1565.88
1565.94
1566.11
1566.34
1565.05
1563.15
1564.78
1566.2
1565.97
1565.7
1565.58
1565.49
1565.53
1565.69
1565.82
1565.89
1565.91
1565.97
1566.14
1566.37
1565.09
1563.25
1564.86
1566.21
1566.04
1565.73
1565.62
1565.53
1565.57
1565.72
1565.86
1565.93
1565.94
1566.01
1566.18
1566.39
1565.13
1563.35
1564.94
1566.23
1566.11
1565.77
1565.65
1565.56
1565.61
1565.76
1565.9
1565.97
1565.98
1566.04
1566.22
1566.42
1565.18
1563.46
1565.02
1566.25
1566.18
1565.81
1565.69
1565.6
1565.65
1565.81
1565.95
1566.02
1566.02
1566.08
1566.26
1566.45
1565.23
1563.58
1565.11
1566.27
1566.25
1565.85
1565.73
1565.64
1565.69
1565.85
1565.99
1566.06
1566.06
1566.12
1566.3
1566.48
1565.28
1563.71
1565.2
1566.29
1566.33
1565.9
1565.77
1565.68
1565.73
1565.9
1566.04
1566.11
1566.1
1566.16
1566.34
1566.51
1565.34
1563.85
1565.3
1566.32
1566.41
1565.94
1565.82
1565.73
1565.78
1565.95
1566.09
1566.16
1566.14
1566.21
1566.39
1566.54
1565.39
1564
1565.4
1566.34
1566.49
1565.99
1565.86
1565.77
1565.83
1566
1566.14
1566.21
1566.19
1566.25
1566.44
1566.58
1565.45
1564.16
1565.5
1566.38
1566.56
1566.04
1565.91
1565.82
1565.88
1566.05
1566.2
1566.27
1566.24
1566.3
1566.48
1566.61
1565.52
1564.32
1565.6
1566.41
1566.64
1566.1
1565.96
1565.87
1565.93
1566.11
1566.26
1566.32
1566.29
1566.35
1566.53
1566.65
1565.58
1564.49
1565.71
1566.45
1566.72
1566.15
1566.01
1565.92
1565.99
1566.17
1566.32
1566.38
1566.34
1566.4
1566.59
1566.68
1565.65
1564.67
1565.81
1566.5
1566.8
1566.21
1566.06
1565.97
1566.05
1566.23
1566.38
1566.44
1566.4
1566.45
1566.64
1566.72
1565.72
1564.85
1565.92
1566.54
1566.88
1566.27
1566.11
1566.03
1566.11
1566.29
1566.44
1566.51
1566.45
1566.5
1566.69
1566.75
1565.79
1565.03
1566.03
1566.59
1566.96
1566.34
1566.16
1566.09
1566.17
1566.35
1566.51
1566.57
1566.51
1566.56
1566.74
1566.79
1565.87
1565.21
1566.15
1566.65
1567.03
1566.4
1566.22
1566.14
1566.23
1566.42
1566.58
1566.63
1566.57
1566.61
1566.8
1566.83
1565.94
1565.39
1566.26
1566.7
1567.11
1566.47
1566.27
1566.2
1566.29
1566.49
1566.65
1566.7
1566.63
1566.67
1566.85
1566.87
1566.03
1565.56
1566.38
1566.77
1567.18
1566.54
1566.33
1566.26
1566.36
1566.55
1566.72
1566.77
1566.69
1566.72
1566.91
1566.91
1566.11
1565.73
1566.49
1566.83
1567.26
1566.61
1566.39
1566.33
1566.43
1566.62
1566.79
1566.84
1566.75
1566.78
1566.96
1566.95
1566.2
1565.9
1566.61
1566.9
1567.33
1566.68
1566.45
1566.39
1566.49
1566.69
1566.86
1566.91
1566.82
1566.84
1567.02
1566.99
1566.29
1566.06
1566.73
1566.97
1567.4
1566.75
1566.51
1566.45
1566.56
1566.77
1566.94
1566.98
1566.88
1566.9
1567.07
1567.03
1566.38
1566.22
1566.86
1567.05
1567.47
1566.82
1566.57
1566.51
1566.63
1566.84
1567.01
1567.05
1566.95
1566.96
1567.13
1567.07
1566.48
1566.38
1566.98
1567.13
1567.53
1566.9
1566.63
1566.58
1566.7
1566.92
1567.09
1567.13
1567.02
1567.02
1567.18
1567.11
1566.58
1566.53
1567.1
1567.21
1567.6
1566.97
1566.69
1566.64
1566.77
1566.99
1567.16
1567.2
1567.09
1567.08
1567.23
1567.15
1566.68
1566.69
1567.23
1567.29
1567.66
1567.05
1566.75
1566.71
1566.85
1567.07
1567.24
1567.28
1567.15
1567.15
1567.29
1567.2
1566.78
1566.84
1567.35
1567.38
1567.73
1567.12
1566.81
1566.78
1566.92
1567.14
1567.32
1567.35
1567.22
1567.21
1567.34
1567.24
1566.88
1566.98
1567.48
1567.47
1567.79
1567.2
1566.87
1566.84
1566.99
1567.22
1567.4
1567.43
1567.29
1567.27
1567.39
1567.29
1566.98
1567.13
1567.61
1567.56
1567.85
1567.27
1566.93
1566.91
1567.06
1567.3
1567.48
1567.5
1567.36
1567.33
1567.44
1567.33
1567.09
1567.28
1567.73
1567.66
1567.91
1567.35
1567
1566.97
1567.14
1567.38
1567.56
1567.58
1567.43
1567.39
1567.49
1567.38
1567.19
1567.43
1567.86
1567.76
1567.97
1567.42
1567.06
1567.04
1567.21
1567.45
1567.64
1567.66
1567.5
1567.45
1567.54
1567.43
1567.3
1567.59
1567.99
1567.86
1568.03
1567.49
1567.12
1567.1
1567.28
1567.53
1567.72
1567.73
1567.57
1567.51
1567.59
1567.47
1567.4
1567.75
1568.12
1567.96
1568.1
1567.56
1567.18
1567.17
1567.35
1567.61
1567.79
1567.81
1567.65
1567.57
1567.63
1567.52
1567.5
1567.91
1568.25
1568.06
1568.16
1567.63
1567.24
1567.23
1567.42
1567.69
1567.87
1567.88
1567.72
1567.63
1567.68
1567.57
1567.61
1568.07
1568.38
1568.16
1568.22
1567.69
1567.3
1567.3
1567.5
1567.76
1567.95
1567.96
1567.79
1567.68
1567.72
1567.62
1567.71
1568.23
1568.5
1568.27
1568.29
1567.76
1567.36
1567.36
1567.57
1567.84
1568.03
1568.03
1567.86
1567.74
1567.77
1567.68
1567.81
1568.38
1568.63
1568.38
1568.35
1567.83
1567.42
1567.43
1567.64
1567.92
1568.11
1568.11
1567.93
1567.8
1567.81
1567.73
1567.9
1568.53
1568.76
1568.49
1568.42
1567.89
1567.48
1567.49
1567.71
1568
1568.19
1568.19
1568
1567.85
1567.85
1567.78
1568
1568.68
1568.89
1568.6
1568.49
1567.96
1567.54
1567.55
1567.78
1568.07
1568.27
1568.26
1568.08
1567.91
1567.9
1567.84
1568.1
1568.82
1569.02
1568.71
1568.57
1568.02
1567.6
1567.62
1567.85
1568.15
1568.35
1568.34
1568.15
1567.96
1567.94
1567.89
1568.19
1568.97
1569.15
1568.83
1568.64
1568.08
1567.65
1567.69
1567.93
1568.23
1568.43
1568.42
1568.23
1568.02
1567.98
1567.95
1568.28
1569.11
1569.28
1568.94
1568.72
1568.14
1567.71
1567.75
1568
1568.32
1568.51
1568.5
1568.31
1568.07
1568.03
1568.01
1568.37