-0.0075 	0 	0 	0
-0.0075 	8.97495e-34 	5.13421e-36 	-8.12822e-33
-0.00745622 	0.00117958 	6.74789e-06 	-0.0106829
-0.00745622 	0.00117958 	6.74789e-06 	-0.0106829
-0.00741165 	0.00151829 	1.5819e-05 	-0.0205894
-0.00741165 	0.00151829 	1.5819e-05 	-0.0205894
-0.00736628 	0.00138485 	2.73939e-05 	-0.0303957
-0.00736628 	0.00138485 	2.73939e-05 	-0.0303957
-0.0073201 	0.00124564 	3.79749e-05 	-0.040406
-0.0073201 	0.00124564 	3.79749e-05 	-0.040406
-0.00727309 	0.00117969 	5.12141e-05 	-0.0504913
-0.00727309 	0.00117969 	5.12141e-05 	-0.0504913
-0.00722524 	0.00112811 	6.57038e-05 	-0.0604742
-0.00722524 	0.00112811 	6.57038e-05 	-0.0604742
-0.00717653 	0.00107702 	8.18003e-05 	-0.0702487
-0.00717653 	0.00107702 	8.18003e-05 	-0.0702487
-0.00712695 	0.00102933 	9.94836e-05 	-0.0797365
-0.00712695 	0.00102933 	9.94836e-05 	-0.0797365
-0.00707647 	0.000994457 	0.000118747 	-0.0888756
-0.00707647 	0.000994457 	0.000118747 	-0.0888756
-0.0070251 	0.000983739 	0.000139226 	-0.0976236
-0.0070251 	0.000983739 	0.000139226 	-0.0976236
-0.0069728 	0.00100553 	0.000160439 	-0.105965
-0.0069728 	0.00100553 	0.000160439 	-0.105965
-0.00691956 	0.00106275 	0.000182628 	-0.113905
-0.00691956 	0.00106275 	0.000182628 	-0.113905
-0.00686537 	0.00115234 	0.000206005 	-0.121455
-0.00686537 	0.00115234 	0.000206005 	-0.121455
-0.00681021 	0.00126656 	0.000230411 	-0.128624
-0.00681021 	0.00126656 	0.000230411 	-0.128624
-0.00675406 	0.00139701 	0.000255502 	-0.13542
-0.00675406 	0.00139701 	0.000255502 	-0.13542
-0.0066969 	0.00153698 	0.000281066 	-0.141851
-0.0066969 	0.00153698 	0.000281066 	-0.141851
-0.00663871 	0.00168224 	0.000307198 	-0.14793
-0.00663871 	0.00168224 	0.000307198 	-0.14793
-0.00657949 	0.0018321 	0.00033402 	-0.15368
-0.00657949 	0.0018321 	0.00033402 	-0.15368
-0.0065192 	0.00198925 	0.000361468 	-0.159137
-0.0065192 	0.00198925 	0.000361468 	-0.159137
-0.00645783 	0.00215618 	0.000388583 	-0.164339
-0.00645783 	0.00215618 	0.000388583 	-0.164339
-0.00639535 	0.00232981 	0.000414402 	-0.169318
-0.00639535 	0.00232981 	0.000414402 	-0.169318
-0.00633176 	0.00249884 	0.00043935 	-0.174073
-0.00633176 	0.00249884 	0.00043935 	-0.174073
-0.00626703 	0.00264856 	0.000468759 	-0.178574
-0.00626703 	0.00264856 	0.000468759 	-0.178574
-0.00620114 	0.00277347 	0.00049959 	-0.182803
-0.00620114 	0.00277347 	0.00049959 	-0.182803
-0.00613406 	0.0028983 	0.000519688 	-0.186827
-0.00613406 	0.0028983 	0.000519688 	-0.186827
-0.00606579 	0.00306914 	0.000541639 	-0.190834
-0.00606579 	0.00306914 	0.000541639 	-0.190834
-0.00599629 	0.00332111 	0.000585056 	-0.19506
-0.00599629 	0.00332111 	0.000585056 	-0.19506
-0.00592554 	0.00365904 	0.000632859 	-0.199536
-0.00592554 	0.00365904 	0.000632859 	-0.199536
-0.00585352 	0.00401626 	0.000646422 	-0.20389
-0.00585352 	0.00401626 	0.000646422 	-0.20389
-0.00578022 	0.00429854 	0.000635929 	-0.207741
-0.00578022 	0.00429854 	0.000635929 	-0.207741
-0.00570559 	0.0044813 	0.000652051 	-0.211081
-0.00570559 	0.0044813 	0.000652051 	-0.211081
-0.00562963 	0.00461092 	0.000701608 	-0.214108
-0.00562963 	0.00461092 	0.000701608 	-0.214108
-0.00555231 	0.00473904 	0.000741057 	-0.216997
-0.00555231 	0.00473904 	0.000741057 	-0.216997
-0.0054736 	0.00487193 	0.000760408 	-0.219797
-0.0054736 	0.00487193 	0.000760408 	-0.219797
-0.00539348 	0.00502108 	0.00079359 	-0.222551
-0.00539348 	0.00502108 	0.00079359 	-0.222551
-0.00531193 	0.00525659 	0.000828825 	-0.225449
-0.00531193 	0.00525659 	0.000828825 	-0.225449
-0.00522891 	0.00565081 	0.000829959 	-0.228801
-0.00522891 	0.00565081 	0.000829959 	-0.228801
-0.0051444 	0.00618037 	0.000807037 	-0.232588
-0.0051444 	0.00618037 	0.000807037 	-0.232588
-0.00505838 	0.00665054 	0.000831303 	-0.236014
-0.00505838 	0.00665054 	0.000831303 	-0.236014
-0.00497081 	0.00690569 	0.000907931 	-0.238517
-0.00497081 	0.00690569 	0.000907931 	-0.238517
-0.00488168 	0.00701307 	0.000960929 	-0.240484
-0.00488168 	0.00701307 	0.000960929 	-0.240484
-0.00479094 	0.00709275 	0.000970547 	-0.242355
-0.00479094 	0.00709275 	0.000970547 	-0.242355
-0.00469858 	0.0071775 	0.000969894 	-0.24419
-0.00469858 	0.0071775 	0.000969894 	-0.24419
-0.00460456 	0.00723025 	0.000983912 	-0.245892
-0.00460456 	0.00723025 	0.000983912 	-0.245892
-0.00450886 	0.00722509 	0.00100636 	-0.247437
-0.00450886 	0.00722509 	0.00100636 	-0.247437
-0.00441144 	0.00718721 	0.00103656 	-0.248965
-0.00441144 	0.00718721 	0.00103656 	-0.248965
-0.00431227 	0.00720455 	0.00106306 	-0.250738
-0.00431227 	0.00720455 	0.00106306 	-0.250738
-0.00421133 	0.00734816 	0.00104832 	-0.252843
-0.00421133 	0.00734816 	0.00104832 	-0.252843
-0.00410857 	0.00755945 	0.0010223 	-0.255124
-0.00410857 	0.00755945 	0.0010223 	-0.255124
-0.00400397 	0.00771535 	0.00108361 	-0.257757
-0.00400397 	0.00771535 	0.00108361 	-0.257757
-0.0038975 	0.00774544 	0.00118772 	-0.260917
-0.0038975 	0.00774544 	0.00118772 	-0.260917
-0.00378912 	0.00763652 	0.00116987 	-0.263687
-0.00378912 	0.00763652 	0.00116987 	-0.263687
-0.00367879 	0.00741396 	0.00109767 	-0.265362
-0.00367879 	0.00741396 	0.00109767 	-0.265362
-0.00356649 	0.00714188 	0.00110117 	-0.266416
-0.00356649 	0.00714188 	0.00110117 	-0.266416
-0.00345217 	0.00686803 	0.00113202 	-0.267315
-0.00345217 	0.00686803 	0.00113202 	-0.267315
-0.0033358 	0.00663409 	0.00115296 	-0.268372
-0.0033358 	0.00663409 	0.00115296 	-0.268372
-0.00321735 	0.0065756 	0.00116052 	-0.270057
-0.00321735 	0.0065756 	0.00116052 	-0.270057
-0.00309677 	0.00662469 	0.00115017 	-0.272
-0.00309677 	0.00662469 	0.00115017 	-0.272
-0.00297403 	0.00657549 	0.00115462 	-0.273454
-0.00297403 	0.00657549 	0.00115462 	-0.273454
-0.00284909 	0.00639409 	0.00116104 	-0.274376
-0.00284909 	0.00639409 	0.00116104 	-0.274376
-0.0027219 	0.00614258 	0.00115217 	-0.275124
-0.0027219 	0.00614258 	0.00115217 	-0.275124
-0.00259244 	0.00590766 	0.00120131 	-0.276282
-0.00259244 	0.00590766 	0.00120131 	-0.276282
-0.00246065 	0.00570364 	0.00119333 	-0.277687
-0.00246065 	0.00570364 	0.00119333 	-0.277687
-0.00232651 	0.00543548 	0.00104666 	-0.278429
-0.00232651 	0.00543548 	0.00104666 	-0.278429
-0.00218995 	0.00493818 	0.00101301 	-0.277939
-0.00218995 	0.00493818 	0.00101301 	-0.277939
-0.00205095 	0.00430386 	0.00116064 	-0.277685
-0.00205095 	0.00430386 	0.00116064 	-0.277685
-0.00190946 	0.00360984 	0.0012723 	-0.279962
-0.00190946 	0.00360984 	0.0012723 	-0.279962
-0.00176543 	0.00287851 	0.0012654 	-0.284188
-0.00176543 	0.00287851 	0.0012654 	-0.284188
-0.00161881 	0.00237619 	0.0011781 	-0.288079
-0.00161881 	0.00237619 	0.0011781 	-0.288079
-0.00146957 	0.00227545 	0.00112532 	-0.290674
-0.00146957 	0.00227545 	0.00112532 	-0.290674
-0.00131765 	0.00242129 	0.00118912 	-0.292303
-0.00131765 	0.00242129 	0.00118912 	-0.292303
-0.001163 	0.00249105 	0.00128524 	-0.293297
-0.001163 	0.00249105 	0.00128524 	-0.293297
-0.00100559 	0.00236566 	0.00129971 	-0.293651
-0.00100559 	0.00236566 	0.00129971 	-0.293651
-0.000845345 	0.0021075 	0.00123616 	-0.293453
-0.000845345 	0.0021075 	0.00123616 	-0.293453
-0.000682232 	0.00177373 	0.0012109 	-0.292995
-0.000682232 	0.00177373 	0.0012109 	-0.292995
-0.000516194 	0.00138829 	0.00124991 	-0.292535
-0.000516194 	0.00138829 	0.00124991 	-0.292535
-0.000347178 	0.000983069 	0.00126388 	-0.292147
-0.000347178 	0.000983069 	0.00126388 	-0.292147
-0.000175132 	0.000577572 	0.00124612 	-0.291764
-0.000175132 	0.000577572 	0.00124612 	-0.291764
0 	0.000183252 	0.00124337 	-0.2913
0 	0.000183252 	0.00124337 	-0.2913
0 	0.000183252 	0.00124337 	-0.2913
0 	0.000183252 	0.00124337 	-0.2913
0.000175132 	-0.0001256 	0.00122887 	-0.290656
0.000175132 	-0.00681224 	0.00923684 	-0.299855
0.000347178 	-0.000290262 	0.00130395 	-0.289521
0.000347178 	-0.00792946 	0.00929122 	-0.2974
0.000516194 	-0.000436215 	0.0013297 	-0.287584
0.000516194 	-0.00896161 	0.00914014 	-0.295135
0.000682232 	-0.000706279 	0.00118654 	-0.285634
0.000682232 	-0.0100748 	0.00885683 	-0.291721
0.000845345 	-0.0010575 	0.001242 	-0.284413
0.000845345 	-0.0113714 	0.00897782 	-0.286289
0.00100559 	-0.0014369 	0.00140343 	-0.283897
0.00100559 	-0.0125654 	0.00919992 	-0.281246
0.001163 	-0.00180043 	0.00133571 	-0.283644
0.001163 	-0.0134563 	0.00886953 	-0.278908
0.00131765 	-0.00211138 	0.00121434 	-0.283049
0.00131765 	-0.014265 	0.00847302 	-0.277755
0.00146957 	-0.00241283 	0.00122933 	-0.282227
0.00146957 	-0.0151719 	0.00856594 	-0.275358
0.00161881 	-0.00271716 	0.00128387 	-0.281516
0.00161881 	-0.016069 	0.0087486 	-0.272343
0.00176543 	-0.00300862 	0.00127246 	-0.281049
0.00176543 	-0.0168898 	0.00859286 	-0.270494
0.00190946 	-0.00329008 	0.00122891 	-0.280698
0.00190946 	-0.0177026 	0.008333 	-0.269843
0.00205095 	-0.00355997 	0.00120779 	-0.280285
0.00205095 	-0.0185308 	0.00820441 	-0.269581
0.00218995 	-0.0038116 	0.00119005 	-0.279685
0.00218995 	-0.0193755 	0.00812628 	-0.269228
0.00232651 	-0.0040536 	0.00112905 	-0.278927
0.00232651 	-0.0202381 	0.00804104 	-0.268742
0.00246065 	-0.0043099 	0.00108331 	-0.278214
0.00246065 	-0.0211166 	0.0079561 	-0.268092
0.00259244 	-0.00456288 	0.00116827 	-0.277503
0.00259244 	-0.0219924 	0.00774729 	-0.267398
0.0027219 	-0.00474603 	0.00122103 	-0.276166
0.0027219 	-0.0228146 	0.0075457 	-0.267141
0.00284909 	-0.00481408 	0.00108993 	-0.273826
0.00284909 	-0.0235655 	0.00775905 	-0.267993
0.00297403 	-0.00483477 	0.000965079 	-0.271039
0.00297403 	-0.0243291 	0.00803025 	-0.270047
0.00309677 	-0.00502716 	0.000949746 	-0.26887
0.00309677 	-0.0251692 	0.00744244 	-0.272438
0.00321735 	-0.00542166 	0.000899103 	-0.266991
0.00321735 	-0.0261779 	0.00623001 	-0.27107
0.0033358 	-0.00580648 	0.000899439 	-0.264165
0.0033358 	-0.0274193 	0.00623813 	-0.260806
0.00345217 	-0.0060536 	0.000984266 	-0.261124
0.00345217 	-0.0285197 	0.00719986 	-0.24773
0.00356649 	-0.0061844 	0.000973995 	-0.25888
0.00356649 	-0.0292272 	0.00747877 	-0.23984
0.00367879 	-0.00628639 	0.000892584 	-0.257183
0.00367879 	-0.0297839 	0.00709136 	-0.236341
0.00378912 	-0.0303314 	0.00664082 	-0.234793
0.00378912 	-0.00639277 	0.000823248 	-0.255671
0.0038975 	-0.00648996 	0.000796159 	-0.254128
0.0038975 	-0.030831 	0.00654474 	-0.233501
0.00400397 	-0.00656942 	0.000771888 	-0.252516
0.00400397 	-0.0312706 	0.00655899 	-0.232074
0.00410857 	-0.0066319 	0.000735439 	-0.250849
0.00410857 	-0.0316717 	0.00646781 	-0.23048
0.00421133 	-0.00667828 	0.000701856 	-0.24913
0.00421133 	-0.032018 	0.0062739 	-0.228747
0.00431227 	-0.00671004 	0.000671008 	-0.247355
0.00431227 	-0.0322383 	0.006007 	-0.227357
0.00441144 	-0.00673 	0.00064156 	-0.245516
0.00441144 	-0.0322818 	0.00586357 	-0.226877
0.00450886 	-0.00674062 	0.00061193 	-0.243607
0.00450886 	-0.0322439 	0.00585298 	-0.226676
0.00460456 	-0.00674176 	0.000590682 	-0.241619
0.00460456 	-0.032245 	0.00579093 	-0.22579
0.00469858 	-0.00673017 	0.000555551 	-0.239543
0.00469858 	-0.0323072 	0.00562313 	-0.224213
0.00479094 	-0.00671356 	0.000482578 	-0.237389
0.00479094 	-0.0323956 	0.00542421 	-0.222273
0.00488168 	-0.00671286 	0.000429171 	-0.235224
0.00488168 	-0.0324617 	0.00527749 	-0.220218
0.00497081 	-0.00671745 	0.00045371 	-0.233039
0.00497081 	-0.0325009 	0.00514472 	-0.218106
0.00505838 	-0.00665498 	0.000520391 	-0.230508
0.00505838 	-0.0325211 	0.00499505 	-0.215925
0.0051444 	-0.00645607 	0.000495873 	-0.227247
0.0051444 	-0.0325077 	0.0048426 	-0.213691
0.00522891 	-0.00618252 	0.00037945 	-0.223652
0.00522891 	-0.032435 	0.00468967 	-0.211436
0.00531193 	-0.032292 	0.00453581 	-0.209177
0.00531193 	-0.00595074 	0.000292737 	-0.220388
0.00539348 	-0.00580381 	0.000282859 	-0.217471
0.00539348 	-0.0320912 	0.00438068 	-0.206896
0.0054736 	-0.00572323 	0.000299151 	-0.214662
0.0054736 	-0.0318546 	0.00422644 	-0.204565
0.00555231 	-0.00566312 	0.000271235 	-0.211808
0.00555231 	-0.0315952 	0.00407441 	-0.202165
0.00562963 	-0.00560438 	0.000233646 	-0.208859
0.00562963 	-0.0313116 	0.00392377 	-0.19969
0.00570559 	-0.00554819 	0.000212244 	-0.205799
0.00570559 	-0.0309968 	0.00377311 	-0.197144
0.00578022 	-0.00549368 	0.000190566 	-0.202615
0.00578022 	-0.0306448 	0.00362265 	-0.194529
0.00585352 	-0.00543921 	0.000167119 	-0.199298
0.00585352 	-0.0302515 	0.00347277 	-0.191845
0.00592554 	-0.0053838 	0.000143499 	-0.195834
0.00592554 	-0.0298154 	0.0033242 	-0.189088
0.00599629 	-0.00532691 	0.000121502 	-0.192207
0.00599629 	-0.0293359 	0.00317868 	-0.186248
0.00606579 	-0.0288131 	0.00303557 	-0.18332
0.00606579 	-0.00526772 	0.000101124 	-0.188398
0.00613406 	-0.00520499 	8.1898e-05 	-0.184382
0.00613406 	-0.0282468 	0.00289363 	-0.180291
0.00620114 	-0.00513752 	6.39686e-05 	-0.180129
0.00620114 	-0.0276353 	0.00275193 	-0.177135
0.00626703 	-0.00506392 	4.79558e-05 	-0.175613
0.00626703 	-0.0269754 	0.00261033 	-0.1738
0.00633176 	-0.00498202 	3.42361e-05 	-0.170808
0.00633176 	-0.0262625 	0.00247073 	-0.170221
0.00639535 	-0.00488886 	2.2736e-05 	-0.165684
0.00639535 	-0.0254912 	0.00233317 	-0.166313
0.00645783 	-0.00478107 	1.312e-05 	-0.160203
0.00645783 	-0.0246562 	0.00219698 	-0.161982
0.0065192 	-0.00465555 	5.12401e-06 	-0.154328
0.0065192 	-0.0237528 	0.00206246 	-0.157131
0.00657949 	-0.00451025 	-1.41822e-06 	-0.148026
0.00657949 	-0.022777 	0.00192902 	-0.151675
0.00663871 	-0.00434436 	-6.31026e-06 	-0.141275
0.00663871 	-0.0217259 	0.00179812 	-0.145553
0.0066969 	-0.0041586 	-9.47234e-06 	-0.134062
0.0066969 	-0.0205989 	0.0016716 	-0.138753
0.00675406 	-0.00395581 	-1.14469e-05 	-0.126386
0.00675406 	-0.0193993 	0.00154641 	-0.131337
0.00681021 	-0.00373923 	-1.23322e-05 	-0.118251
0.00681021 	-0.0181282 	0.0014183 	-0.123383
0.00686537 	-0.00350938 	-1.20557e-05 	-0.109666
0.00686537 	-0.0167817 	0.00128591 	-0.114889
0.00691956 	-0.00326403 	-1.04803e-05 	-0.100656
0.00691956 	-0.0153591 	0.00115371 	-0.105809
0.0069728 	-0.00299957 	-7.80666e-06 	-0.0912883
0.0069728 	-0.0138681 	0.00102688 	-0.0961425
0.0070251 	-0.00271315 	-4.96973e-06 	-0.0816788
0.0070251 	-0.0123265 	0.000905086 	-0.0859748
0.00707647 	-0.00240566 	-2.34487e-06 	-0.0719851
0.00707647 	-0.010761 	0.000787802 	-0.0754753
0.00712695 	-0.00208252 	-2.37202e-07 	-0.0623788
0.00712695 	-0.00920315 	0.000675357 	-0.0648625
0.00717653 	-0.00175302 	8.8232e-07 	-0.053015
0.00717653 	-0.00768584 	0.000567166 	-0.0543665
0.00722524 	-0.00142966 	9.31153e-07 	-0.044012
0.00722524 	-0.00624187 	0.000460797 	-0.0442101
0.00727309 	-0.00112818 	9.80339e-08 	-0.0354509
0.00727309 	-0.00490781 	0.000359525 	-0.0346335
0.0073201 	-0.00086966 	-1.29414e-06 	-0.027396
0.0073201 	-0.00373394 	0.000276979 	-0.0259708
0.00736628 	-0.000685371 	-2.75387e-06 	-0.0199289
0.00736628 	-0.00280121 	0.000150395 	-0.0187749
0.00741165 	-0.000552663 	-2.80296e-06 	-0.0130535
0.00741165 	-0.00206054 	9.99702e-05 	-0.0130885
0.00745622 	-0.000351099 	-2.03089e-06 	-0.00652733
0.00745622 	-0.00120156 	4.77855e-05 	-0.00741836
0.0075 	0 	0 	0
0.0075 	0 	0 	0
