0 	0 	0 	0
5.01672e-05 	-2.27951e-05 	-4.57877e-06 	0.0203633
0.000100334 	-4.55902e-05 	-9.15755e-06 	0.0407265
0.000150502 	-6.83853e-05 	-1.37363e-05 	0.0610898
0.000200669 	-9.11804e-05 	-1.83151e-05 	0.0814531
0.000250836 	-0.000113976 	-2.28939e-05 	0.101816
0.000301003 	-0.000136771 	-2.74726e-05 	0.12218
0.000351171 	-0.000157442 	-3.27696e-05 	0.14043
0.000401338 	-0.000170081 	-4.07823e-05 	0.15069
0.000451505 	-0.000182721 	-4.87949e-05 	0.16095
0.000501672 	-0.00019536 	-5.68076e-05 	0.17121
0.000551839 	-0.000208 	-6.48203e-05 	0.18147
0.000602007 	-0.000220639 	-7.2833e-05 	0.19173
0.000652174 	-0.000233278 	-8.08456e-05 	0.20199
0.000702341 	-0.000245918 	-8.88583e-05 	0.21225
0.000752508 	-0.000255744 	-9.70926e-05 	0.221083
0.000802676 	-0.000258596 	-0.000105876 	0.226379
0.000852843 	-0.000261448 	-0.00011466 	0.231675
0.00090301 	-0.0002643 	-0.000123444 	0.236972
0.000953177 	-0.000267151 	-0.000132228 	0.242268
0.00100334 	-0.000270003 	-0.000141011 	0.247564
0.00105351 	-0.000272855 	-0.000149795 	0.25286
0.00110368 	-0.000275707 	-0.000158579 	0.258156
0.00115385 	-0.000278559 	-0.000167363 	0.263452
0.00120401 	-0.000281208 	-0.000176103 	0.268643
0.00125418 	-0.000279711 	-0.000183949 	0.271665
0.00130435 	-0.000278214 	-0.000191795 	0.274688
0.00135452 	-0.000276717 	-0.000199641 	0.27771
0.00140468 	-0.000275221 	-0.000207487 	0.280733
0.00145485 	-0.000273724 	-0.000215333 	0.283755
0.00150502 	-0.000272227 	-0.000223179 	0.286778
0.00155518 	-0.00027073 	-0.000231025 	0.2898
0.00160535 	-0.000269233 	-0.000238871 	0.292823
0.00165552 	-0.000267736 	-0.000246717 	0.295845
0.00170569 	-0.000266239 	-0.000254563 	0.298868
0.00175585 	-0.000264486 	-0.000261995 	0.301601
0.00180602 	-0.000262027 	-0.000268289 	0.303538
0.00185619 	-0.000259569 	-0.000274584 	0.305474
0.00190635 	-0.00025711 	-0.000280878 	0.307411
0.00195652 	-0.000254652 	-0.000287172 	0.309348
0.00200669 	-0.000252193 	-0.000293466 	0.311284
0.00205686 	-0.000249734 	-0.000299761 	0.313221
0.00210702 	-0.000247276 	-0.000306055 	0.315158
0.00215719 	-0.000244817 	-0.000312349 	0.317094
0.00220736 	-0.000242359 	-0.000318643 	0.319031
0.00225753 	-0.0002399 	-0.000324937 	0.320968
0.00230769 	-0.000237442 	-0.000331232 	0.322905
0.00235786 	-0.000234983 	-0.000337526 	0.324841
0.00240803 	-0.000232775 	-0.000342638 	0.326343
0.00245819 	-0.000230678 	-0.000347224 	0.327652
0.00250836 	-0.00022858 	-0.000351809 	0.32896
0.00255853 	-0.000226483 	-0.000356395 	0.330269
0.0026087 	-0.000224386 	-0.000360981 	0.331577
0.00265886 	-0.000222289 	-0.000365566 	0.332886
0.00270903 	-0.000220192 	-0.000370152 	0.334194
0.0027592 	-0.000218095 	-0.000374737 	0.335503
0.00280936 	-0.000215997 	-0.000379323 	0.336811
0.00285953 	-0.0002139 	-0.000383908 	0.338119
0.0029097 	-0.000211803 	-0.000388494 	0.339428
0.00295987 	-0.000209706 	-0.000393079 	0.340736
0.00301003 	-0.000207609 	-0.000397665 	0.342045
0.0030602 	-0.000205512 	-0.000402251 	0.343353
0.00311037 	-0.000203429 	-0.000406805 	0.344652
0.00316054 	-0.000201967 	-0.000410035 	0.34553
0.0032107 	-0.000200505 	-0.000413265 	0.346408
0.00326087 	-0.000199043 	-0.000416494 	0.347286
0.00331104 	-0.00019758 	-0.000419724 	0.348164
0.0033612 	-0.000196118 	-0.000422954 	0.349042
0.00341137 	-0.000194656 	-0.000426183 	0.34992
0.00346154 	-0.000193194 	-0.000429413 	0.350798
0.00351171 	-0.000191732 	-0.000432642 	0.351676
0.00356187 	-0.00019027 	-0.000435872 	0.352554
0.00361204 	-0.000188808 	-0.000439102 	0.353432
0.00366221 	-0.000187346 	-0.000442331 	0.35431
0.00371237 	-0.000185884 	-0.000445561 	0.355188
0.00376254 	-0.000184421 	-0.000448791 	0.356066
0.00381271 	-0.000182959 	-0.00045202 	0.356945
0.00386288 	-0.000181497 	-0.00045525 	0.357823
0.00391304 	-0.000180035 	-0.000458479 	0.358701
0.00396321 	-0.000178573 	-0.000461709 	0.359579
0.00401338 	-0.000177522 	-0.000464092 	0.360158
0.00406355 	-0.000176512 	-0.000466392 	0.360707
0.00411371 	-0.000175502 	-0.000468692 	0.361257
0.00416388 	-0.000174492 	-0.000470992 	0.361806
0.00421405 	-0.000173482 	-0.000473292 	0.362356
0.00426421 	-0.000172472 	-0.000475592 	0.362905
0.00431438 	-0.000171461 	-0.000477892 	0.363455
0.00436455 	-0.000170451 	-0.000480192 	0.364005
0.00441472 	-0.000169441 	-0.000482492 	0.364554
0.00446488 	-0.000168431 	-0.000484792 	0.365104
0.00451505 	-0.000167421 	-0.000487092 	0.365653
0.00456522 	-0.00016641 	-0.000489392 	0.366203
0.00461538 	-0.0001654 	-0.000491692 	0.366752
0.00466555 	-0.00016439 	-0.000493992 	0.367302
0.00471572 	-0.00016338 	-0.000496292 	0.367852
0.00476589 	-0.00016237 	-0.000498592 	0.368401
0.00481605 	-0.000161359 	-0.000500892 	0.368951
0.00486622 	-0.000160349 	-0.000503192 	0.3695
0.00491639 	-0.000159339 	-0.000505492 	0.37005
0.00496656 	-0.000158329 	-0.000507792 	0.370599
0.00501672 	-0.000157528 	-0.000509368 	0.370899
0.00506689 	-0.000156739 	-0.000510906 	0.371185
0.00511706 	-0.000155949 	-0.000512443 	0.371471
0.00516722 	-0.00015516 	-0.000513981 	0.371757
0.00521739 	-0.00015437 	-0.000515519 	0.372043
0.00526756 	-0.000153581 	-0.000517057 	0.372329
0.00531773 	-0.000152791 	-0.000518594 	0.372616
0.00536789 	-0.000152002 	-0.000520132 	0.372902
0.00541806 	-0.000151212 	-0.00052167 	0.373188
0.00546823 	-0.000150423 	-0.000523207 	0.373474
0.00551839 	-0.000149633 	-0.000524745 	0.37376
0.00556856 	-0.000148844 	-0.000526283 	0.374046
0.00561873 	-0.000148054 	-0.00052782 	0.374332
0.0056689 	-0.000147265 	-0.000529358 	0.374618
0.00571906 	-0.000146475 	-0.000530896 	0.374904
0.00576923 	-0.000145686 	-0.000532434 	0.375191
0.0058194 	-0.000144896 	-0.000533971 	0.375477
0.00586957 	-0.000144107 	-0.000535509 	0.375763
0.00591973 	-0.000143317 	-0.000537047 	0.376049
0.0059699 	-0.000142528 	-0.000538584 	0.376335
0.00602007 	-0.000141738 	-0.000540122 	0.376621
0.00607023 	-0.000140949 	-0.00054166 	0.376907
0.0061204 	-0.000140159 	-0.000543197 	0.377193
0.00617057 	-0.000139468 	-0.000544215 	0.377333
0.00622074 	-0.000138827 	-0.000544969 	0.377399
0.0062709 	-0.000138185 	-0.000545723 	0.377464
0.00632107 	-0.000137544 	-0.000546476 	0.37753
0.00637124 	-0.000136902 	-0.00054723 	0.377596
0.0064214 	-0.00013626 	-0.000547984 	0.377661
0.00647157 	-0.000135619 	-0.000548738 	0.377727
0.00652174 	-0.000134977 	-0.000549492 	0.377793
0.00657191 	-0.000134336 	-0.000550246 	0.377858
0.00662207 	-0.000133694 	-0.000550999 	0.377924
0.00667224 	-0.000133053 	-0.000551753 	0.377989
0.00672241 	-0.000132411 	-0.000552507 	0.378055
0.00677258 	-0.00013177 	-0.000553261 	0.378121
0.00682274 	-0.000131128 	-0.000554015 	0.378186
0.00687291 	-0.000130487 	-0.000554768 	0.378252
0.00692308 	-0.000129845 	-0.000555522 	0.378317
0.00697324 	-0.000129204 	-0.000556276 	0.378383
0.00702341 	-0.000128562 	-0.00055703 	0.378449
0.00707358 	-0.00012792 	-0.000557784 	0.378514
0.00712375 	-0.000127279 	-0.000558537 	0.37858
0.00717391 	-0.000126637 	-0.000559291 	0.378646
0.00722408 	-0.000125996 	-0.000560045 	0.378711
0.00727425 	-0.000125354 	-0.000560799 	0.378777
0.00732441 	-0.000124713 	-0.000561553 	0.378842
0.00737458 	-0.000124071 	-0.000562307 	0.378908
0.00742475 	-0.00012343 	-0.00056306 	0.378974
0.00747492 	-0.000122788 	-0.000563814 	0.379039
0.00752508 	-0.000122205 	-0.000564178 	0.379006
0.00757525 	-0.000121679 	-0.000564153 	0.378873
0.00762542 	-0.000121153 	-0.000564128 	0.37874
0.00767559 	-0.000120627 	-0.000564103 	0.378607
0.00772575 	-0.000120102 	-0.000564078 	0.378474
0.00777592 	-0.000119576 	-0.000564052 	0.378342
0.00782609 	-0.00011905 	-0.000564027 	0.378209
0.00787625 	-0.000118525 	-0.000564002 	0.378076
0.00792642 	-0.000117999 	-0.000563977 	0.377943
0.00797659 	-0.000117473 	-0.000563951 	0.37781
0.00802676 	-0.000116947 	-0.000563926 	0.377677
0.00807692 	-0.000116422 	-0.000563901 	0.377545
0.00812709 	-0.000115896 	-0.000563876 	0.377412
0.00817726 	-0.00011537 	-0.00056385 	0.377279
0.00822742 	-0.000114845 	-0.000563825 	0.377146
0.00827759 	-0.000114319 	-0.0005638 	0.377013
0.00832776 	-0.000113793 	-0.000563775 	0.376881
0.00837793 	-0.000113268 	-0.000563749 	0.376748
0.00842809 	-0.000112742 	-0.000563724 	0.376615
0.00847826 	-0.000112216 	-0.000563699 	0.376482
0.00852843 	-0.00011169 	-0.000563674 	0.376349
0.0085786 	-0.000111165 	-0.000563649 	0.376216
0.00862876 	-0.000110639 	-0.000563623 	0.376084
0.00867893 	-0.000110113 	-0.000563598 	0.375951
0.0087291 	-0.000109588 	-0.000563573 	0.375818
0.00877926 	-0.000109062 	-0.000563548 	0.375685
0.00882943 	-0.000108536 	-0.000563522 	0.375552
0.0088796 	-0.000108065 	-0.000563176 	0.375339
0.00892977 	-0.000107702 	-0.000562197 	0.374965
0.00897993 	-0.000107338 	-0.000561218 	0.374592
0.0090301 	-0.000106975 	-0.000560238 	0.374219
0.00908027 	-0.000106611 	-0.000559259 	0.373845
0.00913043 	-0.000106248 	-0.00055828 	0.373472
0.0091806 	-0.000105884 	-0.000557301 	0.373098
0.00923077 	-0.000105521 	-0.000556321 	0.372725
0.00928094 	-0.000105157 	-0.000555342 	0.372352
0.0093311 	-0.000104794 	-0.000554363 	0.371978
0.00938127 	-0.000104431 	-0.000553384 	0.371605
0.00943144 	-0.000104067 	-0.000552405 	0.371232
0.00948161 	-0.000103704 	-0.000551425 	0.370858
0.00953177 	-0.00010334 	-0.000550446 	0.370485
0.00958194 	-0.000102977 	-0.000549467 	0.370112
0.00963211 	-0.000102613 	-0.000548488 	0.369738
0.00968227 	-0.00010225 	-0.000547508 	0.369365
0.00973244 	-0.000101886 	-0.000546529 	0.368992
0.00978261 	-0.000101523 	-0.00054555 	0.368618
0.00983278 	-0.000101159 	-0.000544571 	0.368245
0.00988294 	-0.000100796 	-0.000543592 	0.367871
0.00993311 	-0.000100432 	-0.000542612 	0.367498
0.00998328 	-0.000100069 	-0.000541633 	0.367125
0.0100334 	-9.97235e-05 	-0.000540598 	0.366737
0.0100836 	-9.97138e-05 	-0.000538513 	0.366079
0.0101338 	-9.97041e-05 	-0.000536428 	0.365421
0.0101839 	-9.96944e-05 	-0.000534343 	0.364764
0.0102341 	-9.96847e-05 	-0.000532258 	0.364106
0.0102843 	-9.9675e-05 	-0.000530173 	0.363448
0.0103344 	-9.96654e-05 	-0.000528088 	0.36279
0.0103846 	-9.96557e-05 	-0.000526003 	0.362133
0.0104348 	-9.9646e-05 	-0.000523919 	0.361475
0.0104849 	-9.96363e-05 	-0.000521834 	0.360817
0.0105351 	-9.96266e-05 	-0.000519749 	0.360159
0.0105853 	-9.96169e-05 	-0.000517664 	0.359502
0.0106355 	-9.96072e-05 	-0.000515579 	0.358844
0.0106856 	-9.95975e-05 	-0.000513494 	0.358186
0.0107358 	-9.95879e-05 	-0.000511409 	0.357528
0.010786 	-9.95782e-05 	-0.000509324 	0.35687
0.0108361 	-9.95685e-05 	-0.000507239 	0.356213
0.0108863 	-9.95588e-05 	-0.000505155 	0.355555
0.0109365 	-9.95491e-05 	-0.00050307 	0.354897
0.0109866 	-9.95394e-05 	-0.000500985 	0.354239
0.0110368 	-9.95866e-05 	-0.000498758 	0.353549
0.011087 	-0.000100214 	-0.000495084 	0.352523
0.0111371 	-0.000100841 	-0.00049141 	0.351497
0.0111873 	-0.000101468 	-0.000487736 	0.350471
0.0112375 	-0.000102095 	-0.000484062 	0.349445
0.0112876 	-0.000102722 	-0.000480388 	0.348419
0.0113378 	-0.000103349 	-0.000476714 	0.347393
0.011388 	-0.000103976 	-0.00047304 	0.346366
0.0114381 	-0.000104603 	-0.000469366 	0.34534
0.0114883 	-0.00010523 	-0.000465692 	0.344314
0.0115385 	-0.000105857 	-0.000462018 	0.343288
0.0115886 	-0.000106484 	-0.000458344 	0.342262
0.0116388 	-0.000107111 	-0.00045467 	0.341236
0.011689 	-0.000107738 	-0.000450996 	0.34021
0.0117391 	-0.000108365 	-0.000447322 	0.339184
0.0117893 	-0.000108993 	-0.000443648 	0.338158
0.0118395 	-0.00010962 	-0.000439974 	0.337132
0.0118896 	-0.000110247 	-0.0004363 	0.336106
0.0119398 	-0.000111775 	-0.000430147 	0.334541
0.01199 	-0.000113324 	-0.000423938 	0.332964
0.0120401 	-0.000114874 	-0.000417728 	0.331387
0.0120903 	-0.000116423 	-0.000411518 	0.32981
0.0121405 	-0.000117972 	-0.000405308 	0.328233
0.0121906 	-0.000119521 	-0.000399098 	0.326655
0.0122408 	-0.000121071 	-0.000392889 	0.325078
0.012291 	-0.00012262 	-0.000386679 	0.323501
0.0123411 	-0.000124169 	-0.000380469 	0.321924
0.0123913 	-0.000125718 	-0.000374259 	0.320347
0.0124415 	-0.000127268 	-0.000368049 	0.318769
0.0124916 	-0.000128817 	-0.00036184 	0.317192
0.0125418 	-0.000130366 	-0.00035563 	0.315615
0.012592 	-0.000131916 	-0.00034942 	0.314038
0.0126421 	-0.000133723 	-0.000342252 	0.312176
0.0126923 	-0.000136111 	-0.000332933 	0.309674
0.0127425 	-0.000138498 	-0.000323615 	0.307173
0.0127926 	-0.000140885 	-0.000314296 	0.304671
0.0128428 	-0.000143273 	-0.000304977 	0.30217
0.012893 	-0.00014566 	-0.000295659 	0.299668
0.0129431 	-0.000148047 	-0.00028634 	0.297166
0.0129933 	-0.000150435 	-0.000277022 	0.294665
0.0130435 	-0.000152822 	-0.000267703 	0.292163
0.0130936 	-0.00015521 	-0.000258385 	0.289662
0.0131438 	-0.000157597 	-0.000249066 	0.28716
0.013194 	-0.000159984 	-0.000239747 	0.284659
0.0132441 	-0.000162372 	-0.000230429 	0.282157
0.0132943 	-0.000164436 	-0.000219535 	0.278439
0.0133445 	-0.000166383 	-0.000208068 	0.27428
0.0133946 	-0.00016833 	-0.000196602 	0.27012
0.0134448 	-0.000170277 	-0.000185135 	0.26596
0.013495 	-0.000172224 	-0.000173668 	0.2618
0.0135452 	-0.000174171 	-0.000162202 	0.25764
0.0135953 	-0.000176118 	-0.000150735 	0.25348
0.0136455 	-0.000178065 	-0.000139269 	0.24932
0.0136957 	-0.000180012 	-0.000127802 	0.24516
0.0137458 	-0.000181959 	-0.000116335 	0.241
0.013796 	-0.000183906 	-0.000104869 	0.23684
0.0138462 	-0.000181798 	-9.50848e-05 	0.229396
0.0138963 	-0.000179491 	-8.5383e-05 	0.221791
0.0139465 	-0.000177185 	-7.56812e-05 	0.214187
0.0139967 	-0.000174879 	-6.59793e-05 	0.206582
0.0140468 	-0.000172573 	-5.62775e-05 	0.198978
0.014097 	-0.000170267 	-4.65756e-05 	0.191373
0.0141472 	-0.00016796 	-3.68738e-05 	0.183769
0.0141973 	-0.000165654 	-2.71719e-05 	0.176164
0.0142475 	-0.000163348 	-1.74701e-05 	0.168559
0.0142977 	-0.000155589 	-1.24584e-05 	0.158036
0.0143478 	-0.00014563 	-9.33826e-06 	0.146335
0.014398 	-0.000135671 	-6.21813e-06 	0.134634
0.0144482 	-0.000125713 	-3.098e-06 	0.122934
0.0144983 	-0.000115754 	2.21246e-08 	0.111233
0.0145485 	-0.000105796 	3.14225e-06 	0.0995322
0.0145987 	-9.58369e-05 	6.26238e-06 	0.0878314
0.0146488 	-8.58783e-05 	9.38251e-06 	0.0761307
0.014699 	-7.40368e-05 	8.86636e-06 	0.0651024
0.0147492 	-6.16973e-05 	7.38863e-06 	0.054252
0.0147993 	-4.93579e-05 	5.91091e-06 	0.0434016
0.0148495 	-3.70184e-05 	4.43318e-06 	0.0325512
0.0148997 	-2.46789e-05 	2.95545e-06 	0.0217008
0.0149498 	-1.23395e-05 	1.47773e-06 	0.0108504
0.015 	0 	0 	0
