/*--------------------------------*- C++ -*----------------------------------*\
| =========                 |                                                 |
| \\      /  F ield         | OpenFOAM: The Open Source CFD Toolbox           |
|  \\    /   O peration     | Version:  v1906                                 |
|   \\  /    A nd           | Web:      www.OpenFOAM.com                      |
|    \\/     M anipulation  |                                                 |
\*---------------------------------------------------------------------------*/
FoamFile
{
    version     2.0;
    format      ascii;
    class       volScalarField;
    location    "200";
    object      heatTransferCoeff(T);
}
// * * * * * * * * * * * * * * * * * * * * * * * * * * * * * * * * * * * * * //

dimensions      [1 0 -3 -1 0 0 0];


internalField   uniform 0;

boundaryField
{
    leftWall
    {
        type            calculated;
        value           nonuniform List<scalar> 
324
(
-235.91
-235.91
-318.45
-318.45
-318.45
-232.336
-232.336
-307.889
-307.889
-239.495
-239.495
-272.609
-272.609
-272.609
-229.497
-229.497
-54.6242
-54.6242
-235.91
-235.91
-318.45
-318.45
-318.45
-232.336
-232.336
-307.889
-307.889
-239.495
-239.495
-272.609
-272.609
-229.497
-229.497
-229.497
-54.6242
-54.6242
-296.875
-296.875
-257.234
-257.234
-257.234
-300.796
-300.796
-243.6
-243.6
-307.348
-307.348
-220.441
-220.441
-298.794
-298.794
-298.794
-122.458
-122.458
-296.875
-296.875
-257.234
-257.234
-257.234
-300.796
-300.796
-243.6
-243.6
-307.348
-307.348
-220.441
-220.441
-220.441
-298.794
-298.794
-122.458
-122.458
-296.875
-296.875
-257.234
-257.234
-257.234
-300.796
-300.796
-209.604
-243.6
-307.348
-307.348
-220.441
-220.441
-298.794
-291.086
-291.086
-122.458
-122.458
-313.13
-313.13
-221.354
-221.354
-221.354
-315.506
-315.506
-209.604
-209.604
-314.803
-314.803
-197.986
-197.986
-291.086
-291.086
-291.086
-122.812
-122.812
-313.13
-313.13
-221.354
-221.354
-221.354
-315.506
-315.506
-209.604
-209.604
-314.803
-314.803
-197.986
-197.986
-197.986
-291.086
-291.086
-122.812
-122.812
-303.524
-303.524
-240.51
-240.51
-240.51
-303.309
-303.309
-227.331
-227.331
-301.287
-301.287
-211.15
-211.15
-275.904
-275.904
-275.904
-124.969
-124.969
-303.524
-303.524
-240.51
-240.51
-240.51
-303.309
-303.309
-227.331
-227.331
-301.287
-301.287
-211.15
-211.15
-275.904
-275.904
-275.904
-124.969
-124.969
-300.88
-300.88
-242.689
-242.689
-242.689
-301.839
-301.839
-229.049
-229.049
-301.111
-301.111
-211.851
-211.851
-211.851
-277.352
-277.352
-124.342
-124.342
-300.88
-300.88
-242.689
-242.689
-242.689
-301.839
-301.839
-229.049
-229.049
-301.111
-301.111
-211.851
-211.851
-277.352
-277.352
-277.352
-124.342
-124.342
-302.457
-302.457
-244.645
-244.645
-244.645
-303.403
-303.403
-229.006
-229.006
-302.147
-302.147
-210.526
-210.526
-275.909
-275.909
-275.909
-123.399
-123.399
-302.457
-302.457
-244.645
-244.645
-244.645
-303.403
-303.403
-229.006
-229.006
-302.147
-302.147
-210.526
-210.526
-210.526
-275.909
-275.909
-123.399
-123.399
-302.457
-302.457
-244.645
-244.645
-244.645
-303.403
-303.403
-229.006
-229.006
-302.075
-302.147
-210.54
-210.526
-210.526
-275.909
-275.909
-123.399
-123.399
-302.17
-302.17
-245.227
-245.227
-245.227
-303.339
-303.339
-229.2
-229.2
-302.075
-302.075
-210.54
-210.54
-210.54
-275.553
-275.553
-123.221
-123.221
-302.17
-302.17
-245.227
-245.227
-245.227
-303.339
-303.339
-229.2
-229.2
-302.075
-302.075
-210.54
-210.54
-210.54
-275.553
-275.553
-123.221
-123.221
-302.466
-302.466
-245.719
-245.719
-303.571
-303.571
-303.571
-229.177
-229.177
-302.086
-302.086
-210.066
-210.066
-210.066
-274.988
-274.988
-122.611
-122.611
-302.466
-302.466
-245.719
-245.719
-245.719
-303.571
-303.571
-229.177
-229.177
-302.086
-302.086
-210.066
-210.066
-210.066
-274.988
-274.988
-122.611
-122.611
)
;
    }
    rightWall
    {
        type            calculated;
        value           nonuniform List<scalar> 
324
(
-275.363
-275.363
-260.368
-260.368
-260.368
-281.436
-281.436
-261.193
-261.193
-289.058
-289.058
-269.987
-269.987
-269.987
-301.895
-301.895
-391.007
-391.007
-275.363
-275.363
-260.368
-260.368
-281.436
-281.436
-281.436
-261.193
-261.193
-289.058
-289.058
-269.987
-269.987
-301.895
-301.895
-301.895
-391.007
-391.007
-270.559
-270.559
-264.108
-264.108
-275.942
-275.942
-275.942
-265.646
-265.646
-282.615
-282.615
-274.857
-274.857
-292.038
-292.038
-292.038
-392.328
-392.328
-270.559
-270.559
-264.108
-264.108
-264.108
-275.942
-275.942
-265.646
-265.646
-282.615
-282.615
-274.857
-274.857
-274.857
-292.038
-292.038
-392.328
-392.328
-270.559
-270.559
-264.108
-264.108
-275.942
-272.353
-275.942
-265.646
-265.646
-279.273
-282.615
-274.857
-276.652
-292.038
-288.572
-288.572
-392.328
-392.328
-266.721
-266.721
-265.687
-265.687
-272.353
-272.353
-272.353
-267.154
-267.154
-279.273
-279.273
-276.652
-276.652
-288.572
-288.572
-288.572
-394.465
-394.465
-266.721
-266.721
-265.687
-265.687
-265.687
-272.353
-272.353
-267.154
-267.154
-279.273
-279.273
-276.652
-276.652
-276.652
-288.572
-288.572
-394.465
-394.465
-266.68
-266.68
-266.42
-266.42
-266.42
-272.181
-272.181
-267.933
-267.933
-278.714
-278.714
-277.338
-277.338
-286.7
-286.7
-286.7
-393.225
-393.225
-266.68
-266.68
-266.42
-266.42
-272.181
-272.181
-272.181
-267.933
-267.933
-278.714
-278.714
-277.338
-277.338
-286.7
-286.7
-286.7
-393.225
-393.225
-265.482
-265.482
-266.814
-266.814
-266.814
-270.921
-270.921
-268.654
-268.654
-277.295
-277.295
-278.639
-278.639
-285.013
-285.013
-285.013
-394.857
-394.857
-265.482
-265.482
-266.814
-266.814
-266.814
-270.921
-270.921
-268.654
-268.654
-277.295
-277.295
-278.639
-278.639
-285.013
-285.013
-285.013
-394.857
-394.857
-266.143
-266.143
-266.579
-266.579
-271.553
-271.553
-271.553
-268.239
-268.239
-277.941
-277.941
-277.927
-277.927
-285.788
-285.788
-285.788
-393.525
-393.525
-266.143
-266.143
-266.579
-266.579
-266.579
-271.553
-271.553
-268.239
-268.239
-277.941
-277.941
-277.927
-277.927
-277.927
-285.788
-285.788
-393.525
-393.525
-266.143
-266.912
-266.579
-266.39
-266.579
-272.311
-271.553
-268.239
-268.239
-277.941
-277.941
-277.927
-277.667
-277.927
-285.788
-285.788
-393.709
-393.525
-266.912
-266.912
-266.39
-266.39
-266.39
-272.311
-272.311
-267.974
-267.974
-278.717
-278.717
-277.667
-277.667
-277.667
-286.817
-286.817
-393.709
-393.709
-266.912
-266.912
-266.39
-266.39
-266.39
-272.311
-272.311
-267.974
-267.974
-278.717
-278.717
-277.667
-277.667
-277.667
-286.817
-286.817
-393.709
-393.709
-267.17
-267.17
-266.038
-266.038
-266.038
-272.67
-272.67
-267.638
-267.638
-279.15
-279.15
-277.314
-277.314
-277.314
-287.277
-287.277
-393.361
-393.361
-267.17
-267.17
-266.038
-266.038
-266.038
-272.67
-272.67
-267.638
-267.638
-279.15
-279.15
-277.314
-277.314
-287.277
-287.277
-287.277
-393.361
-393.361
)
;
    }
    leftSides_periodic0
    {
        type            cyclic;
    }
    leftSides_periodic1
    {
        type            cyclic;
    }
    rightSides_periodic0
    {
        type            cyclic;
    }
    rightSides_periodic1
    {
        type            cyclic;
    }
    leftInOut_periodic0
    {
        type            cyclic;
    }
    leftInOut_periodic1
    {
        type            cyclic;
    }
    rightInOut_periodic0
    {
        type            cyclic;
    }
    rightInOut_periodic1
    {
        type            cyclic;
    }
    procBoundary2to0
    {
        type            processor;
        value           uniform 0;
    }
    procBoundary2to0throughleftSides_periodic1
    {
        type            processorCyclic;
        value           uniform 0;
    }
    procBoundary2to0throughrightSides_periodic1
    {
        type            processorCyclic;
        value           uniform 0;
    }
    procBoundary2to3
    {
        type            processor;
        value           uniform 0;
    }
    procBoundary2to3throughleftInOut_periodic1
    {
        type            processorCyclic;
        value           uniform 0;
    }
    procBoundary2to3throughrightInOut_periodic1
    {
        type            processorCyclic;
        value           uniform 0;
    }
}


// ************************************************************************* //
