/*--------------------------------*- C++ -*----------------------------------*\
| =========                 |                                                 |
| \\      /  F ield         | OpenFOAM: The Open Source CFD Toolbox           |
|  \\    /   O peration     | Version:  v1906                                 |
|   \\  /    A nd           | Web:      www.OpenFOAM.com                      |
|    \\/     M anipulation  |                                                 |
\*---------------------------------------------------------------------------*/
FoamFile
{
    version     2.0;
    format      ascii;
    class       volScalarField;
    location    "200";
    object      omega;
}
// * * * * * * * * * * * * * * * * * * * * * * * * * * * * * * * * * * * * * //

dimensions      [0 0 -1 0 0 0 0];


internalField   nonuniform List<scalar> 
255960
(
115700
117220
124670
122375
125865
122283
124584
122854
123645
123644
122854
124727
122436
126002
122436
124727
122854
123645
115697
117217
124668
122372
125864
122280
124582
122852
123643
123642
122851
124725
122433
126001
122433
124725
122852
123643
115695
117215
124666
122370
125862
122278
124580
122850
123641
123640
122849
124723
122431
125999
122431
124723
122850
123640
115693
117212
124665
122368
125861
122276
124579
122848
123639
123638
122847
124721
122429
125998
122429
124721
122848
123639
115691
117210
124663
122366
125859
122274
124577
122846
123637
123636
122845
124720
122427
125996
122427
124720
122846
123637
53739.6
52969.5
48922
50166.9
48154.7
50130.9
48886.1
50001.2
49587.3
49650
50082.3
49052
50310.3
48336.5
50310.6
49052.4
50083.4
49651.1
53737
52966.7
48920
50164.3
48153
50128.3
48884.1
49998.7
49585
49647.7
50079.8
49050
50307.7
48334.8
50307.9
49050.4
50081
49648.8
53734.2
52963.7
48917.9
50161.6
48151.3
50125.5
48882
49996.1
49582.7
49645.3
50077.2
49048
50305
48333
50305.2
49048.3
50078.4
49646.4
53731.3
52960.7
48915.8
50158.7
48149.5
50122.6
48879.9
49993.3
49580.2
49642.9
50074.5
49045.8
50302.1
48331.2
50302.3
49046.2
50075.6
49644
53728.2
52957.5
48913.6
50155.7
48147.6
50119.6
48877.7
49990.5
49577.7
49640.3
50071.6
49043.6
50299.1
48329.4
50299.3
49044
50072.8
49641.4
12305.2
12215.7
11715.9
11859.7
11628.6
11784
11646.8
11904.6
11858
11870.3
11920.7
11801.3
11948.2
11717.8
11948.3
11801.4
11921.9
11871.4
12304.8
12215.2
11715.6
11859.3
11628.4
11783.6
11646.5
11904.2
11857.7
11869.9
11920.3
11800.9
11947.8
11717.5
11947.8
11801.1
11921.5
11871.1
12304.4
12214.8
11715.3
11858.8
11628.1
11783.1
11646.2
11903.8
11857.3
11869.6
11919.9
11800.6
11947.3
11717.3
11947.4
11800.8
11921.1
11870.7
12303.9
12214.3
11715
11858.4
11627.8
11782.7
11645.9
11903.4
11856.9
11869.2
11919.5
11800.3
11946.9
11717
11947
11800.4
11920.7
11870.3
12303.4
12213.8
11714.6
11857.9
11627.5
11782.2
11645.5
11903
11856.5
11868.8
11919
11799.9
11946.4
11716.7
11946.5
11800.1
11920.2
11869.9
5111.82
5091.86
4992.82
5027.41
4967.82
5019.36
4988.3
5049.15
5038.65
5041.31
5052.76
5025.93
5059.52
5006.9
5059.49
5025.95
5053.52
5041.99
5111.69
5091.72
4992.72
5027.28
4967.74
5019.23
4988.21
5049.03
5038.54
5041.2
5052.64
5025.83
5059.39
5006.82
5059.36
5025.85
5053.39
5041.87
5111.55
5091.57
4992.63
5027.15
4967.65
5019.1
4988.11
5048.9
5038.43
5041.09
5052.51
5025.73
5059.26
5006.73
5059.23
5025.75
5053.27
5041.76
5111.41
5091.43
4992.52
5027.01
4967.57
5018.97
4988.01
5048.77
5038.31
5040.97
5052.38
5025.62
5059.12
5006.65
5059.09
5025.65
5053.13
5041.64
5111.27
5091.28
4992.42
5026.87
4967.48
5018.83
4987.9
5048.64
5038.19
5040.85
5052.25
5025.52
5058.98
5006.56
5058.95
5025.54
5053
5041.52
2801.06
2794.83
2774.88
2788.01
2772.24
2794.25
2784.04
2804.74
2801.12
2800.93
2804.66
2795.98
2807.15
2789.69
2807.01
2795.88
2805.01
2801.19
2801
2794.77
2774.83
2787.95
2772.2
2794.2
2784
2804.69
2801.08
2800.88
2804.61
2795.94
2807.09
2789.65
2806.96
2795.84
2804.96
2801.14
2800.94
2794.71
2774.79
2787.9
2772.17
2794.14
2783.96
2804.64
2801.03
2800.84
2804.56
2795.9
2807.03
2789.61
2806.9
2795.8
2804.91
2801.09
2800.89
2794.64
2774.75
2787.84
2772.13
2794.09
2783.92
2804.58
2800.98
2800.79
2804.5
2795.86
2806.97
2789.58
2806.84
2795.76
2804.85
2801.04
2800.83
2794.58
2774.7
2787.78
2772.09
2794.03
2783.87
2804.53
2800.93
2800.73
2804.44
2795.81
2806.91
2789.54
2806.78
2795.71
2804.8
2800.99
1797.15
1794.86
1797.41
1804.31
1799.06
1815.4
1811.19
1819.7
1818
1816.7
1818.19
1814.64
1819.3
1812.01
1819.08
1814.43
1818.18
1816.58
1797.12
1794.83
1797.39
1804.28
1806.99
1815.37
1811.17
1819.67
1817.98
1816.67
1818.16
1814.62
1819.27
1811.99
1819.05
1814.41
1818.15
1816.55
1797.09
1794.79
1797.36
1804.25
1806.97
1815.34
1811.15
1819.65
1817.95
1816.65
1818.13
1814.6
1819.24
1811.97
1819.02
1814.39
1818.12
1816.53
1797.06
1794.76
1797.34
1804.22
1799.01
1815.32
1811.13
1819.62
1817.93
1816.62
1818.1
1814.58
1819.21
1811.95
1818.99
1814.36
1818.09
1816.5
1797.03
1794.73
1797.32
1804.19
1806.94
1815.29
1811.1
1819.59
1817.9
1816.6
1818.07
1814.55
1819.18
1811.93
1818.96
1814.34
1818.06
1816.47
1277.7
1276.84
1287.2
1291.73
1299.87
1304.71
1302.68
1306.3
1305.29
1303.49
1304.15
1302.4
1304.65
1301.1
1304.34
1302.08
1303.81
1303.02
1277.69
1276.82
1287.19
1291.72
1299.86
1304.69
1302.67
1306.29
1305.27
1303.48
1304.14
1302.38
1304.64
1301.09
1304.33
1302.06
1303.79
1303.01
1277.67
1276.8
1287.18
1291.7
1299.85
1304.68
1302.66
1306.27
1305.26
1303.46
1304.12
1302.37
1304.62
1301.08
1304.31
1302.05
1303.77
1302.99
1277.65
1276.78
1287.17
1291.68
1299.84
1304.66
1302.65
1306.25
1305.24
1303.45
1304.11
1302.36
1304.6
1301.07
1304.29
1302.04
1303.76
1302.98
1277.64
1276.76
1287.15
1291.66
1299.83
1304.64
1302.63
1306.24
1305.23
1303.43
1304.09
1302.35
1304.59
1301.05
1304.27
1302.02
1303.74
1302.96
975.478
975.22
988.432
991.833
992.045
1005.29
1004.19
1005.31
1004.58
1002.57
1002.88
1001.79
1003.01
1001.06
1002.62
1001.37
1002.21
1001.78
975.467
975.209
988.424
991.822
992.039
1005.28
1004.18
1005.3
1004.57
1002.56
1002.87
1001.79
1003
1001.05
1002.6
1001.37
1002.2
1001.77
975.456
975.197
988.416
991.811
992.032
1005.27
1004.17
1005.29
1004.56
1002.55
1002.86
1001.78
1002.99
1001.05
1002.59
1001.36
1002.19
1001.76
975.445
975.186
988.408
991.8
1002.02
1005.26
1004.16
1005.27
1004.55
1002.54
1002.84
1001.77
1002.98
1001.04
1002.58
1001.35
1002.17
1001.75
975.434
975.174
988.399
991.789
992.018
1005.25
1004.15
1005.26
1004.54
1002.53
1002.83
1001.76
1002.96
1001.03
1002.57
1001.34
1002.16
1001.74
783.335
783.373
797.4
800.151
801.038
813.328
812.631
812.165
811.573
809.485
809.627
808.782
809.49
808.309
809.022
808.27
808.643
808.381
783.328
783.365
797.394
800.144
801.033
813.32
812.625
812.157
811.566
809.479
809.62
808.776
809.482
808.304
809.014
808.264
808.636
808.375
783.32
783.357
797.389
800.136
801.029
813.313
812.619
812.15
811.56
809.472
809.613
808.771
809.475
808.299
809.007
808.259
808.629
808.368
783.313
783.349
797.383
800.128
810.888
813.305
812.614
812.143
811.553
809.466
809.605
808.765
809.467
808.294
808.999
808.253
808.622
808.362
783.305
783.341
797.377
800.121
810.883
813.297
812.608
812.135
811.546
809.459
809.598
808.759
809.459
808.289
808.991
808.247
808.614
808.355
652.046
652.24
666.173
668.49
679.031
680.952
680.44
678.796
678.274
676.183
676.241
675.434
675.871
675.087
675.33
674.831
674.944
674.768
652.04
652.234
666.169
668.484
679.028
680.946
680.436
678.79
678.269
676.179
676.236
675.43
675.865
675.084
675.325
674.827
674.938
674.764
652.035
652.229
666.165
668.479
679.024
680.941
680.432
678.785
678.264
676.174
676.231
675.426
675.86
675.08
675.319
674.823
674.933
674.759
652.029
652.223
666.16
668.473
679.021
680.935
680.427
678.779
678.26
676.169
676.225
675.422
675.854
675.076
675.313
674.819
674.928
674.754
652.024
652.217
666.156
668.467
679.017
680.929
680.423
678.774
678.254
676.164
676.22
675.417
675.848
675.073
675.307
674.814
674.922
674.749
556.798
557.081
570.505
572.502
573.698
584.053
583.617
581.022
580.539
578.478
578.491
577.624
577.904
577.337
577.289
576.929
576.875
576.747
556.793
557.076
570.502
572.497
573.695
584.048
583.614
581.018
580.535
578.474
578.487
577.621
577.899
577.334
577.285
576.926
576.871
576.744
556.789
557.072
570.499
572.493
573.693
584.044
583.611
581.013
580.532
578.47
578.483
577.618
577.895
577.331
577.281
576.922
576.867
576.74
556.785
557.068
570.496
572.489
573.69
584.039
583.608
581.009
580.528
578.466
578.479
577.614
577.89
577.328
577.276
576.919
576.863
576.736
556.781
557.063
570.492
572.484
573.687
584.035
583.604
581.005
580.524
578.462
578.474
577.611
577.886
576.833
577.271
576.916
576.858
576.732
484.236
484.571
497.325
499.072
500.234
509.658
509.249
505.882
505.422
503.396
503.384
502.404
502.583
502.141
501.893
501.613
501.441
501.341
484.232
484.567
497.323
499.069
500.232
509.655
509.246
505.879
505.419
503.393
503.381
502.401
502.58
502.139
501.889
501.61
501.438
501.338
484.229
484.563
497.32
499.065
500.23
509.651
509.243
505.876
505.416
503.39
503.377
502.399
502.576
502.137
501.886
501.607
501.434
501.334
484.226
484.56
497.317
499.062
500.227
509.647
509.241
505.872
505.413
503.387
503.374
502.396
502.572
502.134
501.882
501.605
501.431
501.331
484.222
484.556
497.315
499.058
500.225
509.643
509.238
505.869
505.41
503.384
503.37
502.393
502.569
502.132
501.878
501.602
501.427
501.328
426.792
427.156
439.202
440.749
449.259
450.382
449.979
446.023
445.579
443.595
443.565
442.447
442.556
442.191
441.788
441.557
441.295
441.211
426.789
427.153
439.2
440.747
449.257
450.379
449.977
446.02
445.576
443.593
443.562
442.445
442.553
442.189
441.785
441.555
441.292
441.209
426.786
427.15
439.198
440.744
449.255
450.376
449.975
446.017
445.574
443.59
443.56
442.443
442.55
442.187
441.782
441.553
441.289
441.206
426.784
427.147
439.195
440.741
449.253
450.373
449.972
446.014
445.571
443.588
443.557
442.441
442.547
442.185
441.779
441.55
441.286
441.203
426.781
427.144
439.193
440.738
449.251
450.37
449.97
446.011
445.568
443.585
443.554
442.438
442.544
442.183
441.776
441.548
441.284
441.201
379.953
380.332
391.683
393.064
400.809
401.763
401.364
397.006
396.581
394.66
394.617
393.363
393.417
393.105
392.58
392.383
392.049
391.977
379.95
380.33
391.682
393.062
400.807
401.761
401.362
397.003
396.579
394.658
394.615
393.361
393.415
393.103
392.577
392.381
392.047
391.975
379.948
380.327
391.68
393.059
400.806
401.758
401.36
397.001
396.576
394.656
394.612
393.359
393.412
393.102
392.575
392.379
392.044
391.973
379.945
380.325
391.678
393.057
400.804
401.756
401.358
396.998
396.574
394.654
394.61
393.357
393.409
393.1
392.572
392.378
392.042
391.97
379.943
380.322
391.676
393.054
400.802
401.753
401.356
396.996
396.572
394.652
394.607
393.355
393.407
393.098
392.569
392.375
392.039
391.968
340.899
341.284
351.953
353.188
360.166
360.97
360.576
356.002
355.601
353.769
353.716
352.345
352.356
352.084
351.464
351.295
350.905
350.842
340.897
341.282
351.951
353.186
360.164
360.968
360.575
356
355.599
353.767
353.714
352.343
352.354
352.083
351.462
351.293
350.903
350.84
340.895
341.28
351.949
353.184
360.163
360.966
360.573
355.998
355.597
353.765
353.712
352.341
352.352
352.082
351.46
351.291
350.901
350.838
340.893
341.278
351.948
353.182
360.161
360.963
360.571
355.996
355.595
353.763
353.71
352.34
352.35
352.08
351.458
351.29
350.899
350.836
340.891
341.275
351.946
353.179
360.16
360.961
360.569
355.994
355.593
353.761
353.708
352.338
352.347
352.079
351.455
351.288
350.896
350.834
307.802
308.183
318.151
319.254
325.48
326.151
325.769
321.143
320.769
319.046
318.986
317.523
317.5
317.261
316.571
316.423
315.994
315.939
307.8
308.181
318.15
319.253
325.479
326.149
325.767
321.141
320.768
319.044
318.984
317.522
317.498
317.26
316.569
316.421
315.992
315.937
307.798
308.179
318.148
319.251
325.478
326.147
325.766
321.139
320.766
319.042
318.982
317.52
317.496
317.258
316.567
316.42
315.99
315.935
307.796
308.177
318.147
319.249
325.477
326.144
325.764
321.137
320.764
319.04
318.98
317.519
317.494
317.257
316.564
316.418
315.988
315.934
279.427
279.794
289.019
289.998
295.511
296.063
295.7
291.162
290.819
289.219
289.154
287.63
287.58
287.369
286.631
286.502
286.049
286
279.425
279.792
289.018
289.997
295.51
296.062
295.699
291.161
290.817
289.217
289.152
287.629
287.579
287.368
286.629
286.501
286.047
285.999
279.423
279.791
289.016
289.995
295.509
296.06
295.698
291.159
290.816
289.216
289.151
287.628
287.577
287.366
286.628
286.499
286.045
285.997
279.422
279.789
289.015
289.993
295.508
296.058
295.696
291.157
290.814
289.214
289.149
287.626
287.575
287.365
286.626
286.498
286.044
285.995
279.42
279.787
289.014
289.991
295.506
296.056
295.695
291.155
290.813
289.212
289.147
287.625
287.573
287.364
286.624
286.497
286.042
285.994
254.897
255.242
263.672
264.533
269.385
269.834
269.498
265.164
264.854
263.391
263.323
261.777
261.706
261.52
260.759
260.648
260.185
260.142
254.895
255.241
263.671
264.532
269.384
269.832
269.497
265.163
264.853
263.39
263.321
261.776
261.704
261.519
260.757
260.646
260.183
260.141
254.894
255.239
263.67
264.53
265.133
269.831
269.495
265.161
264.852
263.388
263.32
261.775
261.702
261.518
260.756
260.645
260.182
260.14
254.892
255.237
263.669
264.529
265.132
269.829
269.494
265.16
264.85
263.387
263.318
261.774
261.701
261.517
260.754
260.644
260.18
260.138
254.891
255.236
263.668
264.527
269.38
269.827
269.493
265.158
264.849
263.385
263.317
261.772
261.699
261.516
260.753
260.643
260.178
260.137
233.545
233.863
241.477
242.224
246.467
246.828
246.525
242.498
242.223
240.911
240.843
239.322
239.236
239.075
238.317
238.223
237.763
237.727
233.544
233.862
241.476
242.223
246.466
246.827
246.524
242.496
242.222
240.91
240.841
239.321
239.234
239.075
238.316
238.222
237.762
237.726
233.543
233.86
241.475
242.221
246.465
246.825
246.523
242.495
242.221
240.909
240.84
239.32
239.233
239.074
238.315
238.221
237.76
237.725
233.541
233.859
241.474
242.22
246.464
246.824
246.522
242.493
242.22
240.907
240.838
239.319
239.231
239.073
238.313
238.22
237.759
237.723
233.54
233.857
241.473
242.218
246.463
246.822
246.52
242.492
242.218
240.906
240.837
239.317
239.23
239.072
238.312
238.219
237.758
237.722
214.853
215.139
221.953
222.594
223.034
226.566
226.301
222.671
222.434
221.288
221.222
219.768
219.674
219.539
218.805
218.727
218.278
218.247
214.852
215.138
221.952
222.593
223.033
226.564
226.3
222.669
222.433
221.287
221.221
219.767
219.673
219.539
218.804
218.726
218.277
218.246
214.85
215.137
221.951
222.591
223.032
226.563
226.299
222.668
222.432
221.286
221.22
219.766
219.672
219.538
218.803
218.725
218.275
218.245
214.849
215.136
221.95
222.59
223.031
226.561
226.298
222.667
222.43
221.285
221.218
219.765
219.67
219.537
218.801
218.724
218.274
218.244
214.848
215.134
221.949
222.589
223.03
226.56
226.297
222.666
222.429
221.284
221.217
219.764
219.669
219.536
218.8
218.723
218.273
218.243
198.403
198.659
204.725
205.272
208.458
208.68
208.459
205.297
205.099
204.13
204.069
202.704
202.607
202.495
201.795
201.729
201.294
201.268
198.402
198.658
204.724
205.271
208.457
208.679
208.458
205.296
205.098
204.129
204.068
202.703
202.606
202.494
201.793
201.728
201.293
201.267
198.401
198.657
204.723
205.27
208.456
208.677
208.457
205.295
205.097
204.128
204.066
202.702
202.605
202.494
201.792
201.727
201.292
201.266
198.399
198.656
204.722
205.268
208.455
208.676
208.456
205.293
205.096
204.127
204.065
202.701
202.604
202.493
201.791
201.726
201.291
201.265
198.398
198.654
204.721
205.267
208.455
208.675
208.455
205.292
205.095
204.126
204.064
202.7
202.602
202.492
201.79
201.726
201.289
201.264
183.883
184.112
189.497
189.964
192.711
192.878
192.704
190.053
189.896
189.101
189.043
187.772
187.675
187.581
186.915
186.86
186.438
186.416
183.882
184.111
189.497
189.963
192.71
192.877
192.703
190.052
189.895
189.1
189.042
187.772
187.674
187.58
186.914
186.859
186.437
186.415
183.881
184.11
189.496
189.962
192.709
192.876
192.702
190.051
189.894
189.099
189.041
187.771
187.672
187.58
186.913
186.858
186.436
186.414
183.88
184.108
189.495
189.96
192.709
192.875
192.701
190.05
189.893
189.098
189.04
187.77
187.671
187.579
186.911
186.858
186.435
186.413
183.879
184.107
189.494
189.959
192.708
192.874
192.7
190.049
189.892
189.097
189.039
187.769
187.67
187.578
186.91
186.857
186.434
186.412
171.031
171.235
176.023
176.419
176.672
178.912
178.783
176.638
176.519
175.884
175.829
174.649
174.551
174.474
173.839
173.794
173.386
173.367
171.03
171.234
176.022
176.418
176.671
178.911
178.782
176.637
176.518
175.883
175.828
174.648
174.55
174.473
173.838
173.794
173.385
173.366
171.029
171.233
176.021
176.417
176.671
178.91
178.781
176.636
176.517
175.882
175.827
174.647
174.549
174.472
173.837
173.793
173.384
173.366
171.028
171.232
176.02
176.416
176.67
178.909
178.781
176.635
176.516
175.881
175.826
174.646
174.548
174.472
173.836
173.792
173.383
173.365
171.027
171.231
176.02
176.415
176.669
178.908
178.78
176.635
176.515
175.88
175.825
174.646
174.547
174.471
173.835
173.791
173.382
173.364
159.629
159.811
164.066
164.404
164.613
166.539
166.448
164.781
164.692
164.189
164.138
163.044
162.948
162.33
162.284
162.246
161.853
161.837
159.628
159.81
164.065
164.403
164.613
166.538
166.447
164.78
164.691
164.189
164.137
163.043
162.947
162.329
162.283
162.245
161.853
161.836
159.627
159.809
164.064
164.402
164.612
166.537
166.447
164.779
164.69
164.188
164.136
163.043
162.946
162.329
162.282
162.245
161.852
161.836
159.626
159.808
164.064
164.401
164.611
166.536
166.446
164.778
164.689
164.187
164.135
163.042
162.945
162.328
162.281
162.244
161.851
161.835
159.626
159.807
164.063
164.4
164.611
166.535
166.445
164.777
164.689
164.186
164.134
163.041
162.944
162.327
162.28
162.243
161.85
161.834
149.478
149.639
153.407
153.694
155.478
155.54
155.484
154.243
154.18
153.793
153.745
152.733
152.64
152.588
152.021
151.99
151.614
151.6
149.477
149.638
153.406
153.693
155.478
155.539
155.483
154.242
154.179
153.793
153.744
152.733
152.639
152.587
152.02
151.989
151.613
151.599
149.476
149.638
153.406
153.692
155.477
155.538
155.482
154.241
154.179
153.792
153.743
152.732
152.638
152.587
152.019
151.988
151.612
151.598
149.476
149.637
153.405
153.691
155.477
155.537
155.482
154.24
154.178
153.791
153.742
152.732
152.638
152.586
152.018
151.988
151.611
151.598
149.475
149.636
153.405
153.691
155.476
155.537
155.481
154.239
154.177
153.79
153.742
152.731
152.637
152.586
152.017
151.987
151.61
151.597
140.409
140.55
143.866
144.107
144.252
145.713
145.688
144.839
144.8
144.518
144.473
143.541
143.451
142.925
142.872
142.847
142.489
142.478
140.408
140.549
143.865
144.106
145.669
145.712
145.687
144.839
144.8
144.518
144.472
143.54
143.45
143.407
142.871
142.846
142.489
142.477
140.407
140.548
143.864
144.105
144.251
145.711
145.686
144.838
144.799
144.517
144.471
143.54
143.449
143.407
142.871
142.846
142.488
142.476
140.406
140.547
143.864
144.105
144.251
145.711
145.686
144.837
144.798
144.516
144.471
143.539
143.448
143.406
142.87
142.845
142.487
142.476
140.405
140.546
143.863
144.104
145.668
145.71
145.685
144.836
144.798
144.516
144.47
143.539
143.447
143.406
142.869
142.844
142.486
142.475
132.279
132.401
135.289
135.489
136.861
136.891
136.894
136.411
136.393
136.21
136.168
135.313
135.225
135.191
134.686
134.666
134.328
134.319
132.278
132.4
135.289
135.488
136.861
136.891
136.893
136.41
136.392
136.209
136.167
135.312
135.224
135.19
134.686
134.666
134.327
134.318
132.278
132.4
135.288
135.487
136.86
136.89
136.893
136.409
136.392
136.209
136.166
135.311
135.224
135.19
134.685
134.665
134.327
134.317
132.277
132.399
135.287
135.487
136.86
136.889
136.892
136.408
136.391
136.208
136.166
135.311
135.223
135.189
134.684
134.665
134.326
134.317
132.276
132.398
135.287
135.486
136.859
136.888
136.891
136.408
136.39
136.207
136.165
135.31
135.222
135.189
134.684
134.664
134.325
134.316
124.969
125.073
127.554
127.715
127.813
128.937
128.964
128.82
128.822
128.734
128.696
127.916
127.832
127.805
127.334
127.318
127
126.993
124.969
125.072
127.554
127.715
127.813
128.936
128.964
128.819
128.821
128.733
128.695
127.916
127.831
127.805
127.333
127.317
127
126.992
124.968
125.071
127.553
127.714
128.916
128.935
128.963
128.818
128.821
128.733
128.694
127.915
127.831
127.804
127.332
127.317
126.999
126.991
124.967
125.071
127.553
127.713
127.812
128.935
128.963
128.818
128.82
128.732
128.694
127.915
127.83
127.804
127.331
127.316
126.998
126.991
124.967
125.07
127.552
127.713
128.915
128.934
128.962
128.817
128.82
128.732
128.693
127.914
127.829
127.804
127.331
127.316
126.998
126.99
118.375
118.461
120.555
120.681
121.723
121.735
121.786
121.953
121.973
121.976
121.942
121.238
121.159
120.757
120.701
120.689
120.393
120.387
118.374
118.46
120.554
120.68
121.723
121.735
121.785
121.952
121.973
121.975
121.941
121.238
121.158
120.756
120.7
120.689
120.393
120.387
118.374
118.46
120.554
120.679
121.723
121.734
121.784
121.952
121.972
121.975
121.94
121.237
121.157
120.756
120.7
120.688
120.392
120.386
118.373
118.459
120.553
120.679
121.722
121.733
121.784
121.951
121.971
121.974
121.94
121.237
121.157
120.755
120.699
120.688
120.392
120.386
118.373
118.458
120.553
120.678
121.722
121.733
121.783
121.951
121.971
121.974
121.939
121.236
121.156
120.755
120.698
120.687
120.391
120.385
112.406
112.475
114.199
114.292
114.35
115.189
115.259
115.713
115.75
115.838
115.808
115.183
115.107
114.747
114.692
114.684
114.411
114.406
112.405
112.475
114.198
114.291
114.349
115.188
115.258
115.712
115.749
115.838
115.808
115.182
115.107
114.747
114.692
114.684
114.411
114.406
112.405
112.474
114.198
114.29
114.349
115.187
115.258
115.712
115.748
115.837
115.807
115.182
115.106
114.746
114.691
114.683
114.41
114.405
112.404
112.474
114.198
114.29
115.182
115.187
115.258
115.711
115.748
115.837
115.807
115.181
115.106
114.746
114.69
114.683
114.41
114.405
112.404
112.473
114.197
114.289
114.348
115.186
115.257
115.711
115.747
115.836
115.806
115.181
115.105
114.745
114.69
114.682
114.409
114.404
106.985
107.038
108.407
108.469
109.213
109.212
109.3
110.017
110.068
110.239
110.214
109.666
109.596
109.587
109.224
109.219
108.97
108.967
106.984
107.038
108.407
108.468
109.213
109.212
109.3
110.016
110.068
110.239
110.213
109.665
109.595
109.587
109.223
109.219
108.97
108.966
106.984
107.037
108.406
108.468
109.213
109.211
109.299
110.016
110.067
110.238
110.213
109.665
109.595
109.586
109.223
109.218
108.969
108.966
106.983
107.037
108.406
108.467
109.212
109.211
109.299
110.015
110.067
110.238
110.212
109.664
109.594
109.586
109.222
109.218
108.969
108.965
106.983
107.036
108.405
108.467
109.212
109.21
109.298
110.014
110.066
110.237
110.212
109.664
109.594
109.586
109.221
109.217
108.968
108.965
102.044
102.083
103.111
103.143
103.74
103.733
103.836
104.792
104.858
105.107
105.086
104.616
104.552
104.548
104.224
104.223
103.999
103.996
102.043
102.082
103.11
103.143
103.74
103.732
103.836
104.792
104.857
105.106
105.086
104.616
104.552
104.548
104.224
104.222
103.998
103.996
102.043
102.082
103.11
103.142
103.739
103.732
103.835
104.791
104.857
105.106
105.085
104.615
104.551
104.548
104.223
104.222
103.998
103.995
102.042
102.081
103.109
103.141
103.739
103.731
103.835
104.791
104.856
105.106
105.085
104.615
104.55
104.547
104.223
104.221
103.997
103.995
102.042
102.081
103.109
103.141
103.738
103.731
103.835
104.79
104.856
105.105
105.084
104.615
104.55
104.547
104.222
104.221
103.997
103.995
97.5245
97.5495
98.2489
98.2537
98.2556
98.6867
98.8032
99.9775
100.055
100.38
100.364
99.9725
99.9144
99.9153
99.6315
99.6328
99.4349
99.4336
97.524
97.549
98.2485
98.2532
98.2553
98.6861
98.8028
99.977
100.055
100.379
100.363
99.9721
99.9139
99.915
99.631
99.6324
99.4344
99.4332
97.5235
97.5484
98.2481
98.2527
98.2549
98.6856
98.8024
99.9765
100.055
100.379
100.363
99.9717
99.9133
99.9146
99.6305
99.632
99.4339
99.4328
97.523
97.5479
98.2477
98.2521
98.2546
98.685
98.802
99.976
100.054
100.378
100.362
99.9714
99.9128
99.9143
99.63
99.6316
99.4334
99.4323
97.5225
97.5474
98.2473
98.2516
98.2542
98.6845
98.8016
99.9755
100.054
100.378
100.362
99.971
99.9123
99.914
99.6295
99.6312
99.433
99.4319
93.3759
93.3878
93.7703
93.7487
93.7311
94.0177
94.1455
95.5184
95.6079
96.0038
95.9929
95.6811
95.6293
95.6345
95.3923
95.3961
95.2249
95.2247
93.3755
93.3873
93.7699
93.7481
93.7307
94.0171
94.145
95.5179
95.6075
96.0034
95.9924
95.6807
95.6288
95.6342
95.3918
95.3957
95.2244
95.2243
93.375
93.3868
93.7695
93.7476
93.7304
94.0166
94.1446
95.5174
95.6071
96.003
95.992
95.6804
95.6283
95.6339
95.3913
95.3954
95.2239
95.2238
93.3745
93.3863
93.7691
93.7471
93.7301
94.016
94.1442
95.5169
95.6066
96.0025
95.9915
95.68
95.6278
95.6336
95.3909
95.395
95.2235
95.2234
93.374
93.3858
93.7688
93.7466
93.7297
94.0155
94.1438
95.5165
95.6062
96.0021
95.991
95.6796
95.6274
95.6333
95.3904
95.3947
95.2231
95.223
89.5538
89.5533
89.6291
89.5821
89.705
89.6777
89.8148
91.3674
91.4676
91.9325
91.9267
91.6952
91.6502
91.6593
91.4599
91.466
91.322
91.3228
89.5533
89.5528
89.6287
89.5816
89.5438
89.6772
89.8144
91.3669
91.4672
91.932
91.9262
91.6949
91.6497
91.6589
91.4594
91.4656
91.3215
91.3224
89.5529
89.5524
89.6283
89.5811
89.5435
89.6766
89.814
91.3664
91.4668
91.9316
91.9257
91.6945
91.6492
91.6586
91.4589
91.4653
91.3211
91.322
89.5524
89.5519
89.6279
89.5806
89.5432
89.6761
89.8136
91.366
91.4664
91.9312
91.9253
91.6942
91.6487
91.6583
91.4584
91.4649
91.3207
91.3216
89.552
89.5514
89.6276
89.5801
89.5429
89.6756
89.8132
91.3655
91.4659
91.9308
91.9248
91.6938
91.6483
91.6581
91.458
91.4646
91.3202
91.3212
86.0188
86.0066
85.7831
85.7117
85.6603
85.6245
85.769
87.4828
87.5929
88.1242
88.1238
87.9741
87.9361
87.9489
87.7935
87.8018
87.6858
87.6876
86.0183
86.0062
85.7827
85.7112
85.66
85.624
85.7686
87.4824
87.5925
88.1238
88.1233
87.9738
87.9356
87.9486
87.7931
87.8015
87.6853
87.6872
86.0179
86.0058
85.7824
85.7108
85.6597
85.6234
85.7682
87.4819
87.5921
88.1234
88.1228
87.9734
87.9351
87.9483
87.7926
87.8011
87.6849
87.6868
86.0175
86.0053
85.782
85.7103
85.6593
85.6229
85.7678
87.4815
87.5917
88.123
88.1224
87.9731
87.9347
87.948
87.7921
87.8008
87.6845
87.6864
86.017
86.0048
85.7817
85.7098
85.659
85.6225
85.7674
87.481
87.5913
88.1226
88.122
87.9727
87.9342
87.9477
87.7917
87.8005
87.6841
87.686
82.7364
82.7133
82.1965
82.1014
82.0198
81.8217
81.9717
83.8285
83.9476
84.5429
84.5479
84.482
84.4514
84.4678
84.3579
84.3683
84.2809
84.2836
82.736
82.7128
82.1962
82.101
82.0195
81.8211
81.9713
83.828
83.9472
84.5425
84.5474
84.4817
84.4509
84.4675
84.3574
84.3679
84.2805
84.2832
82.7356
82.7124
82.1958
82.1005
82.0192
81.8206
81.9709
83.8276
83.9468
84.5421
84.547
84.4813
84.4505
84.4672
84.357
84.3676
84.28
84.2828
82.7352
82.712
82.1955
82.1
82.0189
81.8201
81.9705
83.8272
83.9464
84.5417
84.5465
84.481
84.45
84.4669
84.3566
84.3673
84.2796
84.2824
82.7348
82.7115
82.1952
82.0996
82.0186
81.8197
81.9702
83.8267
83.946
84.5413
84.5461
84.4807
84.4496
84.4667
84.3561
84.367
84.2792
84.2821
79.6777
79.644
78.8384
78.7201
78.2943
78.2383
78.3919
80.3729
80.5
81.1568
81.1674
81.1877
81.1648
81.1848
81.122
81.1344
81.0765
81.0801
79.6774
79.6436
78.8381
78.7197
78.2939
78.2378
78.3915
80.3724
80.4996
81.1564
81.167
81.1873
81.1644
81.1845
81.1215
81.134
81.076
81.0797
79.677
79.6432
78.8378
78.7192
78.2936
78.2373
78.3912
80.372
80.4992
81.156
81.1665
81.187
81.1639
81.1843
81.1211
81.1337
81.0756
81.0793
79.6766
79.6428
78.8374
78.7188
78.2933
78.2368
78.3908
80.3716
80.4988
81.1556
81.1661
81.1867
81.1635
81.184
81.1207
81.1334
81.0752
81.0789
79.6762
79.6424
78.8371
78.7183
78.293
78.2363
78.3905
80.3711
80.4985
81.1553
81.1657
81.1864
81.1631
81.1837
81.1203
81.1331
81.0749
81.0786
76.8179
76.7739
75.6822
75.5409
75.4123
74.8481
75.0036
77.089
77.2233
77.9388
77.9552
78.0641
78.0494
78.073
78.0588
78.0732
78.0457
78.0502
76.8176
76.7736
75.6819
75.5405
75.412
74.8476
75.0032
77.0886
77.2229
77.9384
77.9548
78.0637
78.049
78.0727
78.0584
78.0729
78.0453
78.0498
76.8172
76.7732
75.6816
75.5401
75.4117
74.8471
75.0028
77.0882
77.2225
77.938
77.9543
78.0634
78.0485
78.0825
78.058
78.0726
78.0449
78.0494
76.8168
76.7727
75.6812
75.5396
74.9146
74.8466
75.0025
77.0878
77.2222
77.9376
77.9539
78.0631
78.0481
78.0823
78.0575
78.0723
78.0445
78.0491
76.8164
76.7723
75.6809
75.5392
75.4112
74.8462
75.0022
77.0873
77.2218
77.9373
77.9535
78.0628
78.0477
78.0719
78.0571
78.072
78.0441
78.0487
74.1351
74.0809
72.7047
72.5406
72.3877
71.6292
71.7847
73.9552
74.0956
74.8663
74.8887
75.0883
75.0822
75.1647
75.1455
75.1619
75.1656
75.171
74.1347
74.0806
72.7044
72.5402
72.3874
71.6286
71.7844
73.9547
74.0952
74.8659
74.8882
75.088
75.0818
75.1644
75.1451
75.1616
75.1652
75.1707
74.1344
74.0802
72.7041
72.5398
72.3871
71.6281
71.784
73.9543
74.0948
74.8655
74.8878
75.0877
75.0813
75.1641
75.1447
75.1613
75.1648
75.1703
74.134
74.0798
72.7037
72.5394
72.3869
71.6277
71.7837
73.9539
74.0944
74.8652
74.8874
75.0874
75.0809
75.1639
75.1443
75.161
75.1644
75.1699
74.1336
74.0794
72.7034
72.5389
72.3866
71.6273
71.7833
73.9535
74.094
74.8648
74.887
75.0871
75.0805
75.1636
75.1439
75.1607
75.164
75.1696
71.6096
71.5454
69.8859
69.6991
68.6559
68.5636
68.7178
70.954
71.0995
71.922
71.9503
72.2416
72.2441
72.2751
72.3624
72.381
72.4166
72.423
71.6093
71.545
69.8856
69.6987
68.6556
68.5631
68.7174
70.9535
71.0991
71.9216
71.9498
72.2412
72.2437
72.2748
72.362
72.3806
72.4162
72.4226
71.6089
71.5447
69.8853
69.6982
68.6553
68.5626
68.717
70.9531
71.0987
71.9212
71.9494
72.2409
72.2432
72.2745
72.3616
72.3803
72.4158
72.4223
71.6086
71.5443
69.885
69.6978
68.655
68.5621
68.7167
70.9527
71.0983
71.9209
71.949
72.2406
72.2428
72.2743
72.3612
72.38
72.4155
72.4219
71.6082
71.5439
69.8846
69.6974
68.6547
68.5617
68.7164
70.9523
71.098
71.9205
71.9486
72.2403
72.2424
72.274
72.3608
72.3797
72.4151
72.4216
69.2243
69.15
67.2083
66.9987
65.742
65.6368
65.7883
68.0725
68.2222
69.0914
69.1254
69.5068
69.518
69.5525
69.6912
69.7118
69.7796
69.787
69.224
69.1496
67.208
66.9983
65.7417
65.6363
65.7879
68.0721
68.2218
69.091
69.125
69.5065
69.5175
69.5522
69.6908
69.7115
69.7792
69.7866
69.2236
69.1493