/*--------------------------------*- C++ -*----------------------------------*\
| =========                 |                                                 |
| \\      /  F ield         | OpenFOAM: The Open Source CFD Toolbox           |
|  \\    /   O peration     | Version:  v1906                                 |
|   \\  /    A nd           | Web:      www.OpenFOAM.com                      |
|    \\/     M anipulation  |                                                 |
\*---------------------------------------------------------------------------*/
FoamFile
{
    version     2.0;
    format      ascii;
    class       volScalarField;
    location    "200";
    object      T;
}
// * * * * * * * * * * * * * * * * * * * * * * * * * * * * * * * * * * * * * //

dimensions      [0 0 0 1 0 0 0];


internalField   nonuniform List<scalar> 
255960
(
370.846
370.87
370.771
370.692
370.691
370.593
370.653
370.628
370.651
370.668
370.648
370.687
370.629
370.718
370.628
370.686
370.637
370.657
370.846
370.87
370.771
370.692
370.691
370.592
370.653
370.628
370.651
370.668
370.648
370.687
370.629
370.718
370.628
370.686
370.637
370.657
370.846
370.87
370.771
370.692
370.691
370.592
370.653
370.628
370.651
370.668
370.648
370.687
370.629
370.718
370.628
370.686
370.637
370.657
370.846
370.87
370.771
370.692
370.691
370.592
370.653
370.628
370.651
370.668
370.648
370.687
370.629
370.718
370.628
370.686
370.637
370.657
370.846
370.87
370.771
370.692
370.691
370.592
370.653
370.628
370.651
370.668
370.648
370.687
370.629
370.718
370.628
370.686
370.637
370.657
368.962
368.946
368.538
368.479
368.321
368.296
368.306
368.324
368.332
368.364
368.363
368.353
368.346
368.351
368.344
368.349
368.341
368.343
368.962
368.946
368.538
368.479
368.321
368.295
368.306
368.324
368.332
368.364
368.363
368.353
368.346
368.351
368.344
368.349
368.341
368.343
368.961
368.946
368.537
368.478
368.321
368.295
368.305
368.324
368.332
368.364
368.363
368.352
368.346
368.351
368.344
368.349
368.341
368.343
368.961
368.945
368.537
368.478
368.321
368.295
368.305
368.323
368.332
368.364
368.363
368.352
368.346
368.351
368.343
368.348
368.341
368.343
368.961
368.945
368.537
368.478
368.321
368.295
368.305
368.323
368.332
368.364
368.363
368.352
368.346
368.351
368.343
368.348
368.341
368.343
366.242
366.215
365.541
365.444
365.398
365.144
365.16
365.189
365.202
365.254
365.253
365.235
365.225
365.236
365.221
365.228
365.217
365.219
366.242
366.215
365.541
365.444
365.398
365.144
365.16
365.188
365.202
365.254
365.252
365.235
365.225
365.236
365.221
365.228
365.217
365.219
366.242
366.215
365.541
365.444
365.397
365.144
365.16
365.188
365.202
365.254
365.252
365.234
365.225
365.236
365.221
365.228
365.216
365.219
366.241
366.215
365.541
365.444
365.397
365.144
365.16
365.188
365.202
365.254
365.252
365.234
365.224
365.236
365.221
365.228
365.216
365.219
366.241
366.215
365.541
365.444
365.397
365.144
365.159
365.188
365.202
365.253
365.252
365.234
365.224
365.236
365.221
365.228
365.216
365.219
363.521
363.483
362.564
362.433
362.084
362.031
362.051
362.089
362.107
362.175
362.173
362.148
362.136
362.15
362.13
362.139
362.124
362.127
363.521
363.483
362.564
362.433
362.084
362.031
362.051
362.089
362.107
362.175
362.173
362.148
362.136
362.15
362.13
362.139
362.124
362.127
363.521
363.483
362.564
362.432
362.084
362.031
362.051
362.088
362.107
362.174
362.173
362.148
362.136
362.15
362.13
362.139
362.124
362.127
363.521
363.483
362.564
362.432
362.084
362.03
362.051
362.088
362.106
362.174
362.173
362.148
362.136
362.15
362.13
362.139
362.124
362.127
363.521
363.483
362.564
362.432
362.084
362.03
362.051
362.088
362.106
362.174
362.173
362.148
362.136
362.15
362.13
362.139
362.124
362.127
360.88
360.832
359.709
359.551
359.472
359.079
359.102
359.151
359.172
359.249
359.248
359.216
359.203
359.217
359.196
359.205
359.187
359.191
360.88
360.832
359.708
359.551
359.472
359.079
359.102
359.151
359.172
359.249
359.248
359.216
359.203
359.217
359.195
359.205
359.187
359.191
360.88
360.832
359.708
359.551
359.472
359.079
359.102
359.151
359.171
359.249
359.248
359.216
359.203
359.217
359.195
359.205
359.187
359.19
360.88
360.832
359.708
359.551
359.472
359.078
359.101
359.15
359.171
359.249
359.247
359.216
359.203
359.217
359.195
359.205
359.187
359.19
360.88
360.831
359.708
359.55
359.472
359.078
359.101
359.15
359.171
359.249
359.247
359.216
359.203
359.217
359.195
359.205
359.187
359.19
358.461
358.403
357.139
356.967
356.882
356.471
356.496
356.563
356.585
356.664
356.662
356.627
356.613
356.627
356.603
356.613
356.594
356.597
358.46
358.402
357.139
356.967
356.532
356.47
356.496
356.563
356.585
356.664
356.662
356.627
356.613
356.627
356.603
356.613
356.594
356.597
358.46
358.402
357.139
356.967
356.532
356.47
356.496
356.562
356.585
356.664
356.662
356.627
356.613
356.627
356.603
356.613
356.593
356.597
358.46
358.402
357.139
356.967
356.882
356.47
356.496
356.562
356.585
356.664
356.662
356.627
356.612
356.627
356.603
356.612
356.593
356.597
358.46
358.402
357.139
356.966
356.532
356.47
356.496
356.562
356.585
356.664
356.662
356.626
356.612
356.627
356.603
356.612
356.593
356.597
356.403
356.338
355.014
354.84
354.426
354.365
354.395
354.485
354.508
354.583
354.579
354.542
354.527
354.543
354.515
354.526
354.505
354.509
356.403
356.338
355.014
354.84
354.426
354.365
354.395
354.485
354.508
354.583
354.579
354.542
354.526
354.543
354.515
354.526
354.505
354.509
356.403
356.338
355.014
354.84
354.425
354.365
354.395
354.485
354.508
354.583
354.579
354.542
354.526
354.543
354.515
354.526
354.505
354.509
356.403
356.338
355.014
354.839
354.425
354.365
354.395
354.485
354.508
354.582
354.579
354.542
354.526
354.543
354.515
354.526
354.505
354.509
356.403
356.338
355.014
354.839
354.425
354.365
354.395
354.485
354.508
354.582
354.579
354.542
354.526
354.543
354.515
354.526
354.505
354.509
354.773
354.706
353.397
353.227
353.158
352.804
352.839
352.952
352.976
353.042
353.036
353.001
352.982
353.003
352.969
352.983
352.959
352.964
354.773
354.706
353.397
353.227
353.158
352.804
352.839
352.952
352.976
353.042
353.036
353.001
352.982
353.003
352.969
352.983
352.959
352.964
354.773
354.706
353.397
353.227
353.158
352.804
352.839
352.952
352.976
353.042
353.036
353.001
352.982
353.003
352.969
352.983
352.959
352.964
354.773
354.706
353.397
353.227
352.862
352.804
352.839
352.952
352.976
353.041
353.036
353.001
352.982
353.003
352.969
352.983
352.959
352.964
354.773
354.706
353.397
353.227
353.158
352.804
352.839
352.952
352.976
353.041
353.036
353.001
352.982
353.003
352.969
352.983
352.959
352.964
353.549
353.482
352.233
352.073
352.016
351.708
351.746
351.878
351.902
351.958
351.951
351.918
351.897
351.921
351.882
351.898
351.872
351.878
353.549
353.482
352.233
352.073
352.016
351.708
351.746
351.878
351.902
351.958
351.951
351.918
351.897
351.921
351.882
351.898
351.872
351.878
353.549
353.482
352.233
352.072
352.016
351.708
351.746
351.878
351.902
351.958
351.951
351.918
351.897
351.921
351.882
351.898
351.872
351.878
353.549
353.482
352.233
352.072
351.763
351.708
351.746
351.878
351.901
351.958
351.951
351.918
351.897
351.921
351.882
351.898
351.872
351.878
353.549
353.482
352.233
352.072
351.763
351.708
351.746
351.878
351.901
351.958
351.951
351.918
351.897
351.921
351.882
351.898
351.872
351.878
352.653
352.588
351.416
351.264
351.002
350.949
350.99
351.134
351.157
351.205
351.197
351.167
351.144
351.171
351.129
351.147
351.119
351.125
352.653
352.588
351.416
351.264
351.002
350.949
350.99
351.134
351.157
351.205
351.197
351.167
351.144
351.171
351.129
351.147
351.119
351.125
352.653
352.588
351.416
351.264
351.002
350.949
350.99
351.134
351.157
351.205
351.197
351.167
351.144
351.171
351.129
351.147
351.119
351.125
352.653
352.587
351.415
351.264
351.002
350.949
350.99
351.134
351.157
351.205
351.197
351.167
351.144
351.171
351.129
351.147
351.119
351.125
352.653
352.587
351.415
351.264
351.002
350.949
350.99
351.134
351.157
351.205
351.197
351.167
351.144
351.171
351.129
351.146
351.119
351.125
351.999
351.936
350.838
350.696
350.657
350.418
350.46
350.611
350.633
350.674
350.666
350.638
350.615
350.643
350.599
350.618
350.59
350.596
351.999
351.936
350.838
350.696
350.657
350.418
350.46
350.611
350.633
350.674
350.666
350.638
350.615
350.643
350.599
350.618
350.59
350.596
351.999
351.936
350.838
350.696
350.657
350.418
350.46
350.611
350.633
350.674
350.666
350.638
350.615
350.643
350.599
350.618
350.59
350.596
351.999
351.936
350.838
350.696
350.657
350.418
350.46
350.611
350.633
350.674
350.666
350.638
350.615
350.643
350.599
350.618
350.59
350.596
351.999
351.936
350.838
350.696
350.657
350.418
350.46
350.611
350.633
350.674
350.666
350.638
350.615
350.629
350.599
350.618
350.59
350.596
351.515
351.455
350.422
350.288
350.254
350.035
350.077
350.232
350.253
350.29
350.281
350.255
350.232
350.26
350.217
350.235
350.208
350.214
351.515
351.455
350.422
350.288
350.254
350.035
350.077
350.232
350.253
350.29
350.281
350.255
350.232
350.26
350.217
350.235
350.208
350.214
351.515
351.455
350.422
350.288
350.254
350.035
350.077
350.231
350.253
350.29
350.281
350.255
350.232
350.26
350.217
350.235
350.207
350.214
351.515
351.455
350.422
350.288
350.254
350.035
350.077
350.231
350.253
350.29
350.281
350.255
350.232
350.26
350.217
350.235
350.207
350.214
351.515
351.454
350.422
350.288
350.254
350.035
350.077
350.231
350.253
350.29
350.281
350.255
350.232
350.26
350.217
350.235
350.207
350.214
351.149
351.091
350.114
349.986
349.798
349.75
349.791
349.947
349.969
350.001
349.992
349.969
349.946
349.974
349.931
349.95
349.923
349.929
351.149
351.091
350.114
349.986
349.798
349.75
349.791
349.947
349.969
350.001
349.992
349.969
349.946
349.974
349.931
349.95
349.923
349.929
351.149
351.091
350.114
349.986
349.798
349.75
349.791
349.947
349.969
350.001
349.992
349.969
349.946
349.974
349.931
349.95
349.923
349.929
351.149
351.091
350.114
349.986
349.798
349.75
349.791
349.947
349.969
350.001
349.992
349.969
349.946
349.974
349.931
349.95
349.923
349.929
351.149
351.091
350.114
349.986
349.798
349.75
349.791
349.947
349.969
350.001
349.992
349.969
349.946
349.974
349.931
349.95
349.923
349.929
350.866
350.81
349.879
349.758
349.577
349.53
349.57
349.727
349.747
349.778
349.769
349.749
349.725
349.754
349.712
349.731
349.704
349.711
350.866
350.81
349.879
349.758
349.577
349.53
349.57
349.727
349.747
349.778
349.769
349.748
349.725
349.754
349.712
349.731
349.704
349.711
350.866
350.81
349.879
349.758
349.577
349.53
349.57
349.727
349.747
349.778
349.769
349.748
349.725
349.754
349.712
349.731
349.704
349.711
350.866
350.81
349.879
349.758
349.577
349.53
349.57
349.727
349.747
349.778
349.769
349.748
349.725
349.754
349.712
349.731
349.704
349.711
350.866
350.81
349.879
349.758
349.577
349.53
349.57
349.727
349.747
349.778
349.769
349.748
349.725
349.754
349.712
349.731
349.704
349.711
350.641
350.587
349.696
349.579
349.403
349.356
349.395
349.55
349.57
349.6
349.591
349.573
349.551
349.579
349.538
349.556
349.531
349.538
350.641
350.587
349.696
349.579
349.403
349.356
349.395
349.55
349.57
349.6
349.591
349.573
349.551
349.579
349.538
349.556
349.531
349.538
350.641
350.587
349.696
349.579
349.403
349.356
349.395
349.55
349.57
349.6
349.591
349.573
349.551
349.579
349.538
349.556
349.531
349.538
350.641
350.587
349.696
349.579
349.403
349.356
349.395
349.55
349.57
349.6
349.591
349.573
349.551
349.579
349.538
349.556
349.531
349.538
350.641
350.587
349.696
349.579
349.403
349.356
349.395
349.55
349.57
349.6
349.591
349.573
349.551
349.579
349.538
349.556
349.531
349.538
350.46
350.408
349.55
349.437
349.262
349.215
349.253
349.406
349.426
349.454
349.446
349.43
349.409
349.436
349.397
349.415
349.391
349.398
350.46
350.408
349.55
349.437
349.262
349.215
349.253
349.406
349.426
349.454
349.446
349.43
349.409
349.436
349.397
349.415
349.391
349.398
350.46
350.408
349.55
349.437
349.262
349.215
349.253
349.406
349.426
349.454
349.446
349.43
349.409
349.436
349.397
349.415
349.391
349.398
350.46
350.408
349.55
349.437
349.262
349.215
349.253
349.406
349.426
349.454
349.446
349.43
349.409
349.436
349.397
349.415
349.391
349.398
350.31
350.259
349.431
349.323
349.146
349.1
349.137
349.287
349.306
349.333
349.325
349.312
349.291
349.318
349.281
349.299
349.276
349.282
350.31
350.259
349.431
349.323
349.146
349.1
349.137
349.287
349.306
349.333
349.325
349.312
349.291
349.318
349.281
349.299
349.276
349.282
350.309
350.259
349.431
349.323
349.146
349.1
349.137
349.287
349.306
349.333
349.325
349.312
349.291
349.318
349.281
349.299
349.276
349.282
350.309
350.259
349.431
349.323
349.146
349.1
349.137
349.287
349.306
349.333
349.325
349.312
349.291
349.318
349.281
349.299
349.276
349.282
350.309
350.259
349.431
349.323
349.146
349.1
349.137
349.287
349.306
349.333
349.325
349.312
349.291
349.318
349.281
349.299
349.276
349.282
350.184
350.135
349.333
349.228
349.05
349.004
349.04
349.186
349.205
349.232
349.224
349.213
349.193
349.22
349.184
349.201
349.18
349.186
350.184
350.135
349.333
349.228
349.05
349.004
349.04
349.186
349.205
349.232
349.224
349.213
349.193
349.22
349.184
349.201
349.18
349.186
350.184
350.135
349.333
349.228
349.201
349.004
349.04
349.186
349.205
349.232
349.224
349.213
349.193
349.22
349.184
349.201
349.18
349.186
350.184
350.135
349.333
349.228
349.201
349.004
349.04
349.186
349.205
349.232
349.224
349.213
349.193
349.22
349.184
349.201
349.18
349.186
350.184
350.135
349.333
349.228
349.05
349.004
349.04
349.186
349.205
349.232
349.224
349.213
349.193
349.22
349.184
349.201
349.18
349.186
350.076
350.03
349.251
349.149
348.968
348.923
348.957
349.099
349.118
349.144
349.137
349.129
349.109
349.135
349.102
349.119
349.098
349.104
350.076
350.03
349.251
349.149
348.968
348.923
348.957
349.099
349.118
349.144
349.137
349.129
349.109
349.135
349.102
349.119
349.098
349.104
350.076
350.03
349.251
349.149
348.968
348.923
348.957
349.099
349.118
349.144
349.137
349.129
349.109
349.135
349.102
349.119
349.098
349.104
350.076
350.03
349.251
349.149
348.968
348.923
348.957
349.099
349.118
349.144
349.137
349.129
349.109
349.135
349.102
349.119
349.098
349.104
350.076
350.03
349.251
349.149
348.968
348.923
348.957
349.099
349.118
349.144
349.137
349.129
349.109
349.135
349.102
349.119
349.098
349.104
349.984
349.938
349.182
349.083
349.055
348.854
348.887
349.025
349.043
349.069
349.062
349.056
349.037
349.063
349.031
349.048
349.028
349.034
349.984
349.938
349.182
349.083
349.055
348.854
348.887
349.025
349.043
349.069
349.062
349.056
349.037
349.063
349.031
349.048
349.028
349.034
349.984
349.938
349.182
349.083
349.055
348.854
348.887
349.025
349.043
349.069
349.062
349.056
349.037
349.063
349.031
349.048
349.028
349.034
349.984
349.938
349.182
349.083
349.055
348.854
348.887
349.025
349.043
349.069
349.062
349.056
349.037
349.063
349.031
349.048
349.028
349.034
349.984
349.938
349.182
349.083
349.055
348.854
348.887
349.025
349.043
349.069
349.062
349.056
349.037
349.063
349.031
349.048
349.028
349.034
349.902
349.859
349.122
349.026
348.839
348.795
348.826
348.959
348.977
349.003
348.996
348.993
348.975
348.999
348.969
348.985
348.968
348.973
349.902
349.859
349.122
349.026
348.839
348.795
348.826
348.959
348.977
349.003
348.996
348.993
348.975
348.999
348.969
348.985
348.968
348.973
349.902
349.859
349.122
349.026
348.839
348.795
348.826
348.959
348.977
349.003
348.996
348.993
348.975
348.999
348.969
348.985
348.968
348.973
349.902
349.859
349.122
349.026
348.839
348.795
348.826
348.959
348.977
349.003
348.996
348.993
348.975
348.999
348.969
348.985
348.968
348.973
349.902
349.859
349.122
349.026
348.839
348.795
348.826
348.959
348.977
349.003
348.996
348.993
348.975
348.999
348.969
348.985
348.968
348.973
349.83
349.788
349.071
348.977
348.787
348.743
348.773
348.902
348.918
348.944
348.937
348.936
348.919
348.943
348.915
348.93
348.914
348.919
349.83
349.788
349.071
348.977
348.787
348.743
348.773
348.902
348.918
348.944
348.937
348.936
348.919
348.943
348.915
348.93
348.914
348.919
349.83
349.788
349.071
348.977
348.787
348.743
348.773
348.902
348.918
348.944
348.937
348.936
348.919
348.943
348.915
348.93
348.914
348.919
349.83
349.788
349.071
348.977
348.787
348.743
348.773
348.902
348.918
348.944
348.937
348.936
348.919
348.943
348.915
348.93
348.914
348.919
349.83
349.788
349.071
348.977
348.787
348.743
348.773
348.902
348.918
348.944
348.937
348.936
348.919
348.943
348.915
348.93
348.914
348.919
349.765
349.724
349.025
348.934
348.905
348.697
348.725
348.849
348.866
348.891
348.885
348.885
348.869
348.892
348.865
348.881
348.865
348.87
349.765
349.724
349.025
348.934
348.905
348.697
348.725
348.849
348.866
348.891
348.885
348.885
348.869
348.892
348.865
348.881
348.865
348.87
349.765
349.724
349.025
348.934
348.905
348.697
348.725
348.849
348.866
348.891
348.885
348.885
348.869
348.892
348.865
348.881
348.865
348.87
349.765
349.724
349.025
348.934
348.905
348.697
348.725
348.849
348.866
348.891
348.885
348.885
348.869
348.892
348.865
348.881
348.865
348.87
349.765
349.724
349.025
348.934
348.905
348.697
348.725
348.849
348.866
348.891
348.885
348.885
348.869
348.892
348.865
348.881
348.865
348.87
349.705
349.665
348.984
348.895
348.865
348.655
348.682
348.801
348.817
348.842
348.836
348.839
348.823
348.843
348.821
348.835
348.821
348.826
349.705
349.665
348.984
348.895
348.865
348.655
348.682
348.801
348.817
348.842
348.836
348.839
348.823
348.843
348.821
348.835
348.821
348.826
349.705
349.665
348.984
348.895
348.865
348.655
348.682
348.801
348.817
348.842
348.836
348.839
348.823
348.843
348.82
348.835
348.821
348.826
349.705
349.665
348.984
348.895
348.865
348.655
348.682
348.801
348.817
348.842
348.836
348.839
348.823
348.843
348.82
348.835
348.821
348.826
349.705
349.665
348.984
348.895
348.865
348.655
348.682
348.801
348.817
348.842
348.836
348.839
348.823
348.843
348.821
348.835
348.821
348.826
349.649
349.611
348.946
348.86
348.66
348.618
348.643
348.757
348.772
348.797
348.792
348.795
348.78
348.802
348.779
348.794
348.78
348.785
349.649
349.611
348.946
348.86
348.66
348.618
348.643
348.757
348.772
348.797
348.791
348.795
348.78
348.802
348.779
348.794
348.78
348.785
349.649
349.611
348.946
348.86
348.66
348.618
348.643
348.757
348.772
348.797
348.791
348.795
348.78
348.802
348.779
348.794
348.78
348.785
349.649
349.611
348.946
348.86
348.66
348.618
348.643
348.757
348.772
348.797
348.791
348.795
348.78
348.802
348.779
348.794
348.78
348.785
349.649
349.611
348.946
348.86
348.66
348.618
348.643
348.757
348.772
348.797
348.791
348.795
348.78
348.802
348.779
348.794
348.78
348.785
349.597
349.561
348.912
348.828
348.797
348.583
348.607
348.716
348.731
348.755
348.749
348.755
348.741
348.761
348.74
348.754
348.742
348.747
349.597
349.561
348.912
348.828
348.625
348.583
348.607
348.716
348.731
348.755
348.749
348.755
348.741
348.762
348.74
348.754
348.742
348.747
349.597
349.561
348.912
348.828
348.797
348.583
348.607
348.716
348.731
348.755
348.749
348.755
348.741
348.762
348.74
348.754
348.742
348.747
349.597
349.561
348.912
348.828
348.797
348.583
348.607
348.716
348.731
348.755
348.749
348.755
348.741
348.762
348.74
348.754
348.742
348.747
349.597
349.561
348.912
348.828
348.625
348.583
348.607
348.716
348.731
348.755
348.749
348.755
348.741
348.762
348.74
348.754
348.742
348.747
349.548
349.513
348.879
348.797
348.592
348.55
348.573
348.676
348.69
348.715
348.709
348.716
348.703
348.723
348.703
348.717
348.706
348.71
349.548
349.513
348.879
348.797
348.592
348.55
348.573
348.676
348.69
348.715
348.709
348.716
348.703
348.723
348.703
348.717
348.706
348.71
349.548
349.513
348.879
348.797
348.592
348.55
348.573
348.676
348.69
348.714
348.709
348.716
348.703
348.723
348.703
348.717
348.706
348.71
349.548
349.513
348.879
348.797
348.592
348.55
348.573
348.676
348.69
348.714
348.709
348.716
348.703
348.723
348.703
348.717
348.706
348.71
349.548
349.513
348.879
348.797
348.592
348.55
348.573
348.676
348.69
348.714
348.709
348.716
348.703
348.723
348.703
348.717
348.706
348.71
349.501
349.467
348.849
348.768
348.737
348.519
348.54
348.639
348.652
348.676
348.671
348.679
348.666
348.686
348.668
348.681
348.671
348.675
349.501
349.467
348.849
348.768
348.737
348.519
348.54
348.639
348.652
348.676
348.671
348.679
348.666
348.686
348.668
348.681
348.671
348.675
349.501
349.467
348.849
348.768
348.56
348.519
348.54
348.639
348.652
348.676
348.671
348.679
348.666
348.686
348.668
348.681
348.671
348.675
349.501
349.467
348.849
348.768
348.737
348.519
348.54
348.639
348.652
348.676
348.671
348.679
348.666
348.686
348.668
348.681
348.671
348.675
349.501
349.467
348.849
348.768
348.56
348.519
348.54
348.639
348.652
348.676
348.671
348.679
348.666
348.686
348.668
348.681
348.671
348.675
349.455
349.423
348.819
348.741
348.529
348.489
348.509
348.602
348.615
348.638
348.634
348.643
348.631
348.652
348.634
348.646
348.637
348.642
349.455
349.423
348.819
348.741
348.529
348.489
348.509
348.602
348.615
348.638
348.633
348.643
348.631
348.652
348.634
348.646
348.637
348.642
349.455
349.423
348.819
348.741
348.529
348.489
348.509
348.602
348.615
348.638
348.633
348.643
348.631
348.652
348.634
348.646
348.637
348.642
349.455
349.423
348.819
348.741
348.529
348.489
348.509
348.602
348.615
348.638
348.633
348.643
348.631
348.652
348.634
348.646
348.637
348.642
349.455
349.423
348.819
348.741
348.529
348.489
348.509
348.602
348.615
348.638
348.633
348.643
348.631
348.652
348.634
348.646
348.637
348.642
349.411
349.379
348.79
348.713
348.681
348.46
348.479
348.566
348.579
348.601
348.597
348.608
348.597
348.618
348.6
348.613
348.605
348.609
349.411
349.379
348.79
348.713
348.681
348.46
348.479
348.566
348.579
348.601
348.597
348.608
348.597
348.618
348.6
348.613
348.605
348.609
349.411
349.379
348.79
348.713
348.681
348.46
348.479
348.566
348.579
348.601
348.597
348.608
348.597
348.618
348.6
348.613
348.605
348.609
349.411
349.379
348.79
348.713
348.5
348.46
348.479
348.566
348.579
348.601
348.597
348.608
348.597
348.618
348.6
348.613
348.605
348.609
349.411
349.379
348.79
348.713
348.681
348.46
348.479
348.566
348.579
348.601
348.597
348.608
348.597
348.618
348.6
348.613
348.605
348.609
349.367
349.337
348.761
348.687
348.471
348.431
348.449
348.531
348.543
348.565
348.561
348.574
348.563
348.581
348.567
348.579
348.572
348.577
349.367
349.337
348.761
348.687
348.471
348.431
348.449
348.531
348.543
348.565
348.561
348.574
348.563
348.581
348.567
348.579
348.572
348.577
349.367
349.337
348.761
348.687
348.471
348.431
348.449
348.531
348.543
348.565
348.561
348.574
348.563
348.581
348.567
348.579
348.572
348.577
349.367
349.337
348.761
348.687
348.471
348.431
348.449
348.531
348.543
348.565
348.561
348.574
348.563
348.581
348.567
348.579
348.572
348.577
349.367
349.337
348.761
348.687
348.471
348.431
348.449
348.531
348.543
348.565
348.561
348.574
348.563
348.581
348.567
348.579
348.572
348.577
349.324
349.295
348.733
348.66
348.442
348.403
348.419
348.496
348.508
348.529
348.526
348.539
348.529
348.546
348.534
348.546
348.54
348.544
349.324
349.295
348.733
348.66
348.442
348.402
348.419
348.496
348.508
348.529
348.526
348.539
348.529
348.546
348.534
348.546
348.54
348.544
349.324
349.295
348.733
348.66
348.442
348.402
348.419
348.496
348.508
348.529
348.526
348.539
348.529
348.546
348.534
348.546
348.54
348.544
349.324
349.295
348.733
348.66
348.442
348.402
348.419
348.496
348.508
348.529
348.526
348.539
348.529
348.546
348.534
348.546
348.54
348.544
349.324
349.295
348.733
348.66
348.442
348.402
348.419
348.496
348.508
348.529
348.526
348.539
348.529
348.546
348.534
348.546
348.54
348.544
349.282
349.254
348.704
348.633
348.601
348.374
348.39
348.462
348.473
348.494
348.49
348.505
348.495
348.512
348.502
348.513
348.508
348.512
349.282
349.254
348.704
348.633
348.601
348.374
348.39
348.462
348.473
348.494
348.49
348.505
348.495
348.512
348.502
348.513
348.508
348.512
349.282
349.254
348.704
348.633
348.601
348.374
348.39
348.462
348.473
348.494
348.49
348.505
348.495
348.512
348.502
348.513
348.508
348.512
349.282
349.254
348.704
348.633
348.601
348.374
348.39
348.462
348.473
348.494
348.49
348.505
348.495
348.512
348.502
348.513
348.508
348.512
349.282
349.254
348.704
348.633
348.601
348.374
348.39
348.462
348.473
348.494
348.49
348.505
348.495
348.512
348.502
348.513
348.508
348.512
349.239
349.212
348.676
348.607
348.574
348.346
348.361
348.427
348.438
348.458
348.455
348.471
348.461
348.478
348.469
348.48
348.475
348.479
349.239
349.212
348.676
348.607
348.574
348.346
348.361
348.427
348.438
348.458
348.455
348.471
348.461
348.478
348.469
348.48
348.475
348.479
349.239
349.212
348.676
348.607
348.574
348.346
348.361
348.427
348.438
348.458
348.455
348.471
348.461
348.478
348.469
348.48
348.475
348.479
349.239
349.212
348.676
348.607
348.574
348.346
348.361
348.427
348.438
348.458
348.455
348.471
348.461
348.478
348.469
348.48
348.475
348.479
349.239
349.212
348.676
348.607
348.574
348.346
348.361
348.427
348.438
348.458
348.455
348.471
348.461
348.478
348.469
348.48
348.475
348.479
349.197
349.171
348.647
348.579
348.356
348.318
348.331
348.392
348.402
348.422
348.419
348.436
348.427
348.443
348.436
348.446
348.443
348.446
349.197
349.171
348.647
348.579
348.546
348.318
348.331
348.392
348.402
348.422
348.419
348.436
348.427
348.443
348.436
348.446
348.443
348.446
349.197
349.171
348.647
348.579
348.546
348.318
348.331
348.392
348.402
348.422
348.419
348.436
348.427
348.443
348.436
348.446
348.443
348.446
349.197
349.171
348.647
348.579
348.546
348.318
348.331
348.392
348.402
348.422
348.419
348.436
348.427
348.443
348.436
348.446
348.443
348.446
349.197
349.171
348.647
348.579
348.546
348.318
348.331
348.392
348.402
348.422
348.419
348.436
348.427
348.443
348.436
348.446
348.443
348.446
349.154
349.129
348.618
348.552
348.327
348.289
348.302
348.357
348.367
348.386
348.383
348.401
348.393
348.408
348.402
348.412
348.409
348.413
349.154
349.129
348.618
348.552
348.327
348.289
348.302
348.357
348.367
348.386
348.383
348.401
348.392
348.408
348.402
348.412
348.409
348.413
349.154
349.129
348.618
348.552
348.327
348.289
348.302
348.357
348.367
348.386
348.383
348.401
348.392
348.408
348.402
348.412
348.409
348.413
349.154
349.129
348.618
348.552
348.327
348.289
348.302
348.357
348.367
348.386
348.383
348.401
348.392
348.408
348.402
348.412
348.409
348.413
349.154
349.129
348.618
348.552
348.327
348.289
348.302
348.357
348.367
348.386
348.383
348.401
348.392
348.408
348.402
348.412
348.409
348.413
349.111
349.087
348.588
348.524
348.491
348.26
348.272
348.322
348.331
348.349
348.347
348.365
348.357
348.372
348.367
348.377
348.375
348.379
349.111
349.087
348.588
348.524
348.49
348.26
348.272
348.322
348.331
348.349
348.347
348.365
348.357
348.372
348.367
348.377
348.375
348.379
349.111
349.087
348.588
348.524
348.49
348.26
348.272
348.321
348.331
348.349
348.347
348.365
348.357
348.372
348.367
348.377
348.375
348.379
349.111
349.087
348.588
348.524
348.49
348.26
348.272
348.321
348.331
348.349
348.347
348.365
348.357
348.372
348.367
348.377
348.375
348.379
349.111
349.087
348.588
348.524
348.49
348.26
348.272
348.321
348.331
348.349
348.347
348.365
348.357
348.372
348.367
348.377
348.375
348.379
349.068
349.045
348.558
348.495
348.268
348.231
348.241
348.286
348.295
348.313
348.31
348.329
348.322
348.336
348.332
348.342
348.341
348.344
349.068
349.045
348.558
348.495
348.268
348.231
348.241
348.286
348.295
348.313
348.31
348.329
348.322
348.336
348.332
348.342
348.341
348.344
349.068
349.045
348.558
348.495
348.268
348.231
348.241
348.286
348.295
348.313
348.31
348.329
348.322
348.336
348.332
348.342
348.341
348.344
349.068
349.045
348.558
348.495
348.268
348.231
348.241
348.286
348.295
348.313
348.31
348.329
348.322
348.336
348.332
348.342
348.341
348.344
349.068
349.045
348.558
348.495
348.268
348.231
348.241
348.286
348.295
348.313
348.31
348.329
348.322
348.336
348.332
348.342
348.341
348.344
349.025
349.003
348.527
348.466
348.433
348.201
348.211
348.25
348.258
348.275
348.273
348.293
348.286
348.3
348.296
348.306
348.305
348.309
349.025
349.003
348.527
348.466
348.433
348.201
348.211
348.25
348.258
348.275
348.273
348.293
348.286
348.3
348.296
348.306
348.305
348.309
349.025
349.003
348.527
348.466
348.433
348.201
348.211
348.25
348.258
348.275
348.273
348.293
348.286
348.308
348.296
348.306
348.305
348.309
349.025
349.003
348.527
348.466
348.237
348.201
348.21
348.25
348.258
348.275
348.273
348.293
348.286
348.308
348.296
348.306
348.305
348.309
349.025
349.003
348.527
348.466
348.433
348.201
348.211
348.25
348.258
348.275
348.273
348.293
348.286
348.3
348.296
348.306
348.305
348.309
348.981
348.96
348.496
348.436
348.403
348.171
348.179
348.213
348.221
348.237
348.235
348.255
348.249
348.271
348.26
348.269
348.269
348.273
348.981
348.96
348.496
348.436
348.403
348.171
348.179
348.213
348.221
348.237
348.235
348.255
348.249
348.271
348.26
348.269
348.269
348.273
348.981
348.96
348.496
348.436
348.403
348.171
348.179
348.213
348.221
348.237
348.235
348.255
348.249
348.271
348.26
348.269
348.269
348.273
348.981
348.96
348.496
348.436
348.403
348.171
348.179
348.213
348.221
348.237
348.235
348.255
348.249
348.271
348.26
348.269
348.269
348.273
348.981
348.96
348.496
348.436
348.403
348.171
348.179
348.213
348.221
348.237
348.235
348.255
348.249
348.271
348.26
348.269
348.269
348.273
348.937
348.916
348.464
348.406
348.175
348.14
348.147
348.176
348.183
348.199
348.197
348.218
348.211
348.225
348.224
348.232
348.233
348.236
348.937
348.916
348.464
348.406
348.175
348.14
348.147
348.176
348.183
348.199
348.197
348.218
348.211
348.225
348.224
348.232
348.233
348.236
348.937
348.916
348.464
348.406
348.175
348.14
348.147
348.176
348.183
348.198
348.197
348.218
348.211
348.225
348.224
348.232
348.233
348.236
348.937
348.916
348.464
348.406
348.175
348.14
348.147
348.176
348.183
348.198
348.197
348.218
348.211
348.225
348.224
348.232
348.233
348.236
348.937
348.916
348.464
348.406
348.175
348.14
348.147
348.176
348.183
348.198
348.197
348.218
348.211
348.225
348.224
348.232
348.233
348.236
348.892
348.872
348.431
348.375
348.144
348.109
348.115
348.138
348.145