0 	0 	0 	0
5.01672e-05 	-2.27492e-05 	-4.57278e-06 	0.0203622
0.000100334 	-4.54985e-05 	-9.14555e-06 	0.0407243
0.000150502 	-6.82477e-05 	-1.37183e-05 	0.0610865
0.000200669 	-9.0997e-05 	-1.82911e-05 	0.0814487
0.000250836 	-0.000113746 	-2.28639e-05 	0.101811
0.000301003 	-0.000136495 	-2.74367e-05 	0.122173
0.000351171 	-0.000157127 	-3.2727e-05 	0.140423
0.000401338 	-0.000169753 	-4.07309e-05 	0.150683
0.000451505 	-0.000182378 	-4.87349e-05 	0.160943
0.000501672 	-0.000195003 	-5.67388e-05 	0.171204
0.000551839 	-0.000207628 	-6.47428e-05 	0.181464
0.000602007 	-0.000220253 	-7.27467e-05 	0.191724
0.000652174 	-0.000232879 	-8.07506e-05 	0.201985
0.000702341 	-0.000245504 	-8.87546e-05 	0.212245
0.000752508 	-0.00025532 	-9.69804e-05 	0.221078
0.000802676 	-0.00025817 	-0.000105756 	0.226374
0.000852843 	-0.00026102 	-0.000114532 	0.23167
0.00090301 	-0.000263869 	-0.000123308 	0.236965
0.000953177 	-0.000266719 	-0.000132085 	0.242261
0.00100334 	-0.000269569 	-0.000140861 	0.247557
0.00105351 	-0.000272419 	-0.000149637 	0.252852
0.00110368 	-0.000275269 	-0.000158413 	0.258148
0.00115385 	-0.000278119 	-0.000167189 	0.263444
0.00120401 	-0.000280767 	-0.000175921 	0.268634
0.00125418 	-0.000279273 	-0.000183762 	0.271656
0.00130435 	-0.000277779 	-0.000191604 	0.274678
0.00135452 	-0.000276284 	-0.000199445 	0.2777
0.00140468 	-0.00027479 	-0.000207286 	0.280722
0.00145485 	-0.000273296 	-0.000215127 	0.283744
0.00150502 	-0.000271801 	-0.000222968 	0.286766
0.00155518 	-0.000270307 	-0.000230809 	0.289788
0.00160535 	-0.000268813 	-0.000238651 	0.29281
0.00165552 	-0.000267319 	-0.000246492 	0.295832
0.00170569 	-0.000265824 	-0.000254333 	0.298855
0.00175585 	-0.000264074 	-0.000261761 	0.301587
0.00180602 	-0.000261618 	-0.000268053 	0.303524
0.00185619 	-0.000259163 	-0.000274345 	0.30546
0.00190635 	-0.000256708 	-0.000280637 	0.307396
0.00195652 	-0.000254252 	-0.000286929 	0.309333
0.00200669 	-0.000251797 	-0.000293222 	0.311269
0.00205686 	-0.000249342 	-0.000299514 	0.313206
0.00210702 	-0.000246886 	-0.000305806 	0.315142
0.00215719 	-0.000244431 	-0.000312098 	0.317078
0.00220736 	-0.000241976 	-0.00031839 	0.319015
0.00225753 	-0.00023952 	-0.000324682 	0.320951
0.00230769 	-0.000237065 	-0.000330974 	0.322887
0.00235786 	-0.000234609 	-0.000337266 	0.324824
0.00240803 	-0.000232403 	-0.000342378 	0.326326
0.00245819 	-0.000230309 	-0.000346964 	0.327634
0.00250836 	-0.000228214 	-0.000351549 	0.328942
0.00255853 	-0.000226119 	-0.000356135 	0.330251
0.0026087 	-0.000224024 	-0.00036072 	0.331559
0.00265886 	-0.000221929 	-0.000365306 	0.332867
0.00270903 	-0.000219834 	-0.000369891 	0.334175
0.0027592 	-0.000217739 	-0.000374477 	0.335483
0.00280936 	-0.000215644 	-0.000379062 	0.336792
0.00285953 	-0.000213549 	-0.000383648 	0.3381
0.0029097 	-0.000211454 	-0.000388233 	0.339408
0.00295987 	-0.00020936 	-0.000392819 	0.340716
0.00301003 	-0.000207265 	-0.000397404 	0.342025
0.0030602 	-0.00020517 	-0.00040199 	0.343333
0.00311037 	-0.000203089 	-0.000406545 	0.344632
0.00316054 	-0.000201628 	-0.000409775 	0.345509
0.0032107 	-0.000200167 	-0.000413005 	0.346387
0.00326087 	-0.000198707 	-0.000416236 	0.347265
0.00331104 	-0.000197246 	-0.000419466 	0.348143
0.0033612 	-0.000195785 	-0.000422697 	0.349021
0.00341137 	-0.000194324 	-0.000425927 	0.349899
0.00346154 	-0.000192863 	-0.000429157 	0.350777
0.00351171 	-0.000191402 	-0.000432388 	0.351655
0.00356187 	-0.000189941 	-0.000435618 	0.352533
0.00361204 	-0.00018848 	-0.000438849 	0.353411
0.00366221 	-0.00018702 	-0.000442079 	0.354289
0.00371237 	-0.000185559 	-0.000445309 	0.355167
0.00376254 	-0.000184098 	-0.00044854 	0.356045
0.00381271 	-0.000182637 	-0.00045177 	0.356923
0.00386288 	-0.000181176 	-0.000455001 	0.357801
0.00391304 	-0.000179715 	-0.000458231 	0.358679
0.00396321 	-0.000178254 	-0.000461462 	0.359557
0.00401338 	-0.000177204 	-0.000463846 	0.360136
0.00406355 	-0.000176195 	-0.000466146 	0.360686
0.00411371 	-0.000175185 	-0.000468447 	0.361235
0.00416388 	-0.000174176 	-0.000470748 	0.361785
0.00421405 	-0.000173166 	-0.000473049 	0.362334
0.00426421 	-0.000172157 	-0.00047535 	0.362884
0.00431438 	-0.000171147 	-0.000477651 	0.363434
0.00436455 	-0.000170138 	-0.000479952 	0.363983
0.00441472 	-0.000169128 	-0.000482253 	0.364533
0.00446488 	-0.000168119 	-0.000484554 	0.365082
0.00451505 	-0.000167109 	-0.000486855 	0.365632
0.00456522 	-0.0001661 	-0.000489156 	0.366181
0.00461538 	-0.00016509 	-0.000491457 	0.366731
0.00466555 	-0.000164081 	-0.000493758 	0.367281
0.00471572 	-0.000163071 	-0.000496058 	0.36783
0.00476589 	-0.000162062 	-0.000498359 	0.36838
0.00481605 	-0.000161052 	-0.00050066 	0.368929
0.00486622 	-0.000160043 	-0.000502961 	0.369479
0.00491639 	-0.000159033 	-0.000505262 	0.370029
0.00496656 	-0.000158024 	-0.000507563 	0.370578
0.00501672 	-0.000157224 	-0.000509141 	0.370878
0.00506689 	-0.000156435 	-0.00051068 	0.371164
0.00511706 	-0.000155646 	-0.000512219 	0.37145
0.00516722 	-0.000154857 	-0.000513758 	0.371736
0.00521739 	-0.000154068 	-0.000515297 	0.372022
0.00526756 	-0.000153279 	-0.000516836 	0.372309
0.00531773 	-0.00015249 	-0.000518374 	0.372595
0.00536789 	-0.000151701 	-0.000519913 	0.372881
0.00541806 	-0.000150912 	-0.000521452 	0.373167
0.00546823 	-0.000150123 	-0.000522991 	0.373453
0.00551839 	-0.000149334 	-0.00052453 	0.37374
0.00556856 	-0.000148545 	-0.000526069 	0.374026
0.00561873 	-0.000147756 	-0.000527608 	0.374312
0.0056689 	-0.000146967 	-0.000529147 	0.374598
0.00571906 	-0.000146178 	-0.000530686 	0.374884
0.00576923 	-0.000145389 	-0.000532225 	0.37517
0.0058194 	-0.0001446 	-0.000533764 	0.375457
0.00586957 	-0.000143811 	-0.000535303 	0.375743
0.00591973 	-0.000143022 	-0.000536842 	0.376029
0.0059699 	-0.000142233 	-0.000538381 	0.376315
0.00602007 	-0.000141444 	-0.00053992 	0.376601
0.00607023 	-0.000140655 	-0.000541459 	0.376888
0.0061204 	-0.000139866 	-0.000542998 	0.377174
0.00617057 	-0.000139175 	-0.000544017 	0.377314
0.00622074 	-0.000138534 	-0.000544772 	0.377379
0.0062709 	-0.000137892 	-0.000545528 	0.377445
0.00632107 	-0.000137251 	-0.000546283 	0.377511
0.00637124 	-0.00013661 	-0.000547039 	0.377576
0.0064214 	-0.000135969 	-0.000547794 	0.377642
0.00647157 	-0.000135328 	-0.00054855 	0.377708
0.00652174 	-0.000134687 	-0.000549305 	0.377774
0.00657191 	-0.000134045 	-0.000550061 	0.377839
0.00662207 	-0.000133404 	-0.000550816 	0.377905
0.00667224 	-0.000132763 	-0.000551572 	0.377971
0.00672241 	-0.000132122 	-0.000552327 	0.378036
0.00677258 	-0.000131481 	-0.000553083 	0.378102
0.00682274 	-0.00013084 	-0.000553838 	0.378168
0.00687291 	-0.000130198 	-0.000554594 	0.378234
0.00692308 	-0.000129557 	-0.000555349 	0.378299
0.00697324 	-0.000128916 	-0.000556105 	0.378365
0.00702341 	-0.000128275 	-0.00055686 	0.378431
0.00707358 	-0.000127634 	-0.000557616 	0.378496
0.00712375 	-0.000126993 	-0.000558371 	0.378562
0.00717391 	-0.000126351 	-0.000559127 	0.378628
0.00722408 	-0.00012571 	-0.000559882 	0.378693
0.00727425 	-0.000125069 	-0.000560638 	0.378759
0.00732441 	-0.000124428 	-0.000561393 	0.378825
0.00737458 	-0.000123787 	-0.000562149 	0.378891
0.00742475 	-0.000123146 	-0.000562904 	0.378956
0.00747492 	-0.000122505 	-0.00056366 	0.379022
0.00752508 	-0.000121921 	-0.000564026 	0.378988
0.00757525 	-0.000121396 	-0.000564003 	0.378856
0.00762542 	-0.00012087 	-0.00056398 	0.378723
0.00767559 	-0.000120345 	-0.000563957 	0.37859
0.00772575 	-0.00011982 	-0.000563934 	0.378458
0.00777592 	-0.000119294 	-0.000563911 	0.378325
0.00782609 	-0.000118769 	-0.000563888 	0.378192
0.00787625 	-0.000118243 	-0.000563865 	0.378059
0.00792642 	-0.000117718 	-0.000563841 	0.377927
0.00797659 	-0.000117193 	-0.000563818 	0.377794
0.00802676 	-0.000116667 	-0.000563795 	0.377661
0.00807692 	-0.000116142 	-0.000563772 	0.377529
0.00812709 	-0.000115616 	-0.000563749 	0.377396
0.00817726 	-0.000115091 	-0.000563726 	0.377263
0.00822742 	-0.000114566 	-0.000563703 	0.37713
0.00827759 	-0.00011404 	-0.00056368 	0.376998
0.00832776 	-0.000113515 	-0.000563657 	0.376865
0.00837793 	-0.000112989 	-0.000563634 	0.376732
0.00842809 	-0.000112464 	-0.000563611 	0.3766
0.00847826 	-0.000111939 	-0.000563588 	0.376467
0.00852843 	-0.000111413 	-0.000563565 	0.376334
0.0085786 	-0.000110888 	-0.000563542 	0.376201
0.00862876 	-0.000110362 	-0.000563519 	0.376069
0.00867893 	-0.000109837 	-0.000563496 	0.375936
0.0087291 	-0.000109312 	-0.000563473 	0.375803
0.00877926 	-0.000108786 	-0.00056345 	0.375671
0.00882943 	-0.000108261 	-0.000563427 	0.375538
0.0088796 	-0.00010779 	-0.000563083 	0.375324
0.00892977 	-0.000107427 	-0.000562106 	0.374951
0.00897993 	-0.000107063 	-0.00056113 	0.374578
0.0090301 	-0.0001067 	-0.000560154 	0.374205
0.00908027 	-0.000106336 	-0.000559177 	0.373831
0.00913043 	-0.000105973 	-0.000558201 	0.373458
0.0091806 	-0.00010561 	-0.000557225 	0.373085
0.00923077 	-0.000105246 	-0.000556248 	0.372712
0.00928094 	-0.000104883 	-0.000555272 	0.372338
0.0093311 	-0.00010452 	-0.000554295 	0.371965
0.00938127 	-0.000104156 	-0.000553319 	0.371592
0.00943144 	-0.000103793 	-0.000552343 	0.371219
0.00948161 	-0.00010343 	-0.000551366 	0.370846
0.00953177 	-0.000103066 	-0.00055039 	0.370472
0.00958194 	-0.000102703 	-0.000549414 	0.370099
0.00963211 	-0.00010234 	-0.000548437 	0.369726
0.00968227 	-0.000101976 	-0.000547461 	0.369353
0.00973244 	-0.000101613 	-0.000546485 	0.36898
0.00978261 	-0.00010125 	-0.000545508 	0.368606
0.00983278 	-0.000100886 	-0.000544532 	0.368233
0.00988294 	-0.000100523 	-0.000543556 	0.36786
0.00993311 	-0.00010016 	-0.000542579 	0.367487
0.00998328 	-9.97962e-05 	-0.000541603 	0.367113
0.0100334 	-9.94508e-05 	-0.00054057 	0.366726
0.0100836 	-9.94407e-05 	-0.000538488 	0.366068
0.0101338 	-9.94306e-05 	-0.000536406 	0.365411
0.0101839 	-9.94205e-05 	-0.000534325 	0.364753
0.0102341 	-9.94104e-05 	-0.000532243 	0.364095
0.0102843 	-9.94003e-05 	-0.000530161 	0.363438
0.0103344 	-9.93902e-05 	-0.000528079 	0.36278
0.0103846 	-9.93801e-05 	-0.000525997 	0.362123
0.0104348 	-9.937e-05 	-0.000523915 	0.361465
0.0104849 	-9.93599e-05 	-0.000521833 	0.360808
0.0105351 	-9.93498e-05 	-0.000519751 	0.36015
0.0105853 	-9.93397e-05 	-0.00051767 	0.359492
0.0106355 	-9.93296e-05 	-0.000515588 	0.358835
0.0106856 	-9.93195e-05 	-0.000513506 	0.358177
0.0107358 	-9.93094e-05 	-0.000511424 	0.35752
0.010786 	-9.92993e-05 	-0.000509342 	0.356862
0.0108361 	-9.92891e-05 	-0.00050726 	0.356204
0.0108863 	-9.9279e-05 	-0.000505178 	0.355547
0.0109365 	-9.92689e-05 	-0.000503096 	0.354889
0.0109866 	-9.92588e-05 	-0.000501015 	0.354232
0.0110368 	-9.93055e-05 	-0.000498791 	0.353541
0.011087 	-9.99311e-05 	-0.000495119 	0.352515
0.0111371 	-0.000100557 	-0.000491448 	0.35149
0.0111873 	-0.000101182 	-0.000487776 	0.350464
0.0112375 	-0.000101808 	-0.000484105 	0.349438
0.0112876 	-0.000102433 	-0.000480433 	0.348412
0.0113378 	-0.000103059 	-0.000476762 	0.347386
0.011388 	-0.000103684 	-0.000473091 	0.346361
0.0114381 	-0.00010431 	-0.000469419 	0.345335
0.0114883 	-0.000104936 	-0.000465748 	0.344309
0.0115385 	-0.000105561 	-0.000462076 	0.343283
0.0115886 	-0.000106187 	-0.000458405 	0.342258
0.0116388 	-0.000106812 	-0.000454733 	0.341232
0.011689 	-0.000107438 	-0.000451062 	0.340206
0.0117391 	-0.000108063 	-0.000447391 	0.33918
0.0117893 	-0.000108689 	-0.000443719 	0.338154
0.0118395 	-0.000109314 	-0.000440048 	0.337129
0.0118896 	-0.00010994 	-0.000436376 	0.336103
0.0119398 	-0.000111465 	-0.000430225 	0.334538
0.01199 	-0.000113012 	-0.000424017 	0.332961
0.0120401 	-0.000114558 	-0.000417809 	0.331385
0.0120903 	-0.000116104 	-0.000411601 	0.329808
0.0121405 	-0.00011765 	-0.000405392 	0.328231
0.0121906 	-0.000119196 	-0.000399184 	0.326654
0.0122408 	-0.000120742 	-0.000392976 	0.325077
0.012291 	-0.000122289 	-0.000386768 	0.3235
0.0123411 	-0.000123835 	-0.000380559 	0.321923
0.0123913 	-0.000125381 	-0.000374351 	0.320346
0.0124415 	-0.000126927 	-0.000368143 	0.31877
0.0124916 	-0.000128473 	-0.000361935 	0.317193
0.0125418 	-0.00013002 	-0.000355726 	0.315616
0.012592 	-0.000131566 	-0.000349518 	0.314039
0.0126421 	-0.00013337 	-0.000342351 	0.312177
0.0126923 	-0.000135753 	-0.000333033 	0.309676
0.0127425 	-0.000138136 	-0.000323714 	0.307175
0.0127926 	-0.000140519 	-0.000314396 	0.304674
0.0128428 	-0.000142902 	-0.000305078 	0.302173
0.012893 	-0.000145285 	-0.00029576 	0.299672
0.0129431 	-0.000147668 	-0.000286441 	0.297171
0.0129933 	-0.000150051 	-0.000277123 	0.29467
0.0130435 	-0.000152434 	-0.000267805 	0.292169
0.0130936 	-0.000154817 	-0.000258487 	0.289668
0.0131438 	-0.000157201 	-0.000249168 	0.287167
0.013194 	-0.000159584 	-0.00023985 	0.284665
0.0132441 	-0.000161967 	-0.000230532 	0.282164
0.0132943 	-0.000164028 	-0.000219637 	0.278447
0.0133445 	-0.000165972 	-0.00020817 	0.274288
0.0133946 	-0.000167917 	-0.000196702 	0.270129
0.0134448 	-0.000169861 	-0.000185235 	0.26597
0.013495 	-0.000171806 	-0.000173767 	0.261811
0.0135452 	-0.00017375 	-0.0001623 	0.257652
0.0135953 	-0.000175695 	-0.000150832 	0.253493
0.0136455 	-0.000177639 	-0.000139365 	0.249334
0.0136957 	-0.000179584 	-0.000127897 	0.245175
0.0137458 	-0.000181528 	-0.00011643 	0.241016
0.013796 	-0.000183473 	-0.000104962 	0.236857
0.0138462 	-0.000181371 	-9.5176e-05 	0.229413
0.0138963 	-0.000179071 	-8.54719e-05 	0.221809
0.0139465 	-0.000176772 	-7.57678e-05 	0.214204
0.0139967 	-0.000174473 	-6.60637e-05 	0.2066
0.0140468 	-0.000172174 	-5.63596e-05 	0.198996
0.014097 	-0.000169874 	-4.66555e-05 	0.191392
0.0141472 	-0.000167575 	-3.69514e-05 	0.183788
0.0141973 	-0.000165276 	-2.72473e-05 	0.176184
0.0142475 	-0.000162977 	-1.75432e-05 	0.16858
0.0142977 	-0.000155235 	-1.2527e-05 	0.158056
0.0143478 	-0.000145298 	-9.40133e-06 	0.146353
0.014398 	-0.000135361 	-6.2757e-06 	0.134651
0.0144482 	-0.000125425 	-3.15008e-06 	0.122948
0.0144983 	-0.000115488 	-2.4449e-08 	0.111245
0.0145485 	-0.000105551 	3.10118e-06 	0.0995429
0.0145987 	-9.56147e-05 	6.22681e-06 	0.0878403
0.0146488 	-8.5678e-05 	9.35243e-06 	0.0761378
0.014699 	-7.38638e-05 	8.84081e-06 	0.0651084
0.0147492 	-6.15532e-05 	7.36734e-06 	0.054257
0.0147993 	-4.92426e-05 	5.89387e-06 	0.0434056
0.0148495 	-3.69319e-05 	4.4204e-06 	0.0325542
0.0148997 	-2.46213e-05 	2.94694e-06 	0.0217028
0.0149498 	-1.23106e-05 	1.47347e-06 	0.0108514
0.015 	0 	0 	0
