0 	0 	0 	0
0 	-2.76948e-36 	-1.72141e-36 	1.8614e-31
5.01672e-05 	-2.00304e-07 	-2.08753e-07 	0.017363
5.01672e-05 	-2.00304e-07 	-2.08753e-07 	0.017363
0.000100334 	2.92194e-08 	-8.3447e-07 	0.033391
0.000150502 	2.79351e-07 	-1.91232e-06 	0.0482458
0.000150502 	2.79351e-07 	-1.91232e-06 	0.0482458
0.000200669 	4.48897e-07 	-3.44557e-06 	0.0620157
0.000200669 	4.48897e-07 	-3.44557e-06 	0.0620157
0.000250836 	5.8593e-07 	-5.40925e-06 	0.0747842
0.000301003 	7.24324e-07 	-7.79295e-06 	0.0866226
0.000301003 	7.24324e-07 	-7.79295e-06 	0.0866226
0.000351171 	8.71949e-07 	-1.05871e-05 	0.09758
0.000401338 	1.02781e-06 	-1.37948e-05 	0.107682
0.000451505 	1.18869e-06 	-1.74365e-05 	0.116947
0.000451505 	1.18869e-06 	-1.74365e-05 	0.116947
0.000501672 	1.35189e-06 	-2.15463e-05 	0.125401
0.000551839 	1.51588e-06 	-2.61617e-05 	0.133091
0.000551839 	1.51588e-06 	-2.61617e-05 	0.133091
0.000602007 	1.68017e-06 	-3.13123e-05 	0.140075
0.000602007 	1.68017e-06 	-3.13123e-05 	0.140075
0.000652174 	1.84488e-06 	-3.70185e-05 	0.146425
0.000652174 	1.84488e-06 	-3.70185e-05 	0.146425
0.000702341 	2.01044e-06 	-4.32956e-05 	0.152211
0.000702341 	2.01044e-06 	-4.32956e-05 	0.152211
0.000752508 	2.17733e-06 	-5.01575e-05 	0.157501
0.000802676 	2.34603e-06 	-5.76178e-05 	0.162351
0.000852843 	2.51702e-06 	-6.57713e-05 	0.166755
0.000852843 	2.51702e-06 	-6.57713e-05 	0.166755
0.00090301 	2.68971e-06 	-7.44945e-05 	0.170822
0.00090301 	2.68971e-06 	-7.44945e-05 	0.170822
0.000953177 	2.86372e-06 	-8.37386e-05 	0.174593
0.00100334 	3.03879e-06 	-9.34527e-05 	0.178103
0.00100334 	3.03879e-06 	-9.34527e-05 	0.178103
0.00105351 	3.21472e-06 	-0.000103588 	0.181384
0.00105351 	3.21472e-06 	-0.000103588 	0.181384
0.00110368 	3.39137e-06 	-0.000114108 	0.18446
0.00115385 	3.56868e-06 	-0.000125055 	0.187307
0.00120401 	3.74625e-06 	-0.000136279 	0.190003
0.00120401 	3.74625e-06 	-0.000136279 	0.190003
0.00130435 	4.10152e-06 	-0.000159421 	0.195003
0.00130435 	4.10152e-06 	-0.000159421 	0.195003
0.00135452 	4.27884e-06 	-0.000171326 	0.197299
0.00135452 	4.27884e-06 	-0.000171326 	0.197299
0.00140468 	4.45566e-06 	-0.000183386 	0.199486
0.00145485 	4.63191e-06 	-0.000195551 	0.201589
0.00145485 	4.63191e-06 	-0.000195551 	0.201589
0.00150502 	4.80751e-06 	-0.000207803 	0.203615
0.00150502 	4.80751e-06 	-0.000207803 	0.203615
0.00155518 	4.98171e-06 	-0.000220139 	0.205533
0.00155518 	4.98171e-06 	-0.000220139 	0.205533
0.00160535 	5.15493e-06 	-0.000232493 	0.207391
0.00160535 	5.15493e-06 	-0.000232493 	0.207391
0.00165552 	5.32727e-06 	-0.000244852 	0.209196
0.00165552 	5.32727e-06 	-0.000244852 	0.209196
0.00170569 	5.49839e-06 	-0.000257184 	0.21093
0.00170569 	5.49839e-06 	-0.000257184 	0.21093
0.00175585 	5.66854e-06 	-0.000269442 	0.21261
0.00175585 	5.66854e-06 	-0.000269442 	0.21261
0.00180602 	5.83804e-06 	-0.000281632 	0.214251
0.00180602 	5.83804e-06 	-0.000281632 	0.214251
0.00185619 	6.00661e-06 	-0.000293692 	0.21584
0.00185619 	6.00661e-06 	-0.000293692 	0.21584
0.00190635 	6.17437e-06 	-0.000305587 	0.217384
0.00190635 	6.17437e-06 	-0.000305587 	0.217384
0.00195652 	6.34164e-06 	-0.000317364 	0.2189
0.00195652 	6.34164e-06 	-0.000317364 	0.2189
0.00200669 	6.50808e-06 	-0.0003289 	0.220368
0.00200669 	6.50808e-06 	-0.0003289 	0.220368
0.00205686 	6.67398e-06 	-0.000340224 	0.221805
0.00210702 	6.83954e-06 	-0.000351406 	0.22322
0.00210702 	6.83954e-06 	-0.000351406 	0.22322
0.00215719 	7.0044e-06 	-0.000362186 	0.224587
0.00220736 	7.16907e-06 	-0.000372791 	0.225936
0.00225753 	7.33342e-06 	-0.000383114 	0.227257
0.00225753 	7.33342e-06 	-0.000383114 	0.227257
0.00230769 	7.49756e-06 	-0.000393069 	0.228546
0.00230769 	7.49756e-06 	-0.000393069 	0.228546
0.00235786 	7.66162e-06 	-0.000402863 	0.229821
0.00235786 	7.66162e-06 	-0.000402863 	0.229821
0.00240803 	7.82563e-06 	-0.000412135 	0.231056
0.00240803 	7.82563e-06 	-0.000412135 	0.231056
0.00245819 	7.98972e-06 	-0.000421215 	0.232278
0.00245819 	7.98972e-06 	-0.000421215 	0.232278
0.00250836 	8.15396e-06 	-0.000429904 	0.233474
0.00250836 	8.15396e-06 	-0.000429904 	0.233474
0.00255853 	8.31852e-06 	-0.000438233 	0.234646
0.0026087 	8.4833e-06 	-0.000446308 	0.235802
0.0026087 	8.4833e-06 	-0.000446308 	0.235802
0.00265886 	8.64878e-06 	-0.000453864 	0.236926
0.00270903 	8.81441e-06 	-0.000461298 	0.238044
0.00270903 	8.81441e-06 	-0.000461298 	0.238044
0.0027592 	8.98122e-06 	-0.000468069 	0.239123
0.00280936 	9.14827e-06 	-0.000474732 	0.240196
0.00280936 	9.14827e-06 	-0.000474732 	0.240196
0.00285953 	9.31658e-06 	-0.000480822 	0.241237
0.00285953 	9.31658e-06 	-0.000480822 	0.241237
0.0029097 	9.48542e-06 	-0.000486716 	0.242267
0.0029097 	9.48542e-06 	-0.000486716 	0.242267
0.00295987 	9.65558e-06 	-0.000492119 	0.24327
0.00295987 	9.65558e-06 	-0.000492119 	0.24327
0.00301003 	9.82659e-06 	-0.000497266 	0.244259
0.0030602 	9.999e-06 	-0.00050199 	0.245224
0.00311037 	1.01726e-05 	-0.00050643 	0.246173
0.00311037 	1.01726e-05 	-0.00050643 	0.246173
0.00316054 	1.03477e-05 	-0.000510501 	0.247101
0.00316054 	1.03477e-05 	-0.000510501 	0.247101
0.00326087 	1.07028e-05 	-0.000517751 	0.248901
0.00326087 	1.07028e-05 	-0.000517751 	0.248901
0.00331104 	1.08829e-05 	-0.00052096 	0.249774
0.0033612 	1.10651e-05 	-0.000523858 	0.250626
0.0033612 	1.10651e-05 	-0.000523858 	0.250626
0.00341137 	1.12489e-05 	-0.000526556 	0.251463
0.00341137 	1.12489e-05 	-0.000526556 	0.251463
0.00346154 	1.1435e-05 	-0.000528952 	0.252277
0.00346154 	1.1435e-05 	-0.000528952 	0.252277
0.00351171 	1.16223e-05 	-0.00053121 	0.25308
0.00356187 	1.1812e-05 	-0.000533164 	0.253857
0.00356187 	1.1812e-05 	-0.000533164 	0.253857
0.00361204 	1.20025e-05 	-0.000535045 	0.254627
0.00366221 	1.21957e-05 	-0.000536613 	0.255369
0.00366221 	1.21957e-05 	-0.000536613 	0.255369
0.00371237 	1.23891e-05 	-0.000538172 	0.256109
0.00371237 	1.23891e-05 	-0.000538172 	0.256109
0.00376254 	1.2586e-05 	-0.000539403 	0.256818
0.00376254 	1.2586e-05 	-0.000539403 	0.256818
0.00381271 	1.27829e-05 	-0.000540634 	0.257527
0.00381271 	1.27829e-05 	-0.000540634 	0.257527
0.00386288 	1.29831e-05 	-0.000541618 	0.258209
0.00391304 	1.31841e-05 	-0.000542553 	0.258885
0.00391304 	1.31841e-05 	-0.000542553 	0.258885
0.00396321 	1.33874e-05 	-0.000543333 	0.259543
0.00401338 	1.35925e-05 	-0.000544006 	0.260187
0.00401338 	1.35925e-05 	-0.000544006 	0.260187
0.00406355 	1.37987e-05 	-0.000544609 	0.260822
0.00406355 	1.37987e-05 	-0.000544609 	0.260822
0.00411371 	1.40074e-05 	-0.000545057 	0.261434
0.00411371 	1.40074e-05 	-0.000545057 	0.261434
0.00421405 	1.44281e-05 	-0.000545767 	0.262626
0.00421405 	1.44281e-05 	-0.000545767 	0.262626
0.00426421 	1.464e-05 	-0.000546027 	0.263206
0.00426421 	1.464e-05 	-0.000546027 	0.263206
0.00431438 	1.48535e-05 	-0.000546191 	0.263765
0.00431438 	1.48535e-05 	-0.000546191 	0.263765
0.00436455 	1.50679e-05 	-0.0005463 	0.264312
0.00436455 	1.50679e-05 	-0.0005463 	0.264312
0.00441472 	1.52828e-05 	-0.000546383 	0.264852
0.00441472 	1.52828e-05 	-0.000546383 	0.264852
0.00446488 	1.5499e-05 	-0.000546379 	0.265367
0.00446488 	1.5499e-05 	-0.000546379 	0.265367
0.00451505 	1.57153e-05 	-0.000546374 	0.265882
0.00451505 	1.57153e-05 	-0.000546374 	0.265882
0.00456522 	1.59323e-05 	-0.00054631 	0.266371
0.00456522 	1.59323e-05 	-0.00054631 	0.266371
0.00461538 	1.61496e-05 	-0.000546229 	0.266853
0.00461538 	1.61496e-05 	-0.000546229 	0.266853
0.00466555 	1.63668e-05 	-0.000546136 	0.267325
0.00471572 	1.65841e-05 	-0.000546014 	0.267774
0.00476589 	1.68015e-05 	-0.000545892 	0.268224
0.00476589 	1.68015e-05 	-0.000545892 	0.268224
0.00486622 	1.72346e-05 	-0.000545633 	0.269064
0.00486622 	1.72346e-05 	-0.000545633 	0.269064
0.00491639 	1.74507e-05 	-0.000545507 	0.269475
0.00496656 	1.76653e-05 	-0.000545398 	0.269859
0.00496656 	1.76653e-05 	-0.000545398 	0.269859
0.00501672 	1.78799e-05 	-0.000545289 	0.270242
0.00506689 	1.80929e-05 	-0.000545205 	0.270608
0.00511706 	1.83046e-05 	-0.000545141 	0.270959
0.00511706 	1.83046e-05 	-0.000545141 	0.270959
0.00521739 	1.87243e-05 	-0.000545071 	0.271633
0.00521739 	1.87243e-05 	-0.000545071 	0.271633
0.00526756 	1.89319e-05 	-0.000545072 	0.271952
0.00526756 	1.89319e-05 	-0.000545072 	0.271952
0.00531773 	1.91387e-05 	-0.000545085 	0.272266
0.00536789 	1.93409e-05 	-0.000545164 	0.272553
0.00536789 	1.93409e-05 	-0.000545164 	0.272553
0.00541806 	1.95431e-05 	-0.000545242 	0.272839
0.00546823 	1.97428e-05 	-0.000545354 	0.273114
0.00551839 	1.99384e-05 	-0.000545517 	0.273369
0.00551839 	1.99384e-05 	-0.000545517 	0.273369
0.00556856 	2.01339e-05 	-0.00054568 	0.273625
0.00556856 	2.01339e-05 	-0.00054568 	0.273625
0.0056689 	2.05121e-05 	-0.00054614 	0.274087
0.0056689 	2.05121e-05 	-0.00054614 	0.274087
0.00571906 	2.06994e-05 	-0.000546388 	0.274311
0.00576923 	2.08799e-05 	-0.00054669 	0.274515
0.00576923 	2.08799e-05 	-0.00054669 	0.274515
0.0058194 	2.10572e-05 	-0.000547017 	0.274709
0.0058194 	2.10572e-05 	-0.000547017 	0.274709
0.00591973 	2.14029e-05 	-0.000547721 	0.275076
0.00591973 	2.14029e-05 	-0.000547721 	0.275076
0.0059699 	2.15684e-05 	-0.000548113 	0.275241
0.0059699 	2.15684e-05 	-0.000548113 	0.275241
0.00602007 	2.1734e-05 	-0.000548505 	0.275406
0.00607023 	2.18888e-05 	-0.000548935 	0.275549
0.0061204 	2.20408e-05 	-0.000549375 	0.275687
0.0061204 	2.20408e-05 	-0.000549375 	0.275687
0.00617057 	2.21928e-05 	-0.000549816 	0.275824
0.00622074 	2.23331e-05 	-0.000550276 	0.27594
0.00622074 	2.23331e-05 	-0.000550276 	0.27594
0.0062709 	2.24697e-05 	-0.000550743 	0.276051
0.00632107 	2.26063e-05 	-0.00055121 	0.276161
0.00632107 	2.26063e-05 	-0.00055121 	0.276161
0.00637124 	2.27311e-05 	-0.00055168 	0.276253
0.00637124 	2.27311e-05 	-0.00055168 	0.276253
0.0064214 	2.28503e-05 	-0.000552152 	0.276337
0.0064214 	2.28503e-05 	-0.000552152 	0.276337
0.00647157 	2.29696e-05 	-0.000552623 	0.276421
0.00647157 	2.29696e-05 	-0.000552623 	0.276421
0.00652174 	2.30781e-05 	-0.000553091 	0.276492
0.00657191 	2.31777e-05 	-0.000553555 	0.27655
0.00657191 	2.31777e-05 	-0.000553555 	0.27655
0.00662207 	2.32772e-05 	-0.000554019 	0.276609
0.00667224 	2.33689e-05 	-0.000554471 	0.276659
0.00672241 	2.34459e-05 	-0.000554901 	0.276693
0.00672241 	2.34459e-05 	-0.000554901 	0.276693
0.00677258 	2.35229e-05 	-0.00055533 	0.276726
0.00682274 	2.35973e-05 	-0.000555753 	0.276758
0.00682274 	2.35973e-05 	-0.000555753 	0.276758
0.00687291 	2.36487e-05 	-0.000556119 	0.276767
0.00687291 	2.36487e-05 	-0.000556119 	0.276767
0.00692308 	2.37e-05 	-0.000556484 	0.276776
0.00697324 	2.37513e-05 	-0.000556849 	0.276785
0.00702341 	2.37796e-05 	-0.000557161 	0.276776
0.00707358 	2.38018e-05 	-0.000557459 	0.276761
0.00707358 	2.38018e-05 	-0.000557459 	0.276761
0.00717391 	2.3833e-05 	-0.000558009 	0.276721
0.00717391 	2.3833e-05 	-0.000558009 	0.276721
0.00722408 	2.38236e-05 	-0.000558198 	0.276682
0.00722408 	2.38236e-05 	-0.000558198 	0.276682
0.00727425 	2.38143e-05 	-0.000558386 	0.276643
0.00727425 	2.38143e-05 	-0.000558386 	0.276643
0.00732441 	2.38049e-05 	-0.000558574 	0.276604
0.00732441 	2.38049e-05 	-0.000558574 	0.276604
0.00737458 	2.37633e-05 	-0.000558654 	0.276541
0.00737458 	2.37633e-05 	-0.000558654 	0.276541
0.00742475 	2.37214e-05 	-0.000558733 	0.276479
0.00747492 	2.36794e-05 	-0.000558812 	0.276416
0.00752508 	2.36209e-05 	-0.000558843 	0.276341
0.00752508 	2.36209e-05 	-0.000558843 	0.276341
0.00757525 	2.35458e-05 	-0.000558828 	0.276255
0.00762542 	2.34707e-05 	-0.000558813 	0.276168
0.00767559 	2.33953e-05 	-0.000558796 	0.276081
0.00767559 	2.33953e-05 	-0.000558796 	0.276081
0.00772575 	2.32878e-05 	-0.000558651 	0.275971
0.00777592 	2.31804e-05 	-0.000558506 	0.27586
0.00777592 	2.31804e-05 	-0.000558506 	0.27586
0.00782609 	2.3073e-05 	-0.000558361 	0.27575
0.00787625 	2.29483e-05 	-0.000558152 	0.275626
0.00787625 	2.29483e-05 	-0.000558152 	0.275626
0.00792642 	2.28111e-05 	-0.000557896 	0.275492
0.00797659 	2.2674e-05 	-0.00055764 	0.275358
0.00802676 	2.25311e-05 	-0.00055736 	0.27522
0.00802676 	2.25311e-05 	-0.00055736 	0.27522
0.00807692 	2.23671e-05 	-0.000556987 	0.275063
0.00807692 	2.23671e-05 	-0.000556987 	0.275063
0.00812709 	2.2203e-05 	-0.000556615 	0.274906
0.00817726 	2.2039e-05 	-0.000556242 	0.274749
0.00817726 	2.2039e-05 	-0.000556242 	0.274749
0.00822742 	2.18543e-05 	-0.000555743 	0.274572
0.00827759 	2.16673e-05 	-0.00055523 	0.274392
0.00827759 	2.16673e-05 	-0.00055523 	0.274392
0.00832776 	2.14803e-05 	-0.000554717 	0.274213
0.00832776 	2.14803e-05 	-0.000554717 	0.274213
0.00837793 	2.12806e-05 	-0.000554121 	0.274019
0.00842809 	2.10742e-05 	-0.00055348 	0.273816
0.00842809 	2.10742e-05 	-0.00055348 	0.273816
0.00847826 	2.08678e-05 	-0.000552839 	0.273614
0.00847826 	2.08678e-05 	-0.000552839 	0.273614
0.0085786 	2.04312e-05 	-0.000551372 	0.273177
0.0085786 	2.04312e-05 	-0.000551372 	0.273177
0.00862876 	2.02085e-05 	-0.000550605 	0.272952
0.00867893 	1.99814e-05 	-0.000549797 	0.272721
0.0087291 	1.97451e-05 	-0.000548904 	0.272473
0.00877926 	1.95088e-05 	-0.00054801 	0.272226
0.00882943 	1.92699e-05 	-0.000547088 	0.271974
0.0088796 	1.90225e-05 	-0.000546071 	0.271704
0.0088796 	1.90225e-05 	-0.000546071 	0.271704
0.00892977 	1.87751e-05 	-0.000545054 	0.271434
0.00892977 	1.87751e-05 	-0.000545054 	0.271434
0.00897993 	1.85258e-05 	-0.000544011 	0.271159
0.00897993 	1.85258e-05 	-0.000544011 	0.271159
0.0090301 	1.82694e-05 	-0.000542871 	0.270867
0.00908027 	1.8013e-05 	-0.000541731 	0.270574
0.00908027 	1.8013e-05 	-0.000541731 	0.270574
0.00913043 	1.77549e-05 	-0.000540563 	0.270277
0.0091806 	1.74914e-05 	-0.000539301 	0.269961
0.0091806 	1.74914e-05 	-0.000539301 	0.269961
0.00923077 	1.72279e-05 	-0.000538039 	0.269646
0.00928094 	1.69627e-05 	-0.000536739 	0.269324
0.00928094 	1.69627e-05 	-0.000536739 	0.269324
0.0093311 	1.66937e-05 	-0.000535354 	0.268985
0.00938127 	1.64248e-05 	-0.00053397 	0.268647
0.00938127 	1.64248e-05 	-0.00053397 	0.268647
0.00943144 	1.6154e-05 	-0.000532531 	0.268299
0.00943144 	1.6154e-05 	-0.000532531 	0.268299
0.00948161 	1.5881e-05 	-0.000531024 	0.267937
0.00948161 	1.5881e-05 	-0.000531024 	0.267937
0.00953177 	1.56079e-05 	-0.000529517 	0.267576
0.00953177 	1.56079e-05 	-0.000529517 	0.267576
0.00958194 	1.53331e-05 	-0.000527933 	0.267199
0.00958194 	1.53331e-05 	-0.000527933 	0.267199
0.00963211 	1.50572e-05 	-0.000526302 	0.266814
0.00968227 	1.47814e-05 	-0.000524671 	0.266429
0.00968227 	1.47814e-05 	-0.000524671 	0.266429
0.00973244 	1.4504e-05 	-0.000522934 	0.266024
0.00978261 	1.42263e-05 	-0.000521178 	0.265614
0.00978261 	1.42263e-05 	-0.000521178 	0.265614
0.00983278 	1.39485e-05 	-0.000519405 	0.265202
0.00983278 	1.39485e-05 	-0.000519405 	0.265202
0.00988294 	1.36699e-05 	-0.000517521 	0.264768
0.00993311 	1.33914e-05 	-0.000515636 	0.264335
0.00993311 	1.33914e-05 	-0.000515636 	0.264335
0.00998328 	1.31128e-05 	-0.000513693 	0.26389
0.0100334 	1.28341e-05 	-0.000511677 	0.263431
0.0100836 	1.25554e-05 	-0.000509661 	0.262972
0.0100836 	1.25554e-05 	-0.000509661 	0.262972
0.0101338 	1.22772e-05 	-0.000507534 	0.262493
0.0101839 	1.19991e-05 	-0.000505382 	0.262008
0.0101839 	1.19991e-05 	-0.000505382 	0.262008
0.0102341 	1.17212e-05 	-0.000503197 	0.261518
0.0102341 	1.17212e-05 	-0.000503197 	0.261518
0.0102843 	1.14442e-05 	-0.000500905 	0.261007
0.0103344 	1.11672e-05 	-0.000498613 	0.260497
0.0103344 	1.11672e-05 	-0.000498613 	0.260497
0.0103846 	1.08913e-05 	-0.000496217 	0.259967
0.0103846 	1.08913e-05 	-0.000496217 	0.259967
0.0104348 	1.06159e-05 	-0.000493779 	0.25943
0.0104348 	1.06159e-05 	-0.000493779 	0.25943
0.0104849 	1.03409e-05 	-0.000491308 	0.258886
0.0104849 	1.03409e-05 	-0.000491308 	0.258886
0.0105351 	1.00674e-05 	-0.000488717 	0.258321
0.0105853 	9.79399e-06 	-0.000486126 	0.257756
0.0105853 	9.79399e-06 	-0.000486126 	0.257756
0.0106856 	9.25121e-06 	-0.000480662 	0.256575
0.0106856 	9.25121e-06 	-0.000480662 	0.256575
0.0107358 	8.98105e-06 	-0.00047785 	0.25597
0.010786 	8.71252e-06 	-0.000474933 	0.255346
0.010786 	8.71252e-06 	-0.000474933 	0.255346
0.0108361 	8.44402e-06 	-0.000472015 	0.254722
0.0108863 	8.17834e-06 	-0.000468924 	0.254067
0.0108863 	8.17834e-06 	-0.000468924 	0.254067
0.0109365 	7.91266e-06 	-0.000465833 	0.253413
0.0109365 	7.91266e-06 	-0.000465833 	0.253413
0.0109866 	7.64909e-06 	-0.000462617 	0.252736
0.0110368 	7.38648e-06 	-0.000459344 	0.252049
0.0110368 	7.38648e-06 	-0.000459344 	0.252049
0.011087 	7.12521e-06 	-0.000455991 	0.251349
0.011087 	7.12521e-06 	-0.000455991 	0.251349
0.0111371 	6.86587e-06 	-0.000452522 	0.250629
0.0111873 	6.60714e-06 	-0.000449018 	0.249902
0.0111873 	6.60714e-06 	-0.000449018 	0.249902
0.0112375 	6.3513e-06 	-0.000445338 	0.249147
0.0112876 	6.09547e-06 	-0.000441658 	0.248392
0.0112876 	6.09547e-06 	-0.000441658 	0.248392
0.0113378 	5.84321e-06 	-0.000437754 	0.2476
0.0113378 	5.84321e-06 	-0.000437754 	0.2476
0.011388 	5.59106e-06 	-0.000433843 	0.246808
0.0114381 	5.34193e-06 	-0.000429721 	0.245983
0.0114381 	5.34193e-06 	-0.000429721 	0.245983
0.0114883 	5.09351e-06 	-0.00042555 	0.245151
0.0115385 	4.84746e-06 	-0.000421172 	0.244289
0.0115385 	4.84746e-06 	-0.000421172 	0.244289
0.0115886 	4.6025e-06 	-0.0004167 	0.243413
0.0116388 	4.35929e-06 	-0.000412018 	0.242507
0.0116388 	4.35929e-06 	-0.000412018 	0.242507
0.011689 	4.11724e-06 	-0.000407197 	0.241583
0.0117391 	3.87643e-06 	-0.000402155 	0.240629
0.0117893 	3.63661e-06 	-0.000396936 	0.239652
0.0118395 	3.39778e-06 	-0.000391477 	0.238643
0.0118395 	3.39778e-06 	-0.000391477 	0.238643
0.0118896 	3.15978e-06 	-0.000385817 	0.237608
0.0119398 	2.92273e-06 	-0.000379892 	0.236537
0.0119398 	2.92273e-06 	-0.000379892 	0.236537
0.01199 	2.68643e-06 	-0.000373765 	0.235439
0.0120401 	2.45115e-06 	-0.000367338 	0.234299
0.0120401 	2.45115e-06 	-0.000367338 	0.234299
0.0120903 	2.21649e-06 	-0.00036073 	0.233134
0.0120903 	2.21649e-06 	-0.00036073 	0.233134
0.0121906 	1.74972e-06 	-0.000346683 	0.230679
0.0121906 	1.74972e-06 	-0.000346683 	0.230679
0.0122408 	1.51763e-06 	-0.00033918 	0.229378
0.012291 	1.28573e-06 	-0.000331601 	0.228064
0.012291 	1.28573e-06 	-0.000331601 	0.228064
0.0123411 	1.05492e-06 	-0.000323536 	0.226668
0.0123913 	8.24279e-07 	-0.000315381 	0.225256
0.0123913 	8.24279e-07 	-0.000315381 	0.225256
0.0124415 	5.94369e-07 	-0.00030684 	0.223774
0.0124415 	5.94369e-07 	-0.00030684 	0.223774
0.0124916 	3.64781e-07 	-0.000298109 	0.222254
0.0124916 	3.64781e-07 	-0.000298109 	0.222254
0.0125418 	1.35649e-07 	-0.00028911 	0.220681
0.012592 	-9.30072e-08 	-0.00027982 	0.219044
0.0126421 	-3.21429e-07 	-0.000270388 	0.217374
0.0126421 	-3.21429e-07 	-0.000270388 	0.217374
0.0126923 	-5.49167e-07 	-0.00026058 	0.215608
0.0127425 	-7.76657e-07 	-0.000250662 	0.213808
0.0127425 	-7.76657e-07 	-0.000250662 	0.213808
0.0127926 	-1.00356e-06 	-0.000240494 	0.211931
0.0128428 	-1.22987e-06 	-0.000230153 	0.209985
0.0128428 	-1.22987e-06 	-0.000230153 	0.209985
0.0129431 	-1.68053e-06 	-0.000209051 	0.205891
0.0129431 	-1.68053e-06 	-0.000209051 	0.205891
0.0129933 	-1.90461e-06 	-0.000198346 	0.203737
0.0130435 	-2.12772e-06 	-0.000187565 	0.201508
0.0130435 	-2.12772e-06 	-0.000187565 	0.201508
0.0131438 	-2.56942e-06 	-0.000165944 	0.196777
0.0131438 	-2.56942e-06 	-0.000165944 	0.196777
0.013194 	-2.78781e-06 	-0.000155173 	0.194284
0.0132441 	-3.00359e-06 	-0.000144508 	0.19168
0.0132441 	-3.00359e-06 	-0.000144508 	0.19168
0.0132943 	-3.21738e-06 	-0.000133938 	0.189001
0.0133445 	-3.42809e-06 	-0.000123531 	0.186213
0.0133445 	-3.42809e-06 	-0.000123531 	0.186213
0.0133946 	-3.63444e-06 	-0.000113374 	0.183293
0.0133946 	-3.63444e-06 	-0.000113374 	0.183293
0.0134448 	-3.83733e-06 	-0.00010342 	0.180278
0.0134448 	-3.83733e-06 	-0.00010342 	0.180278
0.013495 	-4.03621e-06 	-9.37014e-05 	0.177159
0.0135452 	-4.22749e-06 	-8.44218e-05 	0.173861
0.0135452 	-4.22749e-06 	-8.44218e-05 	0.173861
0.0135953 	-4.41317e-06 	-7.54567e-05 	0.170443
0.0135953 	-4.41317e-06 	-7.54567e-05 	0.170443
0.0136455 	-4.59264e-06 	-6.6833e-05 	0.166895
0.0136455 	-4.59264e-06 	-6.6833e-05 	0.166895
0.0136957 	-4.7638e-06 	-5.86497e-05 	0.163181
0.0136957 	-4.7638e-06 	-5.86497e-05 	0.163181
0.0137458 	-4.92358e-06 	-5.10191e-05 	0.159258
0.013796 	-5.07314e-06 	-4.38408e-05 	0.155163
0.013796 	-5.07314e-06 	-4.38408e-05 	0.155163
0.0138462 	-5.21107e-06 	-3.71447e-05 	0.150882
0.0138462 	-5.21107e-06 	-3.71447e-05 	0.150882
0.0138963 	-5.33575e-06 	-3.09604e-05 	0.146401
0.0139465 	-5.43986e-06 	-2.5478e-05 	0.141631
0.0139465 	-5.43986e-06 	-2.5478e-05 	0.141631
0.0139967 	-5.52517e-06 	-2.05532e-05 	0.136615
0.0139967 	-5.52517e-06 	-2.05532e-05 	0.136615
0.0140468 	-5.5896e-06 	-1.61844e-05 	0.13134
0.0140468 	-5.5896e-06 	-1.61844e-05 	0.13134
0.014097 	-5.63046e-06 	-1.23789e-05 	0.125783
0.0141472 	-5.64488e-06 	-9.13551e-06 	0.119923
0.0141472 	-5.64488e-06 	-9.13551e-06 	0.119923
0.0141973 	-5.62985e-06 	-6.43884e-06 	0.113733
0.0142475 	-5.57626e-06 	-4.32907e-06 	0.107113
0.0142977 	-5.48441e-06 	-2.67356e-06 	0.100081
0.0142977 	-5.48441e-06 	-2.67356e-06 	0.100081
0.0143478 	-5.34958e-06 	-1.42643e-06 	0.0926293
0.014398 	-5.16703e-06 	-5.46732e-07 	0.0847785
0.014398 	-5.16703e-06 	-5.46732e-07 	0.0847785
0.0144482 	-4.93295e-06 	1.54426e-08 	0.0765881
0.0144983 	-4.64499e-06 	3.20147e-07 	0.0681624
0.0144983 	-4.64499e-06 	3.20147e-07 	0.0681624
0.0145485 	-4.30283e-06 	4.34125e-07 	0.0596499
0.0145485 	-4.30283e-06 	4.34125e-07 	0.0596499
0.0145987 	-3.90872e-06 	4.24253e-07 	0.0512279
0.0146488 	-3.46786e-06 	3.492e-07 	0.0430727
0.014699 	-2.98848e-06 	2.52589e-07 	0.0353283
0.014699 	-2.98848e-06 	2.52589e-07 	0.0353283
0.0147492 	-2.48223e-06 	1.60669e-07 	0.0280865
0.0147993 	-1.96666e-06 	8.62403e-08 	0.02139
0.0147993 	-1.96666e-06 	8.62403e-08 	0.02139
0.0148495 	-1.47292e-06 	3.01156e-08 	0.0152476
0.0148495 	-1.47292e-06 	3.01156e-08 	0.0152476
0.0148997 	-1.02829e-06 	-5.71102e-10 	0.00964942
0.0148997 	-1.02829e-06 	-5.71102e-10 	0.00964942
0.0149498 	-5.80439e-07 	-8.98299e-09 	0.00457896
0.0149498 	-5.80439e-07 	-8.98299e-09 	0.00457896
0.015 	0 	0 	0
0.015 	0 	0 	0
