0 	373
5.01672e-05 	369.719
0.000100334 	366.484
0.000150502 	363.332
0.000200669 	360.37
0.000250836 	357.75
0.000301003 	355.586
0.000351171 	353.903
0.000401338 	352.64
0.000451505 	351.704
0.000501672 	351.007
0.000551839 	350.478
0.000602007 	350.068
0.000652174 	349.741
0.000702341 	349.474
0.000752508 	349.252
0.000802676 	349.063
0.000852843 	348.903
0.00090301 	348.761
0.000953177 	348.633
0.00100334 	348.518
0.00105351 	348.413
0.00110368 	348.317
0.00115385 	348.23
0.00120401 	348.149
0.00125418 	348.073
0.00130435 	348.001
0.00135452 	347.934
0.00140468 	347.871
0.00145485 	347.81
0.00150502 	347.752
0.00155518 	347.698
0.00160535 	347.645
0.00165552 	347.594
0.00170569 	347.545
0.00175585 	347.497
0.00180602 	347.45
0.00185619 	347.405
0.00190635 	347.361
0.00195652 	347.318
0.00200669 	347.276
0.00205686 	347.235
0.00210702 	347.195
0.00215719 	347.155
0.00220736 	347.116
0.00225753 	347.077
0.00230769 	347.039
0.00235786 	347.001
0.00240803 	346.964
0.00245819 	346.928
0.00250836 	346.893
0.00255853 	346.858
0.0026087 	346.824
0.00265886 	346.791
0.00270903 	346.758
0.0027592 	346.725
0.00280936 	346.693
0.00285953 	346.661
0.0029097 	346.629
0.00295987 	346.597
0.00301003 	346.565
0.0030602 	346.533
0.00311037 	346.501
0.00316054 	346.47
0.0032107 	346.439
0.00326087 	346.409
0.00331104 	346.378
0.0033612 	346.348
0.00341137 	346.318
0.00346154 	346.287
0.00351171 	346.256
0.00356187 	346.225
0.00361204 	346.194
0.00366221 	346.162
0.00371237 	346.131
0.00376254 	346.101
0.00381271 	346.071
0.00386288 	346.043
0.00391304 	346.015
0.00396321 	345.988
0.00401338 	345.962
0.00406355 	345.936
0.00411371 	345.911
0.00416388 	345.886
0.00421405 	345.862
0.00426421 	345.838
0.00431438 	345.814
0.00436455 	345.79
0.00441472 	345.767
0.00446488 	345.743
0.00451505 	345.719
0.00456522 	345.695
0.00461538 	345.67
0.00466555 	345.646
0.00471572 	345.622
0.00476589 	345.599
0.00481605 	345.576
0.00486622 	345.555
0.00491639 	345.533
0.00496656 	345.512
0.00501672 	345.491
0.00506689 	345.471
0.00511706 	345.45
0.00516722 	345.43
0.00521739 	345.41
0.00526756 	345.39
0.00531773 	345.37
0.00536789 	345.351
0.00541806 	345.331
0.00546823 	345.312
0.00551839 	345.293
0.00556856 	345.273
0.00561873 	345.254
0.0056689 	345.235
0.00571906 	345.216
0.00576923 	345.198
0.0058194 	345.179
0.00586957 	345.16
0.00591973 	345.142
0.0059699 	345.123
0.00602007 	345.105
0.00607023 	345.086
0.0061204 	345.068
0.00617057 	345.049
0.00622074 	345.031
0.0062709 	345.012
0.00632107 	344.994
0.00637124 	344.975
0.0064214 	344.957
0.00647157 	344.938
0.00652174 	344.92
0.00657191 	344.903
0.00662207 	344.885
0.00667224 	344.868
0.00672241 	344.851
0.00677258 	344.834
0.00682274 	344.816
0.00687291 	344.799
0.00692308 	344.782
0.00697324 	344.765
0.00702341 	344.747
0.00707358 	344.73
0.00712375 	344.713
0.00717391 	344.696
0.00722408 	344.679
0.00727425 	344.662
0.00732441 	344.645
0.00737458 	344.628
0.00742475 	344.612
0.00747492 	344.595
0.00752508 	344.579
0.00757525 	344.563
0.00762542 	344.548
0.00767559 	344.532
0.00772575 	344.516
0.00777592 	344.5
0.00782609 	344.485
0.00787625 	344.469
0.00792642 	344.453
0.00797659 	344.438
0.00802676 	344.422
0.00807692 	344.406
0.00812709 	344.391
0.00817726 	344.375
0.00822742 	344.359
0.00827759 	344.344
0.00832776 	344.328
0.00837793 	344.312
0.00842809 	344.296
0.00847826 	344.28
0.00852843 	344.265
0.0085786 	344.249
0.00862876 	344.233
0.00867893 	344.217
0.0087291 	344.201
0.00877926 	344.185
0.00882943 	344.168
0.0088796 	344.152
0.00892977 	344.136
0.00897993 	344.12
0.0090301 	344.103
0.00908027 	344.087
0.00913043 	344.07
0.0091806 	344.053
0.00923077 	344.036
0.00928094 	344.02
0.0093311 	344.003
0.00938127 	343.986
0.00943144 	343.969
0.00948161 	343.951
0.00953177 	343.934
0.00958194 	343.917
0.00963211 	343.899
0.00968227 	343.882
0.00973244 	343.864
0.00978261 	343.847
0.00983278 	343.829
0.00988294 	343.811
0.00993311 	343.794
0.00998328 	343.776
0.0100334 	343.758
0.0100836 	343.739
0.0101338 	343.721
0.0101839 	343.703
0.0102341 	343.685
0.0102843 	343.666
0.0103344 	343.647
0.0103846 	343.629
0.0104348 	343.61
0.0104849 	343.591
0.0105351 	343.571
0.0105853 	343.552
0.0106355 	343.532
0.0106856 	343.513
0.0107358 	343.493
0.010786 	343.473
0.0108361 	343.453
0.0108863 	343.432
0.0109365 	343.411
0.0109866 	343.39
0.0110368 	343.369
0.011087 	343.347
0.0111371 	343.325
0.0111873 	343.303
0.0112375 	343.281
0.0112876 	343.258
0.0113378 	343.235
0.011388 	343.212
0.0114381 	343.188
0.0114883 	343.164
0.0115385 	343.139
0.0115886 	343.114
0.0116388 	343.089
0.011689 	343.063
0.0117391 	343.036
0.0117893 	343.009
0.0118395 	342.982
0.0118896 	342.954
0.0119398 	342.925
0.01199 	342.896
0.0120401 	342.866
0.0120903 	342.835
0.0121405 	342.804
0.0121906 	342.772
0.0122408 	342.739
0.012291 	342.707
0.0123411 	342.673
0.0123913 	342.638
0.0124415 	342.603
0.0124916 	342.567
0.0125418 	342.529
0.012592 	342.491
0.0126421 	342.452
0.0126923 	342.411
0.0127425 	342.369
0.0127926 	342.326
0.0128428 	342.281
0.012893 	342.235
0.0129431 	342.186
0.0129933 	342.136
0.0130435 	342.084
0.0130936 	342.029
0.0131438 	341.972
0.013194 	341.912
0.0132441 	341.849
0.0132943 	341.784
0.0133445 	341.714
0.0133946 	341.64
0.0134448 	341.562
0.013495 	341.479
0.0135452 	341.389
0.0135953 	341.293
0.0136455 	341.191
0.0136957 	341.081
0.0137458 	340.961
0.013796 	340.831
0.0138462 	340.691
0.0138963 	340.539
0.0139465 	340.367
0.0139967 	340.176
0.0140468 	339.963
0.014097 	339.724
0.0141472 	339.451
0.0141973 	339.136
0.0142475 	338.752
0.0142977 	338.282
0.0143478 	337.698
0.014398 	336.962
0.0144482 	336.027
0.0144983 	334.846
0.0145485 	333.379
0.0145987 	331.616
0.0146488 	329.587
0.014699 	327.361
0.0147492 	325.019
0.0147993 	322.627
0.0148495 	320.219
0.0148997 	317.811
0.0149498 	315.407
0.015 	313
