-0.0075 	0 	0 	0
-0.0075 	-1.16512e-36 	-2.70663e-36 	1.84908e-31
-0.00745622 	-9.57077e-08 	-2.22333e-07 	0.015189
-0.00745622 	-9.57077e-08 	-2.22333e-07 	0.015189
-0.00741165 	-6.40988e-07 	-7.36413e-07 	0.0295788
-0.00741165 	-6.40988e-07 	-7.36413e-07 	0.0295788
-0.00736628 	-1.29639e-06 	-1.6153e-06 	0.0432739
-0.00736628 	-1.29639e-06 	-1.6153e-06 	0.0432739
-0.0073201 	-1.86868e-06 	-2.85728e-06 	0.0562991
-0.0073201 	-1.86868e-06 	-2.85728e-06 	0.0562991
-0.00727309 	-2.3686e-06 	-4.4952e-06 	0.0686765
-0.00727309 	-2.3686e-06 	-4.4952e-06 	0.0686765
-0.00722524 	-2.83142e-06 	-6.53229e-06 	0.0804259
-0.00722524 	-2.83142e-06 	-6.53229e-06 	0.0804259
-0.00717653 	-3.2667e-06 	-8.9832e-06 	0.0915552
-0.00717653 	-3.2667e-06 	-8.9832e-06 	0.0915552
-0.00712695 	-3.67755e-06 	-1.18675e-05 	0.102051
-0.00712695 	-3.67755e-06 	-1.18675e-05 	0.102051
-0.00707647 	-4.0642e-06 	-1.52185e-05 	0.111884
-0.00707647 	-4.0642e-06 	-1.52185e-05 	0.111884
-0.0070251 	-4.42449e-06 	-1.90905e-05 	0.121025
-0.0070251 	-4.42449e-06 	-1.90905e-05 	0.121025
-0.0069728 	-4.75472e-06 	-2.35521e-05 	0.129468
-0.0069728 	-4.75472e-06 	-2.35521e-05 	0.129468
-0.00691956 	-5.05086e-06 	-2.8674e-05 	0.137231
-0.00691956 	-5.05086e-06 	-2.8674e-05 	0.137231
-0.00686537 	-5.30961e-06 	-3.45207e-05 	0.144354
-0.00686537 	-5.30961e-06 	-3.45207e-05 	0.144354
-0.00681021 	-5.52933e-06 	-4.11588e-05 	0.150892
-0.00681021 	-5.52933e-06 	-4.11588e-05 	0.150892
-0.00675406 	-5.70979e-06 	-4.86592e-05 	0.156906
-0.00675406 	-5.70979e-06 	-4.86592e-05 	0.156906
-0.0066969 	-5.85139e-06 	-5.70869e-05 	0.162451
-0.0066969 	-5.85139e-06 	-5.70869e-05 	0.162451
-0.00663871 	-5.95515e-06 	-6.64865e-05 	0.167572
-0.00663871 	-5.95515e-06 	-6.64865e-05 	0.167572
-0.00657949 	-6.02246e-06 	-7.68622e-05 	0.172312
-0.00657949 	-6.02246e-06 	-7.68622e-05 	0.172312
-0.0065192 	-6.05498e-06 	-8.81807e-05 	0.176712
-0.0065192 	-6.05498e-06 	-8.81807e-05 	0.176712
-0.00645783 	-6.05473e-06 	-0.000100393 	0.180812
-0.00645783 	-6.05473e-06 	-0.000100393 	0.180812
-0.00639535 	-6.02385e-06 	-0.000113449 	0.184653
-0.00639535 	-6.02385e-06 	-0.000113449 	0.184653
-0.00633176 	-5.96448e-06 	-0.000127294 	0.188267
-0.00633176 	-5.96448e-06 	-0.000127294 	0.188267
-0.00626703 	-5.8787e-06 	-0.000141877 	0.191681
-0.00626703 	-5.8787e-06 	-0.000141877 	0.191681
-0.00620114 	-5.7684e-06 	-0.000157139 	0.194919
-0.00620114 	-5.7684e-06 	-0.000157139 	0.194919
-0.00613406 	-5.63523e-06 	-0.000173025 	0.198
-0.00613406 	-5.63523e-06 	-0.000173025 	0.198
-0.00606579 	-5.48045e-06 	-0.000189472 	0.200943
-0.00606579 	-5.48045e-06 	-0.000189472 	0.200943
-0.00599629 	-5.30503e-06 	-0.000206414 	0.203765
-0.00599629 	-5.30503e-06 	-0.000206414 	0.203765
-0.00592554 	-5.10986e-06 	-0.000223784 	0.206481
-0.00592554 	-5.10986e-06 	-0.000223784 	0.206481
-0.00585352 	-4.89603e-06 	-0.000241505 	0.209106
-0.00585352 	-4.89603e-06 	-0.000241505 	0.209106
-0.00578022 	-4.6647e-06 	-0.000259485 	0.211651
-0.00578022 	-4.6647e-06 	-0.000259485 	0.211651
-0.00570559 	-4.41687e-06 	-0.000277628 	0.214126
-0.00570559 	-4.41687e-06 	-0.000277628 	0.214126
-0.00562963 	-4.15329e-06 	-0.000295836 	0.216539
-0.00562963 	-4.15329e-06 	-0.000295836 	0.216539
-0.00555231 	-3.87453e-06 	-0.000314009 	0.218898
-0.00555231 	-3.87453e-06 	-0.000314009 	0.218898
-0.0054736 	-3.58107e-06 	-0.000332045 	0.221207
-0.0054736 	-3.58107e-06 	-0.000332045 	0.221207
-0.00539348 	-3.27333e-06 	-0.000349841 	0.223472
-0.00539348 	-3.27333e-06 	-0.000349841 	0.223472
-0.00531193 	-2.95164e-06 	-0.000367294 	0.225696
-0.00531193 	-2.95164e-06 	-0.000367294 	0.225696
-0.00522891 	-2.61629e-06 	-0.000384302 	0.227882
-0.00522891 	-2.61629e-06 	-0.000384302 	0.227882
-0.0051444 	-2.26753e-06 	-0.000400764 	0.230032
-0.0051444 	-2.26753e-06 	-0.000400764 	0.230032
-0.00505838 	-1.90555e-06 	-0.000416586 	0.232147
-0.00505838 	-1.90555e-06 	-0.000416586 	0.232147
-0.00497081 	-1.53052e-06 	-0.000431675 	0.234229
-0.00497081 	-1.53052e-06 	-0.000431675 	0.234229
-0.00488168 	-1.14254e-06 	-0.000445946 	0.236277
-0.00488168 	-1.14254e-06 	-0.000445946 	0.236277
-0.00479094 	-7.41639e-07 	-0.000459316 	0.23829
-0.00479094 	-7.41639e-07 	-0.000459316 	0.23829
-0.00469858 	-3.27677e-07 	-0.000471708 	0.240267
-0.00469858 	-3.27677e-07 	-0.000471708 	0.240267
-0.00460456 	9.96643e-08 	-0.000483049 	0.242206
-0.00460456 	9.96643e-08 	-0.000483049 	0.242206
-0.00450886 	5.40862e-07 	-0.000493294 	0.244106
-0.00450886 	5.40862e-07 	-0.000493294 	0.244106
-0.00441144 	9.96397e-07 	-0.000502425 	0.245965
-0.00441144 	9.96397e-07 	-0.000502425 	0.245965
-0.00431227 	1.4666e-06 	-0.00051046 	0.247782
-0.00431227 	1.4666e-06 	-0.00051046 	0.247782
-0.00421133 	1.95169e-06 	-0.000517447 	0.249554
-0.00421133 	1.95169e-06 	-0.000517447 	0.249554
-0.00410857 	2.45232e-06 	-0.000523451 	0.251278
-0.00410857 	2.45232e-06 	-0.000523451 	0.251278
-0.00400397 	2.97021e-06 	-0.000528557 	0.252954
-0.00400397 	2.97021e-06 	-0.000528557 	0.252954
-0.0038975 	3.50752e-06 	-0.000532854 	0.254581
-0.0038975 	3.50752e-06 	-0.000532854 	0.254581
-0.00378912 	4.06537e-06 	-0.000536424 	0.256161
-0.00378912 	4.06537e-06 	-0.000536424 	0.256161
-0.00367879 	4.64305e-06 	-0.000539334 	0.257698
-0.00367879 	4.64305e-06 	-0.000539334 	0.257698
-0.00356649 	5.2389e-06 	-0.00054164 	0.25919
-0.00356649 	5.2389e-06 	-0.00054164 	0.25919
-0.00345217 	5.85135e-06 	-0.000543396 	0.260636
-0.00345217 	5.85135e-06 	-0.000543396 	0.260636
-0.0033358 	6.47909e-06 	-0.000544661 	0.262033
-0.0033358 	6.47909e-06 	-0.000544661 	0.262033
-0.00321735 	7.12061e-06 	-0.000545498 	0.263379
-0.00321735 	7.12061e-06 	-0.000545498 	0.263379
-0.00309677 	7.77408e-06 	-0.000545974 	0.264672
-0.00309677 	7.77408e-06 	-0.000545974 	0.264672
-0.00297403 	8.43727e-06 	-0.000546162 	0.265909
-0.00297403 	8.43727e-06 	-0.000546162 	0.265909
-0.00284909 	9.10751e-06 	-0.000546135 	0.267088
-0.00284909 	9.10751e-06 	-0.000546135 	0.267088
-0.0027219 	9.78174e-06 	-0.000545969 	0.268206
-0.0027219 	9.78174e-06 	-0.000545969 	0.268206
-0.00259244 	1.04566e-05 	-0.000545734 	0.269261
-0.00259244 	1.04566e-05 	-0.000545734 	0.269261
-0.00246065 	1.11286e-05 	-0.000545497 	0.27025
-0.00246065 	1.11286e-05 	-0.000545497 	0.27025
-0.00232651 	1.17937e-05 	-0.00054532 	0.271172
-0.00232651 	1.17937e-05 	-0.00054532 	0.271172
-0.00218995 	1.24478e-05 	-0.000545251 	0.272023
-0.00218995 	1.24478e-05 	-0.000545251 	0.272023
-0.00205095 	1.30863e-05 	-0.00054533 	0.272803
-0.00205095 	1.30863e-05 	-0.00054533 	0.272803
-0.00190946 	1.37047e-05 	-0.000545579 	0.27351
-0.00190946 	1.37047e-05 	-0.000545579 	0.27351
-0.00176543 	1.4298e-05 	-0.000546009 	0.274143
-0.00176543 	1.4298e-05 	-0.000546009 	0.274143
-0.00161881 	1.48602e-05 	-0.00054661 	0.274701
-0.00161881 	1.48602e-05 	-0.00054661 	0.274701
-0.00146957 	1.53845e-05 	-0.000547355 	0.275184
-0.00146957 	1.53845e-05 	-0.000547355 	0.275184
-0.00131765 	1.58633e-05 	-0.000548202 	0.275592
-0.00131765 	1.58633e-05 	-0.000548202 	0.275592
-0.001163 	1.62883e-05 	-0.000549099 	0.275926
-0.001163 	1.62883e-05 	-0.000549099 	0.275926
-0.00100559 	1.66505e-05 	-0.000549993 	0.276185
-0.00100559 	1.66505e-05 	-0.000549993 	0.276185
-0.000845345 	1.69398e-05 	-0.000550783 	0.276368
-0.000845345 	1.69398e-05 	-0.000550783 	0.276368
-0.000682232 	1.71447e-05 	-0.000551445 	0.276474
-0.000682232 	1.71447e-05 	-0.000551445 	0.276474
-0.000516194 	1.72525e-05 	-0.000551981 	0.276502
-0.000516194 	1.72525e-05 	-0.000551981 	0.276502
-0.000347178 	1.72501e-05 	-0.00055227 	0.27645
-0.000347178 	1.72501e-05 	-0.00055227 	0.27645
-0.000175132 	1.71206e-05 	-0.000552395 	0.276315
-0.000175132 	1.71206e-05 	-0.000552395 	0.276315
0 	1.68484e-05 	-0.000552236 	0.276096
0 	1.68484e-05 	-0.000552236 	0.276096
0 	1.68484e-05 	-0.000552236 	0.276096
0 	1.68484e-05 	-0.000552236 	0.276096
0.000175132 	1.64347e-05 	-0.000551619 	0.275794
0.000175132 	2.02822e-05 	-0.000458133 	0.272549
0.000347178 	1.58935e-05 	-0.000550671 	0.275416
0.000347178 	2.12966e-05 	-0.000459039 	0.272236
0.000516194 	1.52462e-05 	-0.000549284 	0.274967
0.000516194 	2.21114e-05 	-0.000459616 	0.271846
0.000682232 	1.45143e-05 	-0.000547498 	0.27445
0.000682232 	2.27464e-05 	-0.000459885 	0.271382
0.000845345 	1.37133e-05 	-0.000545438 	0.27387
0.000845345 	2.32197e-05 	-0.000459819 	0.27085
0.00100559 	1.28578e-05 	-0.000543066 	0.273228
0.00100559 	2.35504e-05 	-0.000459419 	0.270252
0.001163 	1.19612e-05 	-0.0005404 	0.272527
0.001163 	2.37565e-05 	-0.000458697 	0.269592
0.00131765 	1.10355e-05 	-0.000537459 	0.27177
0.00131765 	2.38545e-05 	-0.000457666 	0.268873
0.00146957 	1.00913e-05 	-0.000534256 	0.270958
0.00146957 	2.38588e-05 	-0.000456329 	0.268097
0.00161881 	9.13753e-06 	-0.000530802 	0.270094
0.00161881 	2.37823e-05 	-0.000454696 	0.267266
0.00176543 	8.18208e-06 	-0.000527107 	0.269178
0.00176543 	2.3636e-05 	-0.000452772 	0.266382
0.00190946 	7.23148e-06 	-0.000523179 	0.268214
0.00190946 	2.34295e-05 	-0.000450562 	0.265447
0.00205095 	6.2912e-06 	-0.000519024 	0.267201
0.00205095 	2.31711e-05 	-0.000448069 	0.264462
0.00218995 	5.36577e-06 	-0.000514645 	0.266141
0.00218995 	2.28678e-05 	-0.000445294 	0.263429
0.00232651 	4.45889e-06 	-0.000510044 	0.265034
0.00232651 	2.25257e-05 	-0.000442236 	0.262348
0.00246065 	3.57357e-06 	-0.000505221 	0.263882
0.00246065 	2.215e-05 	-0.000438895 	0.26122
0.00259244 	2.71233e-06 	-0.000500172 	0.262685
0.00259244 	2.17449e-05 	-0.000435266 	0.260047
0.0027219 	1.87724e-06 	-0.000494893 	0.261444
0.0027219 	2.13137e-05 	-0.000431341 	0.258828
0.00284909 	1.06992e-06 	-0.000489379 	0.260158
0.00284909 	2.08594e-05 	-0.000427112 	0.257565
0.00297403 	2.91671e-07 	-0.000483622 	0.258829
0.00297403 	2.03839e-05 	-0.000422565 	0.256257
0.00309677 	-4.5654e-07 	-0.000477613 	0.257455
0.00309677 	1.98892e-05 	-0.000417689 	0.254904
0.00321735 	-1.17398e-06 	-0.000471342 	0.256036
0.00321735 	1.93766e-05 	-0.000412467 	0.253506
0.0033358 	-1.86015e-06 	-0.0004648 	0.254573
0.0033358 	1.8847e-05 	-0.000406884 	0.252063
0.00345217 	1.83014e-05 	-0.00040093 	0.250574
0.00345217 	-2.51472e-06 	-0.000457976 	0.253064
0.00356649 	-3.13748e-06 	-0.000450865 	0.251509
0.00356649 	1.77408e-05 	-0.000394606 	0.249038
0.00367879 	-3.72833e-06 	-0.000443453 	0.249906
0.00367879 	1.7167e-05 	-0.000387907 	0.247454
0.00378912 	-4.28713e-06 	-0.000435723 	0.248255
0.00378912 	1.65825e-05 	-0.000380823 	0.245823
0.0038975 	-4.81378e-06 	-0.000427651 	0.246554
0.0038975 	1.59887e-05 	-0.000373332 	0.244144
0.00400397 	-5.30851e-06 	-0.000419198 	0.2448
0.00400397 	1.5385e-05 	-0.000365375 	0.242413
0.00410857 	1.47702e-05 	-0.000356849 	0.240616
0.00410857 	-5.77155e-06 	-0.000410297 	0.242987
0.00421133 	-6.20286e-06 	-0.000400873 	0.241109
0.00421133 	1.41437e-05 	-0.00034765 	0.238743
0.00431227 	-6.60286e-06 	-0.000390842 	0.23916
0.00431227 	1.35044e-05 	-0.0003377 	0.236785
0.00441144 	-6.97282e-06 	-0.000380137 	0.237131
0.00441144 	1.28506e-05 	-0.000326955 	0.234739
0.00450886 	-7.31429e-06 	-0.000368721 	0.235017
0.00450886 	1.21799e-05 	-0.000315418 	0.232601
0.00460456 	-7.62846e-06 	-0.000356595 	0.232812
0.00460456 	1.14906e-05 	-0.000303127 	0.230367
0.00469858 	-7.91604e-06 	-0.000343776 	0.230512
0.00469858 	1.07808e-05 	-0.000290136 	0.228033
0.00479094 	-8.17745e-06 	-0.00033029 	0.228111
0.00479094 	1.0049e-05 	-0.000276503 	0.225595
0.00488168 	-8.41305e-06 	-0.000316165 	0.225606
0.00488168 	9.29361e-06 	-0.000262286 	0.223049
0.00497081 	-8.62327e-06 	-0.00030144 	0.222991
0.00497081 	8.51336e-06 	-0.000247551 	0.220391
0.00505838 	-8.80852e-06 	-0.000286166 	0.220263
0.00505838 	7.70711e-06 	-0.000232372 	0.217616
0.0051444 	-8.96925e-06 	-0.000270406 	0.217418
0.0051444 	6.87409e-06 	-0.000216835 	0.214722
0.00522891 	-9.10586e-06 	-0.000254242 	0.214452
0.00522891 	6.01397e-06 	-0.000201042 	0.211705
0.00531193 	-9.21871e-06 	-0.000237771 	0.211363
0.00531193 	5.12698e-06 	-0.00018511 	0.208563
0.00539348 	-9.30813e-06 	-0.000221103 	0.208145
0.00539348 	4.21389e-06 	-0.000169172 	0.205294
0.0054736 	-9.37438e-06 	-0.000204362 	0.204798
0.0054736 	3.27599e-06 	-0.000153368 	0.201896
0.00555231 	-9.41768e-06 	-0.000187681 	0.201316
0.00555231 	2.31502e-06 	-0.000137843 	0.198368
0.00562963 	-9.43819e-06 	-0.000171192 	0.197697
0.00562963 	1.33313e-06 	-0.000122739 	0.194706
0.00570559 	-9.43603e-06 	-0.000155028 	0.193936
0.00570559 	3.32909e-07 	-0.000108189 	0.190908
0.00578022 	-9.41123e-06 	-0.000139317 	0.190029
0.00578022 	-6.82662e-07 	-9.43144e-05 	0.18697
0.00585352 	-9.36381e-06 	-0.000124172 	0.185968
0.00585352 	-1.71014e-06 	-8.12192e-05 	0.182888
0.00592554 	-9.2937e-06 	-0.0001097 	0.181748
0.00592554 	-2.74558e-06 	-6.89883e-05 	0.178656
0.00599629 	-9.20077e-06 	-9.59886e-05 	0.177362
0.00599629 	-3.78448e-06 	-5.76863e-05 	0.174266
0.00606579 	-9.0847e-06 	-8.31127e-05 	0.1728
0.00606579 	-4.82172e-06 	-4.73573e-05 	0.169711
0.00613406 	-8.94501e-06 	-7.11354e-05 	0.168051
0.00613406 	-5.85155e-06 	-3.80266e-05 	0.164979
0.00620114 	-6.86783e-06 	-2.97027e-05 	0.160054
0.00620114 	-8.78114e-06 	-6.01057e-05 	0.163099
0.00626703 	-8.59273e-06 	-5.00604e-05 	0.157926
0.00626703 	-7.86358e-06 	-2.23834e-05 	0.154917
0.00633176 	-8.83021e-06 	-1.60573e-05 	0.149554
0.00633176 	-8.37974e-06 	-4.10292e-05 	0.152516
0.00639535 	-9.75752e-06 	-1.06974e-05 	0.143949
0.00639535 	-8.14221e-06 	-3.30255e-05 	0.146854
0.00645783 	-7.88005e-06 	-2.60413e-05 	0.140923
0.00645783 	-1.06337e-05 	-6.25945e-06 	0.138085
0.0065192 	-7.59324e-06 	-2.00528e-05 	0.134706
0.0065192 	-1.14454e-05 	-2.68614e-06 	0.131946
0.00657949 	-7.28194e-06 	-1.50228e-05 	0.128186
0.00657949 	-1.21773e-05 	8.91318e-08 	0.125513
0.00663871 	-6.94619e-06 	-1.09009e-05 	0.121346
0.00663871 	-1.28122e-05 	2.13951e-06 	0.11877
0.0066969 	-6.5856e-06 	-7.60989e-06 	0.11417
0.0066969 	-1.3331e-05 	3.54949e-06 	0.111695
0.00675406 	-1.37142e-05 	4.40817e-06 	0.104255
0.00675406 	-6.19963e-06 	-5.05803e-06 	0.106624
0.00681021 	-1.39405e-05 	4.80441e-06 	0.0964214
0.00681021 	-5.78902e-06 	-3.14622e-06 	0.0986742
0.00686537 	-1.39867e-05 	4.82734e-06 	0.0882087
0.00686537 	-5.35802e-06 	-1.77924e-06 	0.0903291
0.00691956 	-1.38318e-05 	4.56497e-06 	0.0796832
0.00691956 	-4.91365e-06 	-8.72868e-07 	0.0816524
0.0069728 	-1.34604e-05 	4.10632e-06 	0.0709624
0.0069728 	-4.46377e-06 	-3.32476e-07 	0.072761
0.0070251 	-4.0165e-06 	-5.96833e-08 	0.0638236
0.0070251 	-1.28687e-05 	3.53547e-06 	0.0622115
0.00707647 	-3.57902e-06 	3.90879e-08 	0.0550411
0.00707647 	-1.20669e-05 	2.92522e-06 	0.0536248
0.00712695 	-3.15601e-06 	4.41968e-08 	0.0466116
0.00712695 	-1.10787e-05 	2.33266e-06 	0.0453918
0.00717653 	-2.74857e-06 	1.4594e-08 	0.0386923
0.00717653 	-9.93582e-06 	1.79561e-06 	0.0376618
0.00722524 	-2.35397e-06 	-1.39725e-08 	0.0313763
0.00722524 	-8.67045e-06 	1.33392e-06 	0.0305232
0.00727309 	-7.30925e-06 	9.53173e-07 	0.0240069
0.00727309 	-1.9652e-06 	-2.58078e-08 	0.0246959
0.0073201 	-5.86979e-06 	6.47942e-07 	0.0181049
0.0073201 	-1.56789e-06 	-2.06176e-08 	0.0186424
0.00736628 	-4.35652e-06 	4.16528e-07 	0.012789
0.00736628 	-1.13125e-06 	-5.68101e-10 	0.0131862
0.00741165 	-6.54315e-07 	9.69189e-09 	0.00829033
0.00741165 	-2.80973e-06 	2.26786e-07 	0.00802335
0.00745622 	-2.38158e-07 	1.22211e-08 	0.00391466
0.00745622 	-1.3376e-06 	9.17747e-08 	0.00376911
0.0075 	0 	0 	0
0.0075 	0 	0 	0
