0 	0 	0 	0
0 	0 	0 	0
0.00752508 	0.000935943 	-0.000287376 	-0.265419
0.00752508 	0.000935943 	-0.000287376 	-0.265419
0.00757525 	0.000932915 	-0.000308347 	-0.265282
0.00762542 	0.000929887 	-0.000329318 	-0.265146
0.00762542 	0.000929887 	-0.000329318 	-0.265146
0.00767559 	0.000926818 	-0.000350295 	-0.265009
0.00772575 	0.000919331 	-0.000371941 	-0.264868
0.00777592 	0.000911843 	-0.000393587 	-0.264727
0.00782609 	0.000904355 	-0.000415233 	-0.264586
0.00782609 	0.000904355 	-0.000415233 	-0.264586
0.00787625 	0.000893821 	-0.000435675 	-0.264453
0.00792642 	0.000881077 	-0.000455244 	-0.264327
0.00797659 	0.000868333 	-0.000474813 	-0.264201
0.00802676 	0.00085517 	-0.000492971 	-0.264075
0.00802676 	0.00085517 	-0.000492971 	-0.264075
0.00807692 	0.000840436 	-0.000505844 	-0.263949
0.00812709 	0.000825702 	-0.000518717 	-0.263823
0.00812709 	0.000825702 	-0.000518717 	-0.263823
0.00817726 	0.000810968 	-0.00053159 	-0.263697
0.00822742 	0.000794233 	-0.000543728 	-0.263564
0.00822742 	0.000794233 	-0.000543728 	-0.263564
0.00827759 	0.000777277 	-0.000555784 	-0.263429
0.00832776 	0.000760322 	-0.000567841 	-0.263295
0.00832776 	0.000760322 	-0.000567841 	-0.263295
0.00837793 	0.000740771 	-0.000580877 	-0.263155
0.00842809 	0.00071982 	-0.000594442 	-0.263012
0.00842809 	0.00071982 	-0.000594442 	-0.263012
0.00847826 	0.000698868 	-0.000608008 	-0.262869
0.00847826 	0.000698868 	-0.000608008 	-0.262869
0.00852843 	0.000675968 	-0.000621381 	-0.262722
0.00852843 	0.000675968 	-0.000621381 	-0.262722
0.0085786 	0.000650737 	-0.000634526 	-0.262571
0.0085786 	0.000650737 	-0.000634526 	-0.262571
0.00862876 	0.000625506 	-0.000647671 	-0.262419
0.00867893 	0.000599288 	-0.000659886 	-0.262264
0.00867893 	0.000599288 	-0.000659886 	-0.262264
0.0087291 	0.00057095 	-0.000670101 	-0.262098
0.00877926 	0.000542611 	-0.000680317 	-0.261933
0.00877926 	0.000542611 	-0.000680317 	-0.261933
0.00882943 	0.000513976 	-0.000689669 	-0.261762
0.0088796 	0.000484378 	-0.000696211 	-0.261573
0.0088796 	0.000484378 	-0.000696211 	-0.261573
0.00897993 	0.000425095 	-0.000708763 	-0.261188
0.00897993 	0.000425095 	-0.000708763 	-0.261188
0.0090301 	0.000395081 	-0.000712734 	-0.260968
0.00908027 	0.000365068 	-0.000716705 	-0.260749
0.00908027 	0.000365068 	-0.000716705 	-0.260749
0.00913043 	0.000334788 	-0.000720395 	-0.260523
0.0091806 	0.000303628 	-0.000723158 	-0.260277
0.0091806 	0.000303628 	-0.000723158 	-0.260277
0.00923077 	0.000272468 	-0.000725921 	-0.260031
0.00928094 	0.000240659 	-0.000728472 	-0.259778
0.00928094 	0.000240659 	-0.000728472 	-0.259778
0.0093311 	0.000207403 	-0.00073055 	-0.25951
0.00938127 	0.000174147 	-0.000732627 	-0.259241
0.00938127 	0.000174147 	-0.000732627 	-0.259241
0.00943144 	0.000139749 	-0.000734318 	-0.258964
0.00943144 	0.000139749 	-0.000734318 	-0.258964
0.00948161 	0.000103887 	-0.000735513 	-0.258675
0.00948161 	0.000103887 	-0.000735513 	-0.258675
0.00953177 	6.80241e-05 	-0.000736709 	-0.258386
0.00953177 	6.80241e-05 	-0.000736709 	-0.258386
0.00958194 	3.04827e-05 	-0.000737274 	-0.258085
0.00958194 	3.04827e-05 	-0.000737274 	-0.258085
0.00963211 	-8.09768e-06 	-0.00073745 	-0.257777
0.00963211 	-8.09768e-06 	-0.00073745 	-0.257777
0.00968227 	-4.66781e-05 	-0.000737626 	-0.257468
0.00968227 	-4.66781e-05 	-0.000737626 	-0.257468
0.00973244 	-8.73947e-05 	-0.000737027 	-0.257142
0.00978261 	-0.000128497 	-0.000736288 	-0.256813
0.00983278 	-0.000169843 	-0.000735458 	-0.256482
0.00988294 	-0.000212887 	-0.000733987 	-0.256131
0.00988294 	-0.000212887 	-0.000733987 	-0.256131
0.00993311 	-0.000255931 	-0.000732516 	-0.25578
0.00998328 	-0.000299467 	-0.000730778 	-0.255418
0.00998328 	-0.000299467 	-0.000730778 	-0.255418
0.0100334 	-0.000343601 	-0.000728716 	-0.255043
0.0100334 	-0.000343601 	-0.000728716 	-0.255043
0.0100836 	-0.000387735 	-0.000726655 	-0.254668
0.0101338 	-0.00043222 	-0.000724119 	-0.254272
0.0101338 	-0.00043222 	-0.000724119 	-0.254272
0.0102341 	-0.000521412 	-0.000718717 	-0.253465
0.0102341 	-0.000521412 	-0.000718717 	-0.253465
0.0102843 	-0.000566269 	-0.000715554 	-0.253038
0.0103344 	-0.000611125 	-0.000712391 	-0.252611
0.0103344 	-0.000611125 	-0.000712391 	-0.252611
0.0103846 	-0.000656267 	-0.000708458 	-0.252164
0.0103846 	-0.000656267 	-0.000708458 	-0.252164
0.0104348 	-0.000701527 	-0.000704207 	-0.251709
0.0104849 	-0.000746789 	-0.000699566 	-0.251246
0.0104849 	-0.000746789 	-0.000699566 	-0.251246
0.0105351 	-0.000792063 	-0.000693521 	-0.250759
0.0105853 	-0.000837337 	-0.000687475 	-0.250271
0.0105853 	-0.000837337 	-0.000687475 	-0.250271
0.0106355 	-0.000882017 	-0.000681462 	-0.249752
0.0106856 	-0.000926521 	-0.000675459 	-0.249225
0.0106856 	-0.000926521 	-0.000675459 	-0.249225
0.0107358 	-0.000970811 	-0.000670264 	-0.24868
0.0107358 	-0.000970811 	-0.000670264 	-0.24868
0.010786 	-0.00101473 	-0.00066646 	-0.248106
0.010786 	-0.00101473 	-0.00066646 	-0.248106
0.0108361 	-0.00105866 	-0.000662652 	-0.247531
0.0108361 	-0.00105866 	-0.000662652 	-0.247531
0.0108863 	-0.00110352 	-0.000658121 	-0.246917
0.0109365 	-0.00114839 	-0.00065359 	-0.246303
0.0109365 	-0.00114839 	-0.00065359 	-0.246303
0.0109866 	-0.00119524 	-0.000645453 	-0.245678
0.0109866 	-0.00119524 	-0.000645453 	-0.245678
0.0110368 	-0.00124301 	-0.00063567 	-0.245048
0.011087 	-0.00129247 	-0.00062443 	-0.244414
0.011087 	-0.00129247 	-0.00062443 	-0.244414
0.0111371 	-0.00134441 	-0.000611079 	-0.243777
0.0111873 	-0.00139698 	-0.000598026 	-0.243135
0.0111873 	-0.00139698 	-0.000598026 	-0.243135
0.0112375 	-0.00145268 	-0.000586444 	-0.242475
0.0112876 	-0.00150838 	-0.000574862 	-0.241815
0.0112876 	-0.00150838 	-0.000574862 	-0.241815
0.0113378 	-0.00156628 	-0.000566447 	-0.241118
0.011388 	-0.00162425 	-0.00055813 	-0.240419
0.011388 	-0.00162425 	-0.00055813 	-0.240419
0.0114883 	-0.00174261 	-0.0005414 	-0.238947
0.0114883 	-0.00174261 	-0.0005414 	-0.238947
0.0115385 	-0.00180284 	-0.000531495 	-0.238181
0.0115886 	-0.00186348 	-0.000520893 	-0.237402
0.0115886 	-0.00186348 	-0.000520893 	-0.237402
0.0116388 	-0.00192497 	-0.000510019 	-0.2366
0.011689 	-0.00198702 	-0.000498966 	-0.235783
0.011689 	-0.00198702 	-0.000498966 	-0.235783
0.0117391 	-0.00204972 	-0.000488291 	-0.234944
0.0117893 	-0.00211296 	-0.000477919 	-0.234087
0.0117893 	-0.00211296 	-0.000477919 	-0.234087
0.0118395 	-0.00217663 	-0.000467679 	-0.233207
0.0118896 	-0.00224068 	-0.000457551 	-0.232307
0.0118896 	-0.00224068 	-0.000457551 	-0.232307
0.0119398 	-0.00230499 	-0.000447422 	-0.231383
0.0119398 	-0.00230499 	-0.000447422 	-0.231383
0.01199 	-0.0023695 	-0.000437294 	-0.230439
0.01199 	-0.0023695 	-0.000437294 	-0.230439
0.0120401 	-0.00243412 	-0.000426851 	-0.229465
0.0120401 	-0.00243412 	-0.000426851 	-0.229465
0.0120903 	-0.00249882 	-0.000416219 	-0.228474
0.0120903 	-0.00249882 	-0.000416219 	-0.228474
0.0121405 	-0.00256335 	-0.000404745 	-0.227445
0.0121405 	-0.00256335 	-0.000404745 	-0.227445
0.0121906 	-0.00262782 	-0.000392938 	-0.226402
0.0121906 	-0.00262782 	-0.000392938 	-0.226402
0.0122408 	-0.00269171 	-0.000379962 	-0.22531
0.0122408 	-0.00269171 	-0.000379962 	-0.22531
0.012291 	-0.00275549 	-0.000366765 	-0.224209
0.012291 	-0.00275549 	-0.000366765 	-0.224209
0.0123411 	-0.00281851 	-0.000352745 	-0.223048
0.0123411 	-0.00281851 	-0.000352745 	-0.223048
0.0123913 	-0.00288146 	-0.000338752 	-0.221876
0.0123913 	-0.00288146 	-0.000338752 	-0.221876
0.0124415 	-0.00294408 	-0.000324874 	-0.220654
0.0124916 	-0.00300679 	-0.000311343 	-0.219406
0.0124916 	-0.00300679 	-0.000311343 	-0.219406
0.012592 	-0.00313294 	-0.000285872 	-0.216794
0.012592 	-0.00313294 	-0.000285872 	-0.216794
0.0126421 	-0.00319648 	-0.000273744 	-0.215445
0.0126923 	-0.0032607 	-0.000262065 	-0.214031
0.0126923 	-0.0032607 	-0.000262065 	-0.214031
0.0127425 	-0.00332506 	-0.000250407 	-0.212594
0.0127425 	-0.00332506 	-0.000250407 	-0.212594
0.0127926 	-0.00338974 	-0.00023875 	-0.211103
0.0128428 	-0.00345454 	-0.00022694 	-0.209562
0.0128428 	-0.00345454 	-0.00022694 	-0.209562
0.012893 	-0.00351941 	-0.000215037 	-0.20799
0.0129431 	-0.00358435 	-0.000203346 	-0.20633
0.0129431 	-0.00358435 	-0.000203346 	-0.20633
0.0129933 	-0.00364925 	-0.000191981 	-0.204633
0.0130435 	-0.00371411 	-0.000181115 	-0.202877
0.0130435 	-0.00371411 	-0.000181115 	-0.202877
0.0130936 	-0.00377872 	-0.000170668 	-0.201038
0.0131438 	-0.00384309 	-0.000160401 	-0.199149
0.0131438 	-0.00384309 	-0.000160401 	-0.199149
0.013194 	-0.00390698 	-0.000150362 	-0.19718
0.0132441 	-0.00396983 	-0.000140428 	-0.195118
0.0132441 	-0.00396983 	-0.000140428 	-0.195118
0.0132943 	-0.00403181 	-0.000130436 	-0.19299
0.0133445 	-0.00409234 	-0.000120215 	-0.190765
0.0133445 	-0.00409234 	-0.000120215 	-0.190765
0.0133946 	-0.00415092 	-0.000109977 	-0.188417
0.0134448 	-0.00420799 	-9.99141e-05 	-0.185977
0.0134448 	-0.00420799 	-9.99141e-05 	-0.185977
0.013495 	-0.0042633 	-9.0137e-05 	-0.183434
0.0135452 	-0.00431399 	-8.13852e-05 	-0.180701
0.0135452 	-0.00431399 	-8.13852e-05 	-0.180701
0.0136455 	-0.00439858 	-6.6441e-05 	-0.174811
0.0136455 	-0.00439858 	-6.6441e-05 	-0.174811
0.0136957 	-0.00442722 	-5.96986e-05 	-0.171591
0.0137458 	-0.00443994 	-5.273e-05 	-0.168116
0.0137458 	-0.00443994 	-5.273e-05 	-0.168116
0.013796 	-0.00443892 	-4.60288e-05 	-0.16443
0.0138462 	-0.00442313 	-3.97453e-05 	-0.160516
0.0138462 	-0.00442313 	-3.97453e-05 	-0.160516
0.0138963 	-0.00439167 	-3.39701e-05 	-0.156359
0.0138963 	-0.00439167 	-3.39701e-05 	-0.156359
0.0139465 	-0.00433907 	-2.85865e-05 	-0.151861
0.0139967 	-0.0042699 	-2.35238e-05 	-0.147084
0.0139967 	-0.0042699 	-2.35238e-05 	-0.147084
0.0140468 	-0.00418413 	-1.89254e-05 	-0.142017
0.0140468 	-0.00418413 	-1.89254e-05 	-0.142017
0.014097 	-0.00408144 	-1.49576e-05 	-0.136642
0.0141472 	-0.00396172 	-1.17344e-05 	-0.130939
0.0141973 	-0.00382523 	-9.16665e-06 	-0.124891
0.0141973 	-0.00382523 	-9.16665e-06 	-0.124891
0.0142475 	-0.00366933 	-7.18472e-06 	-0.11842
0.0142977 	-0.00349523 	-5.68271e-06 	-0.111562
0.0143478 	-0.00330076 	-4.61398e-06 	-0.104312
0.0143478 	-0.00330076 	-4.61398e-06 	-0.104312
0.014398 	-0.00308379 	-3.96338e-06 	-0.0966845
0.014398 	-0.00308379 	-3.96338e-06 	-0.0966845
0.0144482 	-0.00284337 	-3.64231e-06 	-0.0887226
0.0144983 	-0.00258064 	-3.4571e-06 	-0.0804976
0.0144983 	-0.00258064 	-3.4571e-06 	-0.0804976
0.0145485 	-0.00229942 	-3.21259e-06 	-0.0721076
0.0145987 	-0.00200642 	-2.77413e-06 	-0.0636667
0.0145987 	-0.00200642 	-2.77413e-06 	-0.0636667
0.0146488 	-0.00171042 	-2.01611e-06 	-0.0552836
0.014699 	-0.00142044 	-8.14309e-07 	-0.0470379
0.014699 	-0.00142044 	-8.14309e-07 	-0.0470379
0.0147492 	-0.0011441 	8.90795e-07 	-0.0389617
0.0147993 	-0.000887325 	2.96303e-06 	-0.0310293
0.0147993 	-0.000887325 	2.96303e-06 	-0.0310293
0.0148495 	-0.00065569 	4.84351e-06 	-0.0231382
0.0148495 	-0.00065569 	4.84351e-06 	-0.0231382
0.0148997 	-0.000447411 	4.971e-06 	-0.0151896
0.0148997 	-0.000447411 	4.971e-06 	-0.0151896
0.0149498 	-0.000238664 	3.25124e-06 	-0.00736168
0.0149498 	-0.000238664 	3.25124e-06 	-0.00736168
0.015 	0 	0 	0
