0 	0 	0 	0
0 	-5.75616e-36 	-2.42601e-36 	1.8565e-31
5.01672e-05 	-5.71825e-07 	-2.70451e-07 	0.0173178
5.01672e-05 	-5.71825e-07 	-2.70451e-07 	0.0173178
0.000100334 	-1.35131e-06 	-9.24179e-07 	0.03331
0.000150502 	-2.09887e-06 	-2.0105e-06 	0.0481475
0.000150502 	-2.09887e-06 	-2.0105e-06 	0.0481475
0.000200669 	-2.73165e-06 	-3.52612e-06 	0.0619179
0.000200669 	-2.73165e-06 	-3.52612e-06 	0.0619179
0.000250836 	-3.26989e-06 	-5.46875e-06 	0.0747
0.000301003 	-3.73207e-06 	-7.82743e-06 	0.08656
0.000301003 	-3.73207e-06 	-7.82743e-06 	0.08656
0.000351171 	-4.12587e-06 	-1.05983e-05 	0.0975421
0.000401338 	-4.4571e-06 	-1.3787e-05 	0.107668
0.000451505 	-4.73067e-06 	-1.74148e-05 	0.116954
0.000451505 	-4.73067e-06 	-1.74148e-05 	0.116954
0.000501672 	-4.95077e-06 	-2.15156e-05 	0.125425
0.000551839 	-5.12115e-06 	-2.61257e-05 	0.133128
0.000551839 	-5.12115e-06 	-2.61257e-05 	0.133128
0.000602007 	-5.24545e-06 	-3.12736e-05 	0.140124
0.000602007 	-5.24545e-06 	-3.12736e-05 	0.140124
0.000652174 	-5.32747e-06 	-3.69799e-05 	0.146481
0.000652174 	-5.32747e-06 	-3.69799e-05 	0.146481
0.000702341 	-5.37116e-06 	-4.32619e-05 	0.152275
0.000702341 	-5.37116e-06 	-4.32619e-05 	0.152275
0.000752508 	-5.38045e-06 	-5.0135e-05 	0.157572
0.000802676 	-5.35863e-06 	-5.76138e-05 	0.162429
0.000852843 	-5.30496e-06 	-6.57953e-05 	0.166839
0.000852843 	-5.30496e-06 	-6.57953e-05 	0.166839
0.00090301 	-5.22731e-06 	-7.45539e-05 	0.170912
0.00090301 	-5.22731e-06 	-7.45539e-05 	0.170912
0.000953177 	-5.12851e-06 	-8.38395e-05 	0.174688
0.00100334 	-5.01109e-06 	-9.36005e-05 	0.178202
0.00100334 	-5.01109e-06 	-9.36005e-05 	0.178202
0.00105351 	-4.87729e-06 	-0.000103787 	0.181487
0.00105351 	-4.87729e-06 	-0.000103787 	0.181487
0.00110368 	-4.72871e-06 	-0.000114363 	0.184566
0.00115385 	-4.56395e-06 	-0.000125369 	0.187416
0.00120401 	-4.38879e-06 	-0.000136654 	0.190115
0.00120401 	-4.38879e-06 	-0.000136654 	0.190115
0.00130435 	-4.01205e-06 	-0.000159923 	0.195121
0.00130435 	-4.01205e-06 	-0.000159923 	0.195121
0.00135452 	-3.81046e-06 	-0.000171894 	0.19742
0.00135452 	-3.81046e-06 	-0.000171894 	0.19742
0.00140468 	-3.60208e-06 	-0.000184021 	0.19961
0.00145485 	-3.38856e-06 	-0.000196253 	0.201715
0.00145485 	-3.38856e-06 	-0.000196253 	0.201715
0.00150502 	-3.17039e-06 	-0.000208572 	0.203744
0.00150502 	-3.17039e-06 	-0.000208572 	0.203744
0.00155518 	-2.94577e-06 	-0.000220974 	0.205665
0.00155518 	-2.94577e-06 	-0.000220974 	0.205665
0.00160535 	-2.71764e-06 	-0.000233393 	0.207526
0.00160535 	-2.71764e-06 	-0.000233393 	0.207526
0.00165552 	-2.48649e-06 	-0.000245815 	0.209333
0.00165552 	-2.48649e-06 	-0.000245815 	0.209333
0.00170569 	-2.25148e-06 	-0.000258205 	0.21107
0.00170569 	-2.25148e-06 	-0.000258205 	0.21107
0.00175585 	-2.01377e-06 	-0.000270518 	0.212752
0.00175585 	-2.01377e-06 	-0.000270518 	0.212752
0.00180602 	-1.77429e-06 	-0.000282761 	0.214396
0.00180602 	-1.77429e-06 	-0.000282761 	0.214396
0.00185619 	-1.5325e-06 	-0.00029487 	0.215986
0.00185619 	-1.5325e-06 	-0.00029487 	0.215986
0.00190635 	-1.28901e-06 	-0.000306809 	0.217531
0.00190635 	-1.28901e-06 	-0.000306809 	0.217531
0.00195652 	-1.04452e-06 	-0.000318628 	0.219048
0.00195652 	-1.04452e-06 	-0.000318628 	0.219048
0.00200669 	-7.98549e-07 	-0.000330203 	0.220518
0.00200669 	-7.98549e-07 	-0.000330203 	0.220518
0.00205686 	-5.51775e-07 	-0.00034156 	0.221955
0.00210702 	-3.04475e-07 	-0.000352773 	0.22337
0.00210702 	-3.04475e-07 	-0.000352773 	0.22337
0.00215719 	-5.63078e-08 	-0.000363578 	0.224737
0.00220736 	1.92046e-07 	-0.000374205 	0.226086
0.00225753 	4.40699e-07 	-0.000384547 	0.227406
0.00225753 	4.40699e-07 	-0.000384547 	0.227406
0.00230769 	6.89455e-07 	-0.000394515 	0.228694
0.00230769 	6.89455e-07 	-0.000394515 	0.228694
0.00235786 	9.38241e-07 	-0.00040432 	0.229969
0.00235786 	9.38241e-07 	-0.00040432 	0.229969
0.00240803 	1.18687e-06 	-0.000413596 	0.231203
0.00240803 	1.18687e-06 	-0.000413596 	0.231203
0.00245819 	1.43537e-06 	-0.000422677 	0.232424
0.00245819 	1.43537e-06 	-0.000422677 	0.232424
0.00250836 	1.68358e-06 	-0.000431362 	0.233617
0.00250836 	1.68358e-06 	-0.000431362 	0.233617
0.00255853 	1.93142e-06 	-0.000439684 	0.234788
0.0026087 	2.179e-06 	-0.000447747 	0.235942
0.0026087 	2.179e-06 	-0.000447747 	0.235942
0.00265886 	2.42594e-06 	-0.000455285 	0.237064
0.00270903 	2.67272e-06 	-0.000462698 	0.238179
0.00270903 	2.67272e-06 	-0.000462698 	0.238179
0.0027592 	2.91864e-06 	-0.000469439 	0.239255
0.00280936 	3.16442e-06 	-0.00047607 	0.240326
0.00280936 	3.16442e-06 	-0.00047607 	0.240326
0.00285953 	3.40948e-06 	-0.00048212 	0.241363
0.00285953 	3.40948e-06 	-0.00048212 	0.241363
0.0029097 	3.65432e-06 	-0.000487973 	0.24239
0.0029097 	3.65432e-06 	-0.000487973 	0.24239
0.00295987 	3.89862e-06 	-0.000493329 	0.24339
0.00295987 	3.89862e-06 	-0.000493329 	0.24339
0.00301003 	4.14268e-06 	-0.000498428 	0.244375
0.0030602 	4.38636e-06 	-0.000503102 	0.245337
0.00311037 	4.6298e-06 	-0.000507493 	0.246282
0.00311037 	4.6298e-06 	-0.000507493 	0.246282
0.00316054 	4.87296e-06 	-0.000511516 	0.247205
0.00316054 	4.87296e-06 	-0.000511516 	0.247205
0.00326087 	5.35865e-06 	-0.000518674 	0.248997
0.00326087 	5.35865e-06 	-0.000518674 	0.248997
0.00331104 	5.60126e-06 	-0.00052184 	0.249866
0.0033612 	5.84373e-06 	-0.000524697 	0.250713
0.0033612 	5.84373e-06 	-0.000524697 	0.250713
0.00341137 	6.08628e-06 	-0.000527356 	0.251546
0.00341137 	6.08628e-06 	-0.000527356 	0.251546
0.00346154 	6.32894e-06 	-0.000529714 	0.252355
0.00346154 	6.32894e-06 	-0.000529714 	0.252355
0.00351171 	6.57185e-06 	-0.000531935 	0.253153
0.00356187 	6.81529e-06 	-0.000533854 	0.253925
0.00356187 	6.81529e-06 	-0.000533854 	0.253925
0.00361204 	7.05892e-06 	-0.0005357 	0.254691
0.00366221 	7.30341e-06 	-0.000537235 	0.255428
0.00366221 	7.30341e-06 	-0.000537235 	0.255428
0.00371237 	7.54792e-06 	-0.000538759 	0.256165
0.00371237 	7.54792e-06 	-0.000538759 	0.256165
0.00376254 	7.79318e-06 	-0.000539953 	0.25687
0.00376254 	7.79318e-06 	-0.000539953 	0.25687
0.00381271 	8.03844e-06 	-0.000541148 	0.257574
0.00381271 	8.03844e-06 	-0.000541148 	0.257574
0.00386288 	8.28385e-06 	-0.000542092 	0.258252
0.00391304 	8.52928e-06 	-0.000542986 	0.258925
0.00391304 	8.52928e-06 	-0.000542986 	0.258925
0.00396321 	8.77446e-06 	-0.000543721 	0.259578
0.00401338 	9.01947e-06 	-0.000544349 	0.260219
0.00401338 	9.01947e-06 	-0.000544349 	0.260219
0.00406355 	9.26417e-06 	-0.000544903 	0.260849
0.00406355 	9.26417e-06 	-0.000544903 	0.260849
0.00411371 	9.50821e-06 	-0.0005453 	0.261457
0.00411371 	9.50821e-06 	-0.0005453 	0.261457
0.00421405 	9.99478e-06 	-0.0005459 	0.262642
0.00421405 	9.99478e-06 	-0.0005459 	0.262642
0.00426421 	1.02373e-05 	-0.000546102 	0.263218
0.00426421 	1.02373e-05 	-0.000546102 	0.263218
0.00431438 	1.04784e-05 	-0.000546205 	0.263773
0.00431438 	1.04784e-05 	-0.000546205 	0.263773
0.00436455 	1.07188e-05 	-0.000546249 	0.264317
0.00436455 	1.07188e-05 	-0.000546249 	0.264317
0.00441472 	1.09585e-05 	-0.000546266 	0.264853
0.00441472 	1.09585e-05 	-0.000546266 	0.264853
0.00446488 	1.11959e-05 	-0.000546188 	0.265365
0.00446488 	1.11959e-05 	-0.000546188 	0.265365
0.00451505 	1.14333e-05 	-0.000546111 	0.265876
0.00451505 	1.14333e-05 	-0.000546111 	0.265876
0.00456522 	1.16679e-05 	-0.000545967 	0.266362
0.00456522 	1.16679e-05 	-0.000545967 	0.266362
0.00461538 	1.19016e-05 	-0.000545805 	0.26684
0.00461538 	1.19016e-05 	-0.000545805 	0.26684
0.00466555 	1.21339e-05 	-0.000545627 	0.26731
0.00471572 	1.2363e-05 	-0.000545414 	0.267756
0.00476589 	1.25921e-05 	-0.000545201 	0.268202
0.00476589 	1.25921e-05 	-0.000545201 	0.268202
0.00486622 	1.30404e-05 	-0.000544742 	0.269037
0.00486622 	1.30404e-05 	-0.000544742 	0.269037
0.00491639 	1.32627e-05 	-0.000544512 	0.269445
0.00496656 	1.34797e-05 	-0.00054429 	0.269827
0.00496656 	1.34797e-05 	-0.00054429 	0.269827
0.00501672 	1.36966e-05 	-0.000544068 	0.270208
0.00506689 	1.39094e-05 	-0.000543864 	0.270571
0.00511706 	1.41189e-05 	-0.000543675 	0.27092
0.00511706 	1.41189e-05 	-0.000543675 	0.27092
0.00521739 	1.45302e-05 	-0.000543343 	0.27159
0.00521739 	1.45302e-05 	-0.000543343 	0.27159
0.00526756 	1.4731e-05 	-0.000543206 	0.271907
0.00526756 	1.4731e-05 	-0.000543206 	0.271907
0.00531773 	1.49303e-05 	-0.00054308 	0.272219
0.00536789 	1.51215e-05 	-0.000543008 	0.272504
0.00536789 	1.51215e-05 	-0.000543008 	0.272504
0.00541806 	1.53126e-05 	-0.000542937 	0.272789
0.00546823 	1.54996e-05 	-0.000542893 	0.273062
0.00551839 	1.568e-05 	-0.000542895 	0.273316
0.00551839 	1.568e-05 	-0.000542895 	0.273316
0.00556856 	1.58603e-05 	-0.000542896 	0.273569
0.00556856 	1.58603e-05 	-0.000542896 	0.273569
0.0056689 	1.62022e-05 	-0.000543014 	0.274029
0.0056689 	1.62022e-05 	-0.000543014 	0.274029
0.00571906 	1.63706e-05 	-0.000543089 	0.274252
0.00576923 	1.65297e-05 	-0.000543211 	0.274455
0.00576923 	1.65297e-05 	-0.000543211 	0.274455
0.0058194 	1.66846e-05 	-0.000543355 	0.274648
0.0058194 	1.66846e-05 	-0.000543355 	0.274648
0.00591973 	1.69829e-05 	-0.000543686 	0.275012
0.00591973 	1.69829e-05 	-0.000543686 	0.275012
0.0059699 	1.71227e-05 	-0.000543886 	0.275177
0.0059699 	1.71227e-05 	-0.000543886 	0.275177
0.00602007 	1.72626e-05 	-0.000544087 	0.275341
0.00607023 	1.73891e-05 	-0.000544319 	0.275484
0.0061204 	1.75121e-05 	-0.00054456 	0.27562
0.0061204 	1.75121e-05 	-0.00054456 	0.27562
0.00617057 	1.76351e-05 	-0.000544801 	0.275757
0.00622074 	1.77438e-05 	-0.000545058 	0.275873
0.00622074 	1.77438e-05 	-0.000545058 	0.275873
0.0062709 	1.78481e-05 	-0.00054532 	0.275982
0.00632107 	1.79524e-05 	-0.000545582 	0.276092
0.00632107 	1.79524e-05 	-0.000545582 	0.276092
0.00637124 	1.80427e-05 	-0.000545845 	0.276184
0.00637124 	1.80427e-05 	-0.000545845 	0.276184
0.0064214 	1.81263e-05 	-0.000546108 	0.276268
0.0064214 	1.81263e-05 	-0.000546108 	0.276268
0.00647157 	1.821e-05 	-0.000546372 	0.276351
0.00647157 	1.821e-05 	-0.000546372 	0.276351
0.00652174 	1.82812e-05 	-0.000546622 	0.276421
0.00657191 	1.8342e-05 	-0.00054686 	0.276479
0.00657191 	1.8342e-05 	-0.00054686 	0.276479
0.00662207 	1.84028e-05 	-0.000547098 	0.276537
0.00667224 	1.84547e-05 	-0.000547323 	0.276587
0.00672241 	1.84903e-05 	-0.000547524 	0.27662
0.00672241 	1.84903e-05 	-0.000547524 	0.27662
0.00677258 	1.85258e-05 	-0.000547725 	0.276654
0.00682274 	1.85585e-05 	-0.000547922 	0.276685
0.00682274 	1.85585e-05 	-0.000547922 	0.276685
0.00687291 	1.85661e-05 	-0.000548079 	0.276694
0.00687291 	1.85661e-05 	-0.000548079 	0.276694
0.00692308 	1.85737e-05 	-0.000548237 	0.276703
0.00697324 	1.85813e-05 	-0.000548395 	0.276712
0.00702341 	1.85648e-05 	-0.000548497 	0.276702
0.00707358 	1.85418e-05 	-0.000548584 	0.276687
0.00707358 	1.85418e-05 	-0.000548584 	0.276687
0.00717391 	1.84818e-05 	-0.000548733 	0.276646
0.00717391 	1.84818e-05 	-0.000548733 	0.276646
0.00722408 	1.84253e-05 	-0.000548759 	0.276607
0.00722408 	1.84253e-05 	-0.000548759 	0.276607
0.00727425 	1.83689e-05 	-0.000548786 	0.276568
0.00727425 	1.83689e-05 	-0.000548786 	0.276568
0.00732441 	1.83124e-05 	-0.000548812 	0.276529
0.00732441 	1.83124e-05 	-0.000548812 	0.276529
0.00737458 	1.82206e-05 	-0.000548754 	0.276466
0.00737458 	1.82206e-05 	-0.000548754 	0.276466
0.00742475 	1.81284e-05 	-0.000548695 	0.276403
0.00747492 	1.80362e-05 	-0.000548636 	0.27634
0.00752508 	1.7926e-05 	-0.000548518 	0.276266
0.00752508 	1.7926e-05 	-0.000548518 	0.276266
0.00757525 	1.77976e-05 	-0.000548341 	0.276179
0.00762542 	1.76692e-05 	-0.000548164 	0.276092
0.00767559 	1.75406e-05 	-0.000547986 	0.276005
0.00767559 	1.75406e-05 	-0.000547986 	0.276005
0.00772575 	1.73768e-05 	-0.000547706 	0.275894
0.00777592 	1.7213e-05 	-0.000547427 	0.275784
0.00777592 	1.7213e-05 	-0.000547427 	0.275784
0.00782609 	1.70493e-05 	-0.000547147 	0.275673
0.00787625 	1.68673e-05 	-0.000546796 	0.275549
0.00787625 	1.68673e-05 	-0.000546796 	0.275549
0.00792642 	1.66721e-05 	-0.000546392 	0.275415
0.00797659 	1.64769e-05 	-0.000545987 	0.275281
0.00802676 	1.6276e-05 	-0.000545558 	0.275142
0.00802676 	1.6276e-05 	-0.000545558 	0.275142
0.00807692 	1.60534e-05 	-0.000545032 	0.274985
0.00807692 	1.60534e-05 	-0.000545032 	0.274985
0.00812709 	1.58309e-05 	-0.000544507 	0.274828
0.00817726 	1.56084e-05 	-0.000543981 	0.274671
0.00817726 	1.56084e-05 	-0.000543981 	0.274671
0.00822742 	1.53641e-05 	-0.000543365 	0.274494
0.00827759 	1.51175e-05 	-0.000542739 	0.274314
0.00827759 	1.51175e-05 	-0.000542739 	0.274314
0.00832776 	1.48708e-05 	-0.000542113 	0.274135
0.00832776 	1.48708e-05 	-0.000542113 	0.274135
0.00837793 	1.46106e-05 	-0.000541416 	0.273941
0.00842809 	1.43432e-05 	-0.000540681 	0.273738
0.00842809 	1.43432e-05 	-0.000540681 	0.273738
0.00847826 	1.40757e-05 	-0.000539946 	0.273536
0.00847826 	1.40757e-05 	-0.000539946 	0.273536
0.0085786 	1.35149e-05 	-0.000538319 	0.273099
0.0085786 	1.35149e-05 	-0.000538319 	0.273099
0.00862876 	1.32296e-05 	-0.000537476 	0.272875
0.00867893 	1.29396e-05 	-0.0005366 	0.272643
0.0087291 	1.26395e-05 	-0.000535652 	0.272396
0.00877926 	1.23394e-05 	-0.000534703 	0.272149
0.00882943 	1.20364e-05 	-0.00053373 	0.271897
0.0088796 	1.1724e-05 	-0.000532677 	0.271627
0.0088796 	1.1724e-05 	-0.000532677 	0.271627
0.00892977 	1.14116e-05 	-0.000531624 	0.271358
0.00892977 	1.14116e-05 	-0.000531624 	0.271358
0.00897993 	1.10972e-05 	-0.000530549 	0.271083
0.00897993 	1.10972e-05 	-0.000530549 	0.271083
0.0090301 	1.0775e-05 	-0.000529393 	0.270791
0.00908027 	1.04527e-05 	-0.000528236 	0.270499
0.00908027 	1.04527e-05 	-0.000528236 	0.270499
0.00913043 	1.01286e-05 	-0.000527056 	0.270202
0.0091806 	9.79859e-06 	-0.000525797 	0.269887
0.0091806 	9.79859e-06 	-0.000525797 	0.269887
0.00923077 	9.46856e-06 	-0.000524538 	0.269572
0.00928094 	9.13669e-06 	-0.000523246 	0.26925
0.00928094 	9.13669e-06 	-0.000523246 	0.26925
0.0093311 	8.80074e-06 	-0.000521884 	0.268912
0.00938127 	8.46479e-06 	-0.000520521 	0.268575
0.00938127 	8.46479e-06 	-0.000520521 	0.268575
0.00943144 	8.12696e-06 	-0.000519113 	0.268227
0.00943144 	8.12696e-06 	-0.000519113 	0.268227
0.00948161 	7.78673e-06 	-0.000517646 	0.267866
0.00948161 	7.78673e-06 	-0.000517646 	0.267866
0.00953177 	7.4465e-06 	-0.000516179 	0.267505
0.00953177 	7.4465e-06 	-0.000516179 	0.267505
0.00958194 	7.10451e-06 	-0.000514646 	0.267129
0.00958194 	7.10451e-06 	-0.000514646 	0.267129
0.00963211 	6.76142e-06 	-0.000513073 	0.266745
0.00968227 	6.41834e-06 	-0.000511499 	0.26636
0.00968227 	6.41834e-06 	-0.000511499 	0.26636
0.00973244 	6.07388e-06 	-0.000509833 	0.265956
0.00978261 	5.72918e-06 	-0.000508151 	0.265547
0.00978261 	5.72918e-06 	-0.000508151 	0.265547
0.00983278 	5.38441e-06 	-0.000506454 	0.265136
0.00983278 	5.38441e-06 	-0.000506454 	0.265136
0.00988294 	5.03916e-06 	-0.000504659 	0.264703
0.00993311 	4.69392e-06 	-0.000502864 	0.26427
0.00993311 	4.69392e-06 	-0.000502864 	0.26427
0.00998328 	4.34886e-06 	-0.000501017 	0.263826
0.0100334 	4.00402e-06 	-0.000499105 	0.263369
0.0100836 	3.65918e-06 	-0.000497194 	0.262911
0.0100836 	3.65918e-06 	-0.000497194 	0.262911
0.0101338 	3.31538e-06 	-0.000495182 	0.262432
0.0101839 	2.9718e-06 	-0.000493149 	0.261949
0.0101839 	2.9718e-06 	-0.000493149 	0.261949
0.0102341 	2.62871e-06 	-0.000491085 	0.26146
0.0102341 	2.62871e-06 	-0.000491085 	0.26146
0.0102843 	2.28716e-06 	-0.000488925 	0.26095
0.0103344 	1.9456e-06 	-0.000486764 	0.260441
0.0103344 	1.9456e-06 	-0.000486764 	0.260441
0.0103846 	1.60596e-06 	-0.000484509 	0.259913
0.0103846 	1.60596e-06 	-0.000484509 	0.259913
0.0104348 	1.2671e-06 	-0.000482214 	0.259377
0.0104348 	1.2671e-06 	-0.000482214 	0.259377
0.0104849 	9.28966e-07 	-0.000479888 	0.258835
0.0104849 	9.28966e-07 	-0.000479888 	0.258835
0.0105351 	5.93402e-07 	-0.000477452 	0.258271
0.0105853 	2.57838e-07 	-0.000475016 	0.257707
0.0105853 	2.57838e-07 	-0.000475016 	0.257707
0.0106856 	-4.06527e-07 	-0.000469877 	0.256529
0.0106856 	-4.06527e-07 	-0.000469877 	0.256529
0.0107358 	-7.36697e-07 	-0.000467232 	0.255926
0.010786 	-1.06416e-06 	-0.000464488 	0.255303
0.010786 	-1.06416e-06 	-0.000464488 	0.255303
0.0108361 	-1.39158e-06 	-0.000461741 	0.254681
0.0108863 	-1.71433e-06 	-0.000458829 	0.254028
0.0108863 	-1.71433e-06 	-0.000458829 	0.254028
0.0109365 	-2.03708e-06 	-0.000455917 	0.253375
0.0109365 	-2.03708e-06 	-0.000455917 	0.253375
0.0109866 	-2.35632e-06 	-0.000452884 	0.252701
0.0110368 	-2.67395e-06 	-0.000449797 	0.252016
0.0110368 	-2.67395e-06 	-0.000449797 	0.252016
0.011087 	-2.98934e-06 	-0.000446633 	0.251317
0.011087 	-2.98934e-06 	-0.000446633 	0.251317
0.0111371 	-3.30147e-06 	-0.000443358 	0.250599
0.0111873 	-3.61259e-06 	-0.000440049 	0.249874
0.0111873 	-3.61259e-06 	-0.000440049 	0.249874
0.0112375 	-3.9188e-06 	-0.000436572 	0.249121
0.0112876 	-4.22501e-06 	-0.000433095 	0.248368
0.0112876 	-4.22501e-06 	-0.000433095 	0.248368
0.0113378 	-4.52509e-06 	-0.000429405 	0.247579
0.0113378 	-4.52509e-06 	-0.000429405 	0.247579
0.011388 	-4.82498e-06 	-0.000425708 	0.246789
0.0114381 	-5.11956e-06 	-0.00042181 	0.245967
0.0114381 	-5.11956e-06 	-0.00042181 	0.245967
0.0114883 	-5.41289e-06 	-0.000417864 	0.245137
0.0115385 	-5.70158e-06 	-0.000413718 	0.244278
0.0115385 	-5.70158e-06 	-0.000413718 	0.244278
0.0115886 	-5.98817e-06 	-0.000409482 	0.243405
0.0116388 	-6.2706e-06 	-0.000405042 	0.242503
0.0116388 	-6.2706e-06 	-0.000405042 	0.242503
0.011689 	-6.55028e-06 	-0.000400469 	0.241582
0.0117391 	-6.8262e-06 	-0.000395679 	0.240632
0.0117893 	-7.0991e-06 	-0.000390716 	0.239659
0.0118395 	-7.3685e-06 	-0.000385517 	0.238654
0.0118395 	-7.3685e-06 	-0.000385517 	0.238654
0.0118896 	-7.63496e-06 	-0.00038012 	0.237624
0.0119398 	-7.8979e-06 	-0.000374461 	0.236557
0.0119398 	-7.8979e-06 	-0.000374461 	0.236557
0.01199 	-8.15813e-06 	-0.0003686 	0.235464
0.0120401 	-8.41444e-06 	-0.000362442 	0.234328
0.0120401 	-8.41444e-06 	-0.000362442 	0.234328
0.0120903 	-8.66839e-06 	-0.000356104 	0.233167
0.0120903 	-8.66839e-06 	-0.000356104 	0.233167
0.0121906 	-9.16499e-06 	-0.000342599 	0.230723
0.0121906 	-9.16499e-06 	-0.000342599 	0.230723
0.0122408 	-9.40647e-06 	-0.000335369 	0.229426
0.012291 	-9.64683e-06 	-0.000328062 	0.228117
0.012291 	-9.64683e-06 	-0.000328062 	0.228117
0.0123411 	-9.8797e-06 	-0.000320269 	0.226726
0.0123913 	-1.0111e-05 	-0.000312385 	0.225319
0.0123913 	-1.0111e-05 	-0.000312385 	0.225319
0.0124415 	-1.03359e-05 	-0.000304115 	0.223842
0.0124415 	-1.03359e-05 	-0.000304115 	0.223842
0.0124916 	-1.05571e-05 	-0.000295652 	0.222328
0.0124916 	-1.05571e-05 	-0.000295652 	0.222328
0.0125418 	-1.07732e-05 	-0.000286917 	0.22076
0.012592 	-1.09831e-05 	-0.000277889 	0.219127
0.0126421 	-1.11898e-05 	-0.000268715 	0.217462
0.0126421 	-1.11898e-05 	-0.000268715 	0.217462
0.0126923 	-1.13868e-05 	-0.000259157 	0.215701
0.0127425 	-1.15803e-05 	-0.000249484 	0.213906
0.0127425 	-1.15803e-05 	-0.000249484 	0.213906
0.0127926 	-1.17656e-05 	-0.000239552 	0.212034
0.0128428 	-1.19435e-05 	-0.000229439 	0.210093
0.0128428 	-1.19435e-05 	-0.000229439 	0.210093
0.0129431 	-1.22765e-05 	-0.000208763 	0.206008
0.0129431 	-1.22765e-05 	-0.000208763 	0.206008
0.0129933 	-1.24305e-05 	-0.000198256 	0.203859
0.0130435 	-1.25756e-05 	-0.00018766 	0.201635
0.0130435 	-1.25756e-05 	-0.00018766 	0.201635
0.0131438 	-1.28316e-05 	-0.000166369 	0.196913
0.0131438 	-1.28316e-05 	-0.000166369 	0.196913
0.013194 	-1.29431e-05 	-0.000155744 	0.194424
0.0132441 	-1.304e-05 	-0.000145209 	0.191825
0.0132441 	-1.304e-05 	-0.000145209 	0.191825
0.0132943 	-1.31265e-05 	-0.000134759 	0.18915
0.0133445 	-1.3198e-05 	-0.000124457 	0.186366
0.0133445 	-1.3198e-05 	-0.000124457 	0.186366
0.0133946 	-1.32508e-05 	-0.000114389 	0.18345
0.0133946 	-1.32508e-05 	-0.000114389 	0.18345
0.0134448 	-1.329e-05 	-0.000104513 	0.18044
0.0134448 	-1.329e-05 	-0.000104513 	0.18044
0.013495 	-1.3314e-05 	-9.48609e-05 	0.177325
0.0135452 	-1.33117e-05 	-8.56296e-05 	0.174032
0.0135452 	-1.33117e-05 	-8.56296e-05 	0.174032
0.0135953 	-1.32916e-05 	-7.67018e-05 	0.170618
0.0135953 	-1.32916e-05 	-7.67018e-05 	0.170618
0.0136455 	-1.32521e-05 	-6.81042e-05 	0.167075
0.0136455 	-1.32521e-05 	-6.81042e-05 	0.167075
0.0136957 	-1.31881e-05 	-5.99339e-05 	0.163366
0.0136957 	-1.31881e-05 	-5.99339e-05 	0.163366
0.0137458 	-1.30935e-05 	-5.23015e-05 	0.159448
0.013796 	-1.29738e-05 	-4.51104e-05 	0.155358
0.013796 	-1.29738e-05 	-4.51104e-05 	0.155358
0.0138462 	-1.28272e-05 	-3.83908e-05 	0.151082
0.0138462 	-1.28272e-05 	-3.83908e-05 	0.151082
0.0138963 	-1.26515e-05 	-3.21731e-05 	0.146605
0.0139465 	-1.24342e-05 	-2.66456e-05 	0.141838
0.0139465 	-1.24342e-05 	-2.66456e-05 	0.141838
0.0139967 	-1.2182e-05 	-2.16679e-05 	0.136825
0.0139967 	-1.2182e-05 	-2.16679e-05 	0.136825
0.0140468 	-1.18932e-05 	-1.72394e-05 	0.131552
0.0140468 	-1.18932e-05 	-1.72394e-05 	0.131552
0.014097 	-1.15654e-05 	-1.33683e-05 	0.125997
0.0141472 	-1.11958e-05 	-1.00547e-05 	0.120137
0.0141472 	-1.11958e-05 	-1.00547e-05 	0.120137
0.0141973 	-1.07814e-05 	-7.28455e-06 	0.113946
0.0142475 	-1.0311e-05 	-5.09955e-06 	0.107324
0.0142977 	-9.78911e-06 	-3.36928e-06 	0.100288
0.0142977 	-9.78911e-06 	-3.36928e-06 	0.100288
0.0143478 	-9.21567e-06 	-2.04936e-06 	0.0928279
0.014398 	-8.59295e-06 	-1.10033e-06 	0.0849624
0.014398 	-8.59295e-06 	-1.10033e-06 	0.0849624
0.0144482 	-7.92609e-06 	-4.72904e-07 	0.0767501
0.0144983 	-7.22335e-06 	-1.0676e-07 	0.0682956
0.0144983 	-7.22335e-06 	-1.0676e-07 	0.0682956
0.0145485 	-6.49581e-06 	6.54778e-08 	0.0597488
0.0145485 	-6.49581e-06 	6.54778e-08 	0.0597488
0.0145987 	-5.75591e-06 	1.1177e-07 	0.0512899
0.0146488 	-5.01502e-06 	9.22217e-08 	0.0430992
0.014699 	-4.28096e-06 	5.17306e-08 	0.0353243
0.014699 	-4.28096e-06 	5.17306e-08 	0.0353243
0.0147492 	-3.55631e-06 	1.7296e-08 	0.0280599
0.0147993 	-2.83678e-06 	-4.45883e-10 	0.0213501
0.0147993 	-2.83678e-06 	-4.45883e-10 	0.0213501
0.0148495 	-2.10637e-06 	-8.5603e-10 	0.0152045
0.0148495 	-2.10637e-06 	-8.5603e-10 	0.0152045
0.0148997 	-1.35184e-06 	4.33778e-09 	0.0096142
0.0148997 	-1.35184e-06 	4.33778e-09 	0.0096142
0.0149498 	-6.18768e-07 	6.95133e-09 	0.00456
0.0149498 	-6.18768e-07 	6.95133e-09 	0.00456
0.015 	0 	0 	0
0.015 	0 	0 	0
