/*--------------------------------*- C++ -*----------------------------------*\
| =========                 |                                                 |
| \\      /  F ield         | OpenFOAM: The Open Source CFD Toolbox           |
|  \\    /   O peration     | Version:  v1912                                 |
|   \\  /    A nd           | Website:  www.openfoam.com                      |
|    \\/     M anipulation  |                                                 |
\*---------------------------------------------------------------------------*/
FoamFile
{
    version     2.0;
    format      ascii;
    class       volScalarField;
    location    "9.2";
    object      omega;
}
// * * * * * * * * * * * * * * * * * * * * * * * * * * * * * * * * * * * * * //

dimensions      [0 0 -1 0 0 0 0];


internalField   nonuniform List<scalar> 
34128
(
156508
156508
156508
156508
156508
156508
156508
156508
156508
156508
156508
156508
25805.4
25803.6
25807.8
25811.3
25810.7
25807.3
25804.7
25805.5
25805.7
25804.7
25805
25805.5
8855.46
8853.93
8857.79
8861.19
8860.52
8857.27
8854.6
8854.99
8855.21
8854.6
8855.01
8855.69
4229.02
4227.68
4231.28
4234.69
4233.99
4230.79
4228.12
4227.98
4227.97
4227.7
4228.37
4229.15
2440.51
2439.2
2442.82
2446.53
2445.75
2442.4
2439.58
2438.81
2438.44
2438.53
2439.54
2440.47
1594.25
1592.86
1596.61
1600.73
1599.85
1596.33
1593.33
1591.86
1591.04
1591.48
1592.89
1593.96
1139.98
1138.46
1142.32
1146.79
1145.85
1142.25
1139.16
1136.97
1135.61
1136.4
1138.21
1139.36
874.851
873.15
876.989
881.698
880.752
877.246
874.201
871.312
869.373
870.484
872.662
873.831
710.618
708.707
712.385
717.169
716.278
713.056
710.216
706.701
704.162
705.574
708.056
709.149
604.066
601.929
605.299
609.995
609.235
606.464
603.969
599.922
596.813
598.487
601.196
602.127
532.108
529.74
532.679
537.152
536.59
534.402
532.354
527.881
524.269
526.164
529.019
529.712
481.624
479.026
481.445
485.593
485.285
483.77
482.223
477.432
473.409
475.492
478.416
478.812
444.806
441.982
443.821
447.585
447.573
446.771
445.742
440.738
436.415
438.662
441.586
441.639
416.833
413.79
415.021
418.378
418.688
418.592
418.067
412.949
408.448
410.847
413.716
413.384
394.649
391.398
392.019
394.978
395.624
396.189
396.129
390.984
386.426
388.985
391.74
390.996
376.278
372.843
372.875
375.466
376.451
377.601
377.95
372.852
368.352
371.089
373.669
372.512
360.417
356.848
356.326
358.593
359.902
361.549
362.239
357.25
352.919
355.84
358.205
356.648
346.213
342.57
341.547
343.528
345.125
347.191
348.148
343.318
339.258
342.361
344.484
342.556
333.105
329.45
327.985
329.702
331.549
333.959
335.112
330.485
326.785
330.062
331.922
329.662
320.71
317.108
315.268
316.734
318.784
321.463
322.75
318.366
315.099
318.531
320.112
317.567
308.761
305.28
303.137
304.352
306.55
309.429
310.797
306.698
303.922
307.474
308.758
305.973
297.074
293.779
291.403
292.353
294.641
297.658
299.062
295.297
293.052
296.672
297.616
294.665
285.492
282.461
279.927
280.582
282.9
285.995
287.402
284.027
282.338
285.956
286.53
283.498
273.89
271.215
268.594
268.915
271.204
274.316
275.7
272.785
271.664
275.167
275.382
272.355
262.167
259.948
257.312
257.251
259.44
262.494
263.857
261.486
260.931
264.201
264.075
261.141
250.231
248.575
245.994
245.494
247.511
250.455
251.779
250.054
250.057
252.981
252.531
249.775
237.996
237.018
234.565
233.558
235.327
238.104
239.384
238.41
238.964
241.444
240.663
238.177
225.365
225.193
222.937
221.353
222.797
225.343
226.603
226.471
227.572
229.497
228.368
226.258
212.216
213.008
210.979
208.778
209.818
212.058
213.275
214.135
215.797
217.026
215.533
213.922
198.443
200.343
198.586
195.708
196.259
198.103
199.249
201.278
203.546
203.884
202.013
201.052
184.002
187.057
185.619
182.024
182.03
183.444
184.548
187.78
190.695
189.907
187.679
187.518
170.121
173.38
172.133
168.298
168.11
169.383
170.521
174.104
177.204
175.769
173.512
173.631
157.181
160.443
159.261
155.413
155.107
156.242
157.395
161.228
164.258
162.511
160.26
160.545
145.088
148.346
147.219
143.382
142.956
143.907
145.042
149.167
152.14
150.089
147.835
148.317
133.706
136.965
135.9
132.081
131.521
132.231
133.313
137.782
140.737
138.345
136.091
136.812
122.914
126.167
125.172
121.387
120.684
121.101
122.093
126.936
129.908
127.151
124.908
125.889
112.63
115.847
114.929
111.213
110.364
110.443
111.31
116.526
119.538
116.416
114.206
115.447
102.802
105.94
105.102
101.5
100.514
100.223
100.931
106.489
109.552
106.094
103.945
105.453
93.4016
96.4109
95.6525
92.2211
91.1133
90.4351
90.9512
96.7946
99.9098
96.1677
94.1094
95.885
84.4219
87.2526
86.5717
83.3689
82.1631
81.097
81.3851
87.4413
90.5993
86.6487
84.7099
86.7366
75.8719
78.4792
77.8721
74.953
73.6775
72.2409
72.238
78.4492
81.6341
77.5596
75.7709
78.0182
67.7652
70.1199
69.582
66.9937
65.6802
63.9069
63.5742
69.8466
73.0454
68.9328
67.3267
69.752
60.1354
62.2136
61.7397
59.5171
58.1975
56.1396
55.4927
61.6311
64.8737
60.8155
59.4157
61.9673
53.0175
54.8033
54.3886
52.5517
51.2576
48.9798
48.0594
53.8834
57.147
53.254
52.0758
54.6953
46.4438
47.9315
47.5717
46.1248
44.8864
42.4613
41.3225
46.7071
49.9123
46.289
45.342
47.9648
40.4411
41.6363
41.3282
40.2606
39.1062
36.6072
35.3178
40.1733
43.2404
39.9628
39.242
41.8063
35.0285
35.9473
35.6892
34.9766
33.9324
31.425
30.0424
34.3219
37.1973
34.2981
33.7788
36.2417
30.2023
30.8771
30.6649
30.2517
29.3039
26.8251
25.3927
29.1571
31.8092
29.2796
28.9403
31.2781
25.8818
26.3497
26.1778
26.0018
25.1352
22.7447
21.3201
24.6093
26.9921
24.8323
24.6422
26.8356
22.0262
22.3095
22.1812
22.2118
21.4695
19.2483
17.8833
20.6313
22.7129
20.9137
20.8617
22.854
18.6891
18.8212
18.7398
18.9224
18.3025
16.2866
15.018
17.2765
19.0504
17.5826
17.632
19.4035
15.8347
15.8535
15.8188
16.1036
15.5995
13.8052
12.6491
14.4849
15.9653
14.7854
14.9026
16.4502
13.4232
13.3634
13.368
13.7165
13.3178
11.7467
10.709
12.1852
13.3976
12.4608
12.6199
13.9516
11.4073
11.2991
11.3337
11.7158
11.4097
10.0531
9.13271
10.3113
11.2861
10.5495
10.728
11.8605
9.73757
9.60504
9.66115
10.0538
9.82666
8.66914
7.86008
8.7954
9.56793
8.99233
9.16972
10.1268
8.36554
8.22673
8.29738
8.68377
8.5221
7.54385
6.83732
7.57618
8.18038
7.73295
7.89831
8.70113
7.24555
7.11284
7.1927
7.56135
7.45258
6.63207
6.01781
6.59966
7.06734
6.72018
6.86816
7.53669
6.33603
6.21716
6.30245
6.64614
6.579
5.89471
5.3621
5.81959
6.18068
5.90876
6.03766
6.59075
5.60025
5.49937
5.58753
5.90228
5.86714
5.29867
4.83756
5.19732
5.47602
5.26023
5.37035
5.82535
5.00656
4.92531
5.01447
5.29882
5.28774
4.81651
4.41765
4.70104
4.91614
4.7429
4.83527
5.20766
4.52829
4.46668
4.55548
4.80962
4.81618
4.42588
4.08107
4.30498
4.4712
4.3305
4.40668
4.7099
4.14338
4.10039
4.18783
4.41302
4.43207
4.1088
3.81086
3.98852
4.11738
4.00165
4.06356
4.30903
3.83383
3.80793
3.8932
4.0913
4.11877
3.85087
3.59356
3.73528
3.8358
3.73927
3.7888
3.98617
3.5851
3.5745
3.65691
3.8301
3.86285
3.64058
3.41854
3.53235
3.61148
3.52998
3.56856
3.72603
3.38554
3.38804
3.46723
3.6179
3.6535
3.46877
3.27749
3.3695
3.43262
3.36308
3.392
3.51632
3.22584
3.23968
3.31441
3.44548
3.48205
3.32815
3.16358
3.23866
3.28991
3.22983
3.25046
3.34715
3.09859
3.12288
3.19176
3.30548
3.34154
3.21288
3.07144
3.13345
3.176
3.12344
3.13703
3.21062
2.99784
3.0318
3.09601
3.19201
3.22639
3.11832
2.99686
3.04878
3.08509
3.03862
3.04619
3.10037
2.91875
2.96011
3.01958
3.10039
3.13214
3.04072
2.93649
2.98064
3.01258
2.97119
2.9735
3.01131
2.85728
2.90356
2.95907
3.02687
3.05516
2.97691
2.88763
2.92581
2.95483
2.9178
2.91539
2.93932
2.81094
2.86003
2.9119
2.9685
2.99254
2.92337
2.84817
2.88175
2.90896
2.87581
2.86896
2.88111
2.77657
2.8276
2.87599
2.92304
2.94195
2.87947
2.81641
2.84646
2.87273
2.84315
2.83193
2.83404
2.7523
2.8046
2.84964
2.8879
2.90149
2.84456
2.79106
2.81838
2.8444
2.81818
2.80251
2.79601
2.73657
2.78962
2.83142
2.85989
2.86963
2.81766
2.77109
2.7963
2.82267
2.79962
2.77928
2.7654
2.7281
2.78154
2.8202
2.84024
2.8452
2.79779
2.75575
2.77933
2.8066
2.78642
2.76097
2.74098
2.72592
2.77944
2.81505
2.82735
2.82727
2.78361
2.74452
2.76684
2.79557
2.77773
2.7467
2.72185
2.72928
2.78265
2.81516
2.82015
2.81517
2.77429
2.73703
2.75842
2.78926
2.77308
2.73658
2.70741
2.73769
2.79068
2.81989
2.81794
2.80831
2.7694
2.73314
2.75388
2.78759
2.77227
2.73049
2.69732
2.75084
2.80323
2.82877
2.82022
2.80637
2.76878
2.73283
2.75321
2.79075
2.77538
2.72853
2.69154
156508
156508
156508
156508
156508
156508
156508
156508
156508
156508
156508
156508
25807.4
25805.4
25809.9
25813.9
25813.2
25809.4
25806.1
25806.8
25807.4
25806.4
25806.9
25807.8
8857.8
8856.13
8860.08
8863.8
8863.1
8859.62
8856.62
8856.88
8857.19
8856.56
8857.18
8858.07
4231.64
4230.1
4233.7
4237.36
4236.65
4233.38
4230.58
4230.23
4230.17
4229.95
4230.81
4231.7
2443.59
2441.98
2445.49
2449.4
2448.66
2445.42
2442.62
2441.55
2441.02
2441.25
2442.46
2443.36
1597.86
1596.06
1599.57
1603.84
1603.09
1599.85
1597.02
1595.13
1594.08
1594.8
1596.41
1597.28
1144.1
1142.03
1145.5
1150.1
1149.4
1146.26
1143.45
1140.71
1139.11
1140.35
1142.36
1143.11
879.36
876.998
880.305
885.11
884.524
881.647
878.967
875.416
873.273
875.038
877.392
877.95
715.357
712.716
715.719
720.569
720.168
717.727
715.293
711.01
708.374
710.653
713.272
713.542
608.862
605.978
608.549
613.283
613.122
611.266
609.179
604.282
601.234
603.992
606.783
606.69
536.805
533.72
535.764
540.248
540.37
539.2
537.528
532.155
528.791
531.984
534.852
534.342
486.084
482.844
484.302
488.442
488.873
488.44
487.221
481.506
477.93
481.51
484.369
483.408
448.911
445.562
446.41
450.15
450.906
451.214
450.448
444.518
440.84
444.757
447.527
446.104
420.482
417.079
417.324
420.639
421.72
422.737
422.394
416.364
412.693
416.895
419.506
417.639
397.768
394.365
394.043
396.931
398.32
399.99
400.012
393.979
390.428
394.854
397.26
394.986
378.828
375.477
374.642
377.115
378.783
381.035
381.352
375.393
372.069
376.661
378.835
376.193
362.41
359.154
357.877
359.948
361.856
364.607
365.15
359.332
356.321
361.035
362.947
359.983
347.683
344.565
342.925
344.61
346.719
349.869
350.58
344.959
342.328
347.122
348.74
345.507
334.08
331.158
329.236
330.549
332.808
336.26
337.093
331.722
329.513
334.336
335.634
332.194
321.211
318.555
316.435
317.372
319.722
323.39
324.319
319.254
317.485
322.272
323.232
319.653
308.802
306.494
304.252
304.801
307.174
310.982
311.997
307.301
305.971
310.643
311.257
307.625
296.651
294.781
292.491
292.632
294.953
298.826
299.938
295.682
294.773
299.237
299.533
295.921
284.625
283.272
280.996
280.68
282.897
286.762
287.993
284.259
283.747
287.892
287.897
284.381
272.578
271.847
269.638
268.814
270.871
274.661
276.039
272.922
272.775
276.502
276.211
272.88
260.43
260.407
258.307
256.921
258.732
262.435
263.965
261.574
261.763
264.955
264.362
261.323
248.109
248.859
246.899
244.915
246.402
249.965
251.633
250.124
250.627
253.135
252.241
249.565
235.549
237.116
235.316
232.714
233.805
237.154
238.93
238.493
239.288
240.926
239.724
237.515
222.682
225.08
223.465
220.239
220.861
223.896
225.716
226.518
227.662
228.246
226.695
225.093
209.435
212.661
211.319
207.4
207.474
210.064
211.884
214.107
215.666
214.968
213.054
212.208
195.639
199.741
198.74
194.085
193.518
195.51
197.27
201.129
203.146
200.975
198.674
198.739
181.216
186.177
185.581
180.182
178.932
180.37
182.036
187.428
189.94
186.22
183.633
184.573
167.231
172.088
171.735
166.184
164.835
165.97
167.527
173.284
175.965
171.814
169.248
170.372
154.157
158.683
158.319
153.028
151.675
152.487
153.898
159.84
162.507
158.275
155.783
157.041
141.938
146.131
145.742
140.758
139.386
139.803
141.029
147.198
149.879
145.55
143.149
144.587
130.435
134.314
133.911
129.26
127.839
127.785
128.785
135.231
137.971
133.511
131.212
132.887
119.532
123.101
122.698
118.417
116.925
116.337
117.073
123.809
126.644
122.044
119.863
121.835
109.142
112.396
112.004
108.141
106.57
105.402
105.84
112.839
115.794
111.071
109.03
111.356
99.2119
102.141
101.769
98.3784
96.73
94.9608
95.0754
102.27
105.355
100.554
98.678
101.366
89.7217
92.3122
91.9689
89.0996
87.3865
85.0193
84.8028
92.0875
95.2976
90.4819
88.8015
91.83
80.6751
82.9133
82.6061
80.2959
78.5351
75.607
75.0807
82.3094
85.6242
80.8641
79.4153
82.7412
72.0931
73.9685
73.7036
71.9727
70.1862
66.7628
66.0211
72.9799
76.359
71.74
70.5486
74.1131
64.0155
65.5149
65.2975
64.1445
62.358
58.5293
57.6831
64.1765
67.5467
63.1659
62.2375
65.9705
56.4717
57.5962
57.43
56.8313
55.0725
50.9472
50.0688
56.0376
59.2535
55.1896
54.5191
58.3446
49.4907
50.2573
50.1447
50.055
48.3519
44.0512
43.1935
48.614
51.5719
47.8583
47.4268
51.2698
43.1002
43.5396
43.4818
43.8374
42.217
37.8673
37.0639
41.9081
44.5729
41.2135
40.9866
44.7803
37.3243
37.4773
37.4756
38.1988
36.685
32.4066
31.6594
35.9292
38.2846
35.2732
35.2187
38.9007
32.1688
32.0896
32.146
33.15
31.7488
27.5601
26.8764
30.6565
32.7089
30.0326
30.1142
33.6483
27.5409
27.2815
27.3982
28.6036
27.3171
23.2488
22.6665
25.993
27.7604
25.4157
25.5709
28.9334
23.3833
22.9881
23.1641
24.4849
23.3443
19.5636
19.0808
21.9029
23.3848
21.3682
21.5729
24.6676
19.7791
19.3073
19.5313
20.8788
19.8875
16.4533
16.0612
18.4246
19.6469
17.9383
18.1527
20.9508
16.6944
16.2043
16.4516
17.762
16.9171
13.858
13.5435
15.5018
16.4956
15.0676
15.267
17.7538
14.0895
13.6208
13.8669
15.1033
14.3961
11.7161
11.4648
13.0727
13.8671
12.6883
12.8604
15.0369
11.9154
11.4913
11.7245
12.8613
12.2792
9.96465
9.76311
11.0729
11.6989
10.7357
10.8759
12.7552
10.1195
9.75223
9.96744
10.99
10.5179
8.5435
8.38013
9.43811
9.92719
9.1464
9.25769
10.8585
8.64927
8.3434
8.53968
9.44199
9.06429
7.39717
7.26253
8.11149
8.49146
7.86156
7.95325
9.29588
7.45455
7.20929
7.38758
8.17114
7.87242
6.47637
6.36308
7.04032
7.33768
6.82823
6.90592
8.01843
6.48947
6.30057
6.46296
7.13412
6.90017
5.73855
5.64104
6.17975
6.41381
6.00028
6.06741
6.9805
5.71325
5.57468
5.72325
6.29174
6.10996
5.14788
5.06211
5.48978
5.67262
5.33883
5.39704
6.14105
5.09076
4.99582
5.13231
5.60953
5.46916
4.67483
4.59797
4.93748
5.07862
4.81106
4.8611
5.46418
4.59236
4.53453
4.66041
5.058
4.9501
4.29544
4.2256
4.4955
4.60354
4.38922
4.43209
4.91934
4.19357
4.16703
4.28334
4.61243
4.52974
3.99052
3.92654
4.14163
4.22387
4.0513
4.08793
4.48101
3.87471
3.87433
3.98182
4.25246
4.1892
3.74489
3.68613
3.85805
3.92044
3.78008
3.81111
4.12828
3.61997
3.64127
3.7406
3.96153
3.91311
3.54658
3.49271
3.63053
3.67779
3.56202
3.58803
3.84417
3.41675
3.4561
3.54771
3.7263
3.68907
3.38612
3.33691
3.4478
3.48358
3.38625
3.40806
3.61507
3.25513
3.30991
3.39393
3.53607
3.50714
3.25602
3.21094
3.30089
3.32801
3.24436
3.26251
3.43005
3.12735
3.19405
3.2722
3.38233
3.35935
3.15037
3.10918
3.1827
3.20331
3.13014
3.14459
3.28041
3.02721
3.10059
3.17514
3.25824
3.23933
3.06447
3.02687
3.08754
3.10333
3.03836
3.04892
3.15918
2.94962
3.02426
3.09422
3.15834
3.14195
2.9946
2.96033
3.0109
3.02316
2.96472
2.97124
3.06078
2.89039
2.96409
3.03011
3.07833
3.06312
2.9379
2.90657
2.94914
2.95889
2.9057
2.90821
2.98076
2.84622
2.91885
2.98033
3.01475
2.99953
2.89242
2.86319
2.89937
2.9074
2.85844
2.85718
2.91553
2.81387
2.88575
2.94261
2.96481
2.94858
2.85797
2.82825
2.85931
2.86622
2.82071
2.81603
2.86226
2.79173
2.86261
2.91513
2.92626
2.90819
2.83191
2.80023
2.82715
2.83338
2.79078
2.78304
2.81869
2.77796
2.84779
2.89643
2.89831
2.87673
2.81185
2.77794
2.80145
2.80737
2.76735
2.75681
2.78306
2.77127
2.84004
2.88539
2.88117
2.85289
2.79618
2.76044
2.78115
2.78702
2.74948
2.73642
2.75405
2.77069
2.83843
2.88114
2.86997
2.83563
2.78378
2.74708
2.76543
2.77148
2.73662
2.72142
2.73069
2.77546
2.8423
2.88298
2.86425
2.82417
2.77471
2.73737
2.75372
2.76014
2.72849
2.71141
2.71231
2.785
2.85119
2.89002
2.86367
2.81829
2.76901
2.73105
2.74565
2.75268
2.72487
2.70552
2.69852
2.79891
2.86487
2.90153
2.86773
2.81718
2.7668
2.72798
2.74104
2.749
2.72573
2.70364
2.68917
2.81697
2.88327
2.91699
2.87602
2.82058
2.76826
2.72822
2.73988
2.74923
2.73123
2.70597
2.68433
156508
156508
156508
156508
156508
156508
156508
156508
156508
156508
156508
156508
25808.1
25806.1
25810.5
25814.6
25813.8
25810
25806.8
25807.4
25808
25807.2
25807.7
25808.5
8858.41
8856.69
8860.57
8864.34
8863.65
8860.16
8857.21
8857.42
8857.78
8857.28
8857.92
8858.7
4232.19
4230.58
4234.1
4237.8
4237.13
4233.88
4231.12
4230.71
4230.71
4230.65
4231.52
4232.26
2444.11
2442.43
2445.85
2449.8
2449.12
2445.91
2443.15
2441.99
2441.56
2442.01
2443.21
2443.92
1598.38
1596.5
1599.91
1604.21
1603.55
1600.37
1597.56
1595.56
1594.64
1595.65
1597.23
1597.86
1144.6
1142.48
1145.85
1150.45
1149.84
1146.79
1143.99
1141.13
1139.69
1141.29
1143.24
1143.72
879.828
877.453
880.668
885.439
884.947
882.188
879.51
875.816
873.86
876.042
878.32
878.564
715.779
713.173
716.11
720.869
720.552
718.257
715.827
711.398
708.957
711.685
714.206
714.144
609.234
606.431
608.977
613.551
613.459
611.772
609.698
604.659
601.797
605.01
607.684
607.259
537.13
534.166
536.237
540.483
540.656
539.673
538.03
532.52
529.325
532.947
535.684
534.862
486.372
483.283
484.827
488.647
489.111
488.878
487.703
481.862
478.43
482.386
485.105
483.87
449.155
445.995
446.996
450.325
451.108
451.616
450.912
444.869
441.305
445.522
448.154
446.51
420.675
417.51
417.977
420.783
421.889
423.103
422.847
416.72
413.127
417.54
420.03
417.996
397.892
394.799
394.765
397.039
398.451
400.324
400.471
394.36
390.836
395.39
397.698
395.305
378.863
375.919
375.434
377.185
378.866
381.339
381.834
375.829
372.459
377.107
379.209
376.472
362.334
359.609
358.732
359.971
361.87
364.883
365.675
359.851
356.703
361.408
363.265
360.216
347.479
345.036
343.831
344.567
346.638
350.116
351.161
345.588
342.716
347.444
349
345.69
333.742
331.645
330.177
330.411
332.606
336.475
337.738
332.483
329.923
334.606
335.83
332.313
320.746
319.056
317.385
317.113
319.378
323.575
325.023
320.157
317.931
322.489
323.354
319.688
308.226
307
305.182
304.39
306.672
311.146
312.748
308.342
306.465
310.815
311.277
307.548
295.988
295.28
293.365
292.026
294.275
298.966
300.715
296.842
295.324
299.364
299.411
295.696
283.889
283.746
281.774
279.888
282.026
286.84
288.722
285.503
284.353
287.94
287.606
283.981
271.855
272.273
270.281
267.847
269.805
274.659
276.633
274.196
273.428
276.436
275.737
272.278
259.784
260.757
258.775
255.8
257.554
262.331
264.356
262.805
262.444
264.756
263.701
260.481
247.585
249.108
247.16
243.66
245.18
249.761
251.819
251.218
251.308
252.811
251.404
248.553
235.168
237.214
235.345
231.35
232.595
236.845
238.903
239.328
239.938
240.517
238.799
236.409
222.428
225.017
223.222
218.787
219.714
223.476
225.483
227.112
228.189
227.795
225.813
223.964
209.237
212.402
210.685
205.881
206.432
209.532
211.43
214.446
215.996
214.574
212.333
211.125
195.491
199.242
197.629
192.512
192.614
194.871
196.598
201.186
203.308
200.713
198.217
197.772
181.137
185.395
183.909
178.57
178.185
179.626
181.162
187.171
189.964
186.096
183.369
183.789
167.07
171.203
169.787
164.743
164.187
165.135
166.514
172.788
175.869
171.576
168.932
169.689
153.965
157.793
156.421
151.778
151.1
151.571
152.788
159.198
162.301
157.95
155.419
156.441
141.723
145.229
143.903
139.675
138.864
138.817
139.856
146.432
149.58
145.168
142.751
144.073
130.197
133.385
132.114
128.314
127.351
126.743
127.588
134.355
137.587
133.087
130.787
132.455
119.269
122.138
120.935
117.581
116.449
115.254
115.896
122.845
126.183
121.586
119.415
121.462
108.853
111.4
110.278
107.391
106.081
104.3
104.736
111.821
115.265
110.585
108.561
110.997
98.8954
101.123
100.095
97.6896
96.2028
93.8631
94.0942
101.244
104.773
100.045
98.1928
101.007
89.3802
91.2911
90.3691
88.4476
86.7953
83.9518
83.9775
91.1077
94.6832
89.9565
88.3043
91.4666
80.3128
81.9114
81.105
79.6577
77.8617
74.5922
74.4049
81.4319
84.9991
80.3226
78.9121
82.3737
71.7128
73.0101
72.3253
71.3278
69.4181
65.8209
65.471
72.25
75.742
71.1943
70.0461
73.7443
63.6082
64.6231
64.0624
63.4771
61.4912
57.6753
57.2185
63.6228
66.9501
62.6317
61.7429
65.6042
56.032
56.7905
56.3529
56.1309
54.1116
50.1894
49.6779
55.6232
58.7242
54.6769
54.0398
57.985
49.0184
49.551
49.2319
49.3172
47.3095
43.3902
42.8722
48.2933
51.1255
47.3782
46.9704
50.9187
42.5979
42.9369
42.7296
43.0627
41.1105
37.294
36.8098
41.6647
44.2023
40.7807
40.5585
44.4346
36.7932
36.9678
36.8669
37.3892
35.532
31.904
31.4541
35.7483
37.9901
34.8887
34.8127
38.5554
31.6137
31.6326
31.6492
32.3035
30.5619
27.124
26.7056
30.526
32.4729
29.6905
29.7313
33.2932
26.9833
26.8583
26.9929
27.7295
26.118
22.8861
22.5355
25.9089
27.5627
25.1266
25.2366
28.5746
22.8514
22.6288
22.8438
23.6193
22.1728
19.2461
18.9791
21.8451
23.2404
21.1287
21.2669
24.3311
19.2866
19.0144
19.2679
20.0442
18.7724
16.1753
15.984
18.3894
19.543
17.7459
17.8678
20.6382
16.2501
15.966
16.2188
16.9753
15.8781
13.6164
13.4847
15.4843
16.423
14.9158
15.0094
17.4692
13.6964
13.4255
13.6516
14.3766
13.4447
11.5071
11.4204
13.0667
13.8188
12.5713
12.6399
14.7828
11.5734
11.3322
11.5292
12.2019
11.4204
9.78374
9.72989
11.0747
11.669
10.6472
10.6975
12.5324
9.82601
9.62369
9.7961
10.4005
9.752
8.38585
8.35556
9.44881
9.91016
9.08074
9.11933
10.6666
8.40026
8.24048
8.39365
8.92155
8.38755
7.25847
7.24457
8.13195
8.48252
7.81363
7.84549
9.1333
7.24521
7.12761
7.26614
7.71611
7.27879
6.35306
6.3501
7.07086
7.33329
6.7938
6.82224
7.88254
6.3147
6.23632
6.36359
6.73918
6.38212
5.62795
5.63178
6.21582
6.41454
5.97587
6.00277
6.8681
5.56814
5.52462
5.64297
5.95075
5.65946
5.04823
5.05561
5.52919
5.67872
5.32215
5.34742
6.04873
4.97072
4.95723
5.06828
5.3163
5.07837
4.58517
4.59352
4.9783
5.09001
4.80043
4.82324
5.38863
4.49279
4.50516
4.60998
4.80669
4.6118
4.21527
4.22269
4.53557
4.61897
4.38288
4.40341
4.85751
4.10798
4.14506
4.24428
4.3978
4.23751
3.91928
3.9248
4.17993
4.24213
4.04794
4.06632
4.43022
3.80094
3.85826
3.95245
4.06989
3.93742
3.68216
3.68526
3.89447
3.94041
3.77875
3.7948
4.08622
3.55737
3.62985
3.7195
3.80697
3.69692
3.49212
3.49252
3.66506
3.69849
3.56205
3.57548
3.80891
3.36459
3.44858
3.53362
3.59621
3.5042
3.33956
3.33739
3.48029
3.50422
3.38715
3.3984
3.58499
3.21286
3.3059
3.38625
3.42754
3.34999
3.21696
3.21272
3.33129
3.34798
3.24629
3.25504
3.40384
3.09542
3.19306
3.26902
3.29296
3.22686
3.11842
3.11217
3.21097
3.22214
3.13275
3.13869
3.257
3.00546
3.10372
3.1756
3.18607
3.12883
3.03931
3.03091
3.11367
3.12067
3.04127
3.0441
3.1377
2.93694
3.03366
3.1014
3.10168
3.05105
2.97598
2.96524
3.03485
3.03876
2.96758
2.96715
3.04059
2.88518
2.97943
3.04293
3.03562
2.98959
2.92549
2.91221
2.9709
2.97257
2.90822
2.90461
2.96136
2.84619
2.93806
2.99746
2.98448
2.94126
2.88558
2.86948
2.91893
2.91905
2.86044
2.85388
2.89661
2.81761
2.90727
2.96293
2.9455
2.90352
2.85461
2.83509
2.87668
2.87581
2.82212
2.8129
2.84363
2.79805
2.88531
2.93774
2.91639
2.87452
2.8304
2.80754
2.84246
2.84101
2.79162
2.77998
2.80027
2.78628
2.87086
2.92073
2.89563
2.85288
2.81152
2.78564
2.81483
2.81322
2.76771
2.75376
2.76488
2.7812
2.86296
2.9111
2.88226
2.83759
2.79685
2.76849
2.79271
2.79129
2.7495
2.73325
2.73618
2.78191
2.86091
2.90854
2.87578
2.82793
2.78615
2.75544
2.7753
2.7744
2.73634
2.71775
2.71324
2.78769
2.86425
2.91331
2.87502
2.82338
2.77925
2.74605
2.76201
2.76193
2.72786
2.70661
2.69543
2.79801
2.87275
2.92174
2.87916
2.82332
2.77606
2.74003
2.75248
2.75355
2.72388
2.6996
2.68237
2.81247
2.88673
2.93391
2.88767
2.82739
2.77659
2.73729
2.74654
2.74917
2.72434
2.69688
2.67394
2.83076
2.90755
2.9499
2.90011
2.83552
2.78091
2.73785
2.74419
2.74891
2.7294
2.69875
2.67017
156508
156508
156508
156508
156508
156508
156508
156508
156508
156508
156508
156508
25810.3
25808.2
25812.8
25817.3
25816.5
25812.3
25808.6
25809.1
25810
25809.1
25809.9
25810.9
8860.81
8858.95
8862.91
8867.02
8866.29
8862.57
8859.34
8859.38
8859.84
8859.42
8860.23
8861.15
4234.81
4233.03
4236.53
4240.47
4239.79
4236.5
4233.64
4232.99
4232.97
4233.03
4234.07
4234.84
2447.16
2445.24
2448.54
2452.63
2452
2448.95
2446.26
2444.77
2444.2
2444.85
2446.23
2446.82
1601.91
1599.73
1602.92
1607.26
1606.71
1603.92
1601.34
1598.89
1597.74
1599.07
1600.82
1601.18
1148.59
1146.11
1149.13
1153.67
1153.27
1150.84
1148.41
1145
1143.27
1145.31
1147.42
1147.45
884.163
881.395
884.133
888.737
888.551
886.647
884.464
880.131
877.861
880.617
883.015
882.627
720.303
717.312
719.656
724.137
724.232
723.011
721.165
716.03
713.301
716.723
719.313
718.443
613.771
610.65
612.503
616.682
617.106
616.691
615.255
609.469
606.391
610.402
613.077
611.682
541.497
538.355
539.653
543.384
544.164
544.63
543.645
537.376
534.072
538.578
541.232
539.297
490.401
487.348
488.063
491.238
492.38
493.755
493.23
486.64
483.239
488.142
490.678
488.209
452.74
449.86
449.999
452.56
454.039
456.31
456.226
449.466
446.092
451.293
453.627
450.651
423.764
421.119
420.716
422.649
424.432
427.53
427.846
421.054
417.82
423.223
425.282
421.842
400.486
398.119
397.23
398.547
400.596
404.416
405.083
398.376
395.379
400.889
402.611
398.762
380.99
378.937
377.634
378.36
380.637
385.047
386.014
379.495
376.81
382.33
383.66
379.494
364.025
362.324
360.685
360.852
363.314
368.18
369.392
363.155
360.833
366.259
367.183
362.787
348.766
347.458
345.564
345.199
347.789
352.993
354.397
348.53
346.605
351.823
352.364
347.81
334.663
333.786
331.716
330.835
333.49
338.924
340.479
335.071
333.557
338.48
338.651
334.014
321.337
320.93
318.753
317.359
320.017
325.577
327.255
322.401
321.3
325.842
325.662
321.019
308.523
308.617
306.398
304.484
307.085
312.664
314.447
310.251
309.558
313.62
313.135
308.544
296.023
296.647
294.438
291.994
294.481
299.989
301.843
298.418
298.126
301.62
300.856
296.385
283.685
284.86
282.708
279.731
282.043
287.426
289.318
286.747
286.84
289.719
288.66
284.387
271.401
273.126
271.071
267.571
269.643
274.828
276.733
275.111
275.567
277.771
276.417
272.429
259.083
261.332
259.407
255.417
257.184
262.048
263.937
263.375
264.192
265.661
264.016
260.408
246.652
249.376
247.615
243.187
244.585
248.965
250.804
251.418
252.609
253.286
251.36
248.243
234.04
237.189
235.583
230.805
231.768
235.474
237.22
239.145
240.714
240.558
238.357
235.869
221.165
224.656
223.259
218.197
218.651
221.463
223.06
226.455
228.474
227.292
224.834
223.144
207.945
211.683
210.539
205.283
205.145
206.794
208.176
213.227
215.757
213.364
210.676
209.983
194.213
198.152
197.318
191.961
191.08
191.334
192.433
199.319
202.414
198.622
195.741
196.271
179.786
183.93
183.468
178.125
176.386
175.693
176.654
184.595
188.297
183.087
180.247
181.888
165.555
169.294
168.983
164.038
162.084
160.927
161.773
169.819
173.595
168.208
165.516
167.508
152.091
155.411
155.08
150.72
148.68
147.083
147.802
155.862
159.602
154.245
151.711
153.975
139.452
142.398
142.054
138.253
136.134
134.045
134.628
142.735
146.456
141.1
138.729
141.317
127.543
130.143
129.808
126.552
124.326
121.701
122.151
130.324
134.042
128.649
126.449
129.417
116.26
118.53
118.222
115.51
113.153
109.979
110.314
118.532
122.24
116.8
114.78
118.163
105.534
107.478
107.212
105.042
102.545
98.8455
99.1044
107.304
110.974
105.507
103.674
107.474
95.3316
96.9466
96.7296
95.0975
92.4672
88.2967
88.5424
96.6254
100.213
94.7595
93.1144
97.3042
85.6357
86.9247
86.7602
85.6501
82.9086
78.3508
78.6741
86.5146
89.9627
84.5805
83.108
87.6353
76.4507
77.4257
77.3135
76.6979
73.879
69.0379
69.5449
77.0129
80.2593
75.0187
73.6784
78.4701
67.7961
68.4781
68.4157
68.2546
65.4009
60.3924
61.1074
68.1684
71.1622
66.0953
64.8567
69.8258
59.7012
60.1184
60.102
60.3447
57.5032
52.448
53.3625
59.9984
62.7288
57.8371
56.6757
61.7287
52.2001
52.3853
52.4105
52.9978
50.2172
45.2326
46.3206
52.4924
54.9439
50.2917
49.1703
54.2095
45.3276
45.3153
45.3772
46.2453
43.5726
38.7697
39.9895
45.6618
47.8249
43.4847
42.378
47.2997
39.1158
38.9428
39.0319
40.1163
37.5941
33.0624
34.3711
39.5182
41.3908
37.4204
36.3259
41.0289
33.5685
33.2908
33.3895
34.6284
32.2692
28
29.4001
34.0615
35.6575
32.0618
30.9383
35.4184
28.5882
28.2913
28.3551
29.6917
27.497
23.5129
24.9878
29.2053
30.5741
27.3093
26.1163
30.381
24.1299
23.88
23.8676
25.2311
23.252
19.6992
21.1484
24.8694
26.0452
23.129
21.9379
25.831
20.2802
20.098
20.021
21.3452
19.5947
16.5201
17.8745
21.1069
22.0801
19.5453
18.4059
21.866
17.0031
16.8919
16.7736
18.0064
16.4847
13.8805
15.1156
17.8853
18.6756
16.5109
15.4715
18.457
14.252
14.2079
14.0817
15.179
13.8755
11.7068
12.8139
15.159
15.7937
13.9693
13.0471
15.5671
11.9718
11.9866
11.883
12.815
11.7118
9.93175
10.9101
12.8742
13.3815
11.8599
11.058
13.148
10.1027
10.1672
10.0936
10.8602
9.93577
8.49314
9.34713
10.9751
11.3816
10.1237
9.43714
11.1453
8.58465
8.69021
8.64598
9.25977
8.49076
7.33436
8.07181
9.40887
9.73697
8.70467
8.12409
9.50313
7.36202
7.49994
7.48191
7.96002
7.32354
6.40526
7.03632
8.12731
8.39305
7.55123
7.06495
8.16729
6.38421
6.54613
6.55034
6.91101
6.38579
5.66252
6.19859
7.08578
7.29804
6.61739
6.21295
7.08746
5.60628
5.78484
5.80733
6.06839
5.63488
5.06969
5.52248
6.24469
6.40889
5.86302
5.52843
6.21845
4.9896
5.17868
5.21585
5.39411
5.03513
4.59662
4.97757
5.5667
5.69409
5.25295
4.97844
5.52097
4.50197
4.69661
4.74526
4.85637
4.55733
4.21895
4.53866
5.02059
5.1202
4.75837
4.53608
4.96177
4.11777
4.31331
4.37082
4.42857
4.17761
3.91745
4.18517
4.58154
4.65913
4.35854
4.1797
4.51329
3.81871
4.00833
4.07271
4.08878
3.87648
3.67722
3.90038
4.22819
4.28808
4.0357
3.892
4.15315
3.58408
3.76547
3.83466
3.81896
3.63804
3.48593
3.67078
3.94306
3.98888
3.77465
3.65915
3.86334
3.39959
3.57201
3.64371
3.60354
3.44917
3.3336
3.48554
3.71273
3.74716
3.56353
3.46993
3.62954
3.25544
3.41713
3.4895
3.43045
3.29755
3.21257
3.33602
3.52661
3.55151
3.39306
3.31497
3.44038
3.14303
3.29097
3.36301
3.29405
3.17837
3.11673
3.21569
3.37602
3.39284
3.25496
3.18793
3.2869
3.05385
3.18967
3.25937
3.18752
3.08597
3.0411
3.11884
3.25395
3.26388
3.14286
3.08376
3.16197
2.98293
3.10968
3.17529
3.10475
3.01495
2.98159
3.04063
3.15472
3.15884
3.05166
2.99832
3.05995
2.92721
3.04759
3.10863
3.04066
2.96077
2.9349
2.97704
3.07378
3.07311
2.97739
2.92815
2.97635
2.88456
2.99989
3.05614
2.99141
2.91975
2.8983
2.92495
3.00737
3.00291
2.91675
2.87039
2.90764
2.85395
2.96388
3.01533
2.95416
2.88885
2.8694
2.88341
2.95241
2.9452
2.86738
2.82279
2.85099
2.83362
2.93744
2.98431
2.92685
2.86521
2.84584
2.84986
2.90628
2.89747
2.82731
2.7836
2.80421
2.82177
2.91897
2.96164
2.90604
2.84725
2.82666