/*--------------------------------*- C++ -*----------------------------------*\
| =========                 |                                                 |
| \\      /  F ield         | OpenFOAM: The Open Source CFD Toolbox           |
|  \\    /   O peration     | Version:  v1912                                 |
|   \\  /    A nd           | Website:  www.openfoam.com                      |
|    \\/     M anipulation  |                                                 |
\*---------------------------------------------------------------------------*/
FoamFile
{
    version     2.0;
    format      ascii;
    class       volVectorField;
    location    "9.2";
    object      UMean;
}
// * * * * * * * * * * * * * * * * * * * * * * * * * * * * * * * * * * * * * //

dimensions      [0 1 -1 0 0 0 0];


internalField   nonuniform List<vector> 
34128
(
(9.11123e-07 1.67215e-07 -0.00335794)
(4.05397e-07 1.69921e-07 -0.00333605)
(-1.55155e-07 1.6953e-07 -0.00332916)
(-4.63659e-07 1.68279e-07 -0.00333545)
(-3.29106e-07 1.6664e-07 -0.00335123)
(-2.65042e-08 1.65326e-07 -0.00336184)
(2.91816e-07 1.65301e-07 -0.00336547)
(4.60637e-07 1.67647e-07 -0.00335245)
(-1.19231e-07 1.68967e-07 -0.00333507)
(-7.49117e-07 1.67005e-07 -0.00334352)
(-6.318e-07 1.64817e-07 -0.00336478)
(-6.83013e-08 1.64667e-07 -0.00336767)
(2.63749e-06 1.47266e-06 -0.0101927)
(1.18913e-06 1.50742e-06 -0.0101283)
(-4.3383e-07 1.50625e-06 -0.0101081)
(-1.34012e-06 1.48947e-06 -0.0101267)
(-9.41325e-07 1.46739e-06 -0.010173)
(-6.45656e-08 1.45129e-06 -0.0102041)
(8.26959e-07 1.45289e-06 -0.0102145)
(1.31166e-06 1.47775e-06 -0.0101764)
(-3.34827e-07 1.49168e-06 -0.0101257)
(-2.13544e-06 1.47073e-06 -0.0101503)
(-1.80493e-06 1.44589e-06 -0.0102125)
(-1.92435e-07 1.44422e-06 -0.010221)
(4.283e-06 3.87032e-06 -0.0172446)
(1.95202e-06 3.96876e-06 -0.0171388)
(-6.84631e-07 3.96732e-06 -0.0171058)
(-2.17537e-06 3.91939e-06 -0.0171366)
(-1.51456e-06 3.85607e-06 -0.0172126)
(-8.85158e-08 3.81127e-06 -0.0172632)
(1.32166e-06 3.81646e-06 -0.01728)
(2.1072e-06 3.88364e-06 -0.0172178)
(-5.25082e-07 3.9214e-06 -0.017135)
(-3.42083e-06 3.86447e-06 -0.0171751)
(-2.89508e-06 3.79634e-06 -0.0172768)
(-2.99724e-07 3.79171e-06 -0.0172908)
(5.85323e-06 7.52523e-06 -0.0244966)
(2.69816e-06 7.72011e-06 -0.0243509)
(-9.04994e-07 7.71986e-06 -0.0243058)
(-2.96873e-06 7.62466e-06 -0.0243486)
(-2.04902e-06 7.49814e-06 -0.0244531)
(-9.8362e-08 7.41049e-06 -0.0245221)
(1.7786e-06 7.42109e-06 -0.0245446)
(2.85296e-06 7.54969e-06 -0.0244594)
(-6.85977e-07 7.62247e-06 -0.0243462)
(-4.6028e-06 7.51297e-06 -0.0244011)
(-3.89795e-06 7.38114e-06 -0.0245404)
(-3.85376e-07 7.37246e-06 -0.0245598)
(7.35225e-06 1.22986e-05 -0.0319236)
(3.43062e-06 1.26215e-05 -0.0317396)
(-1.09355e-06 1.26245e-05 -0.031683)
(-3.72111e-06 1.24664e-05 -0.0317378)
(-2.54633e-06 1.2255e-05 -0.0318696)
(-9.5048e-08 1.21115e-05 -0.0319556)
(2.19961e-06 1.21291e-05 -0.0319829)
(3.5535e-06 1.23359e-05 -0.0318761)
(-8.1445e-07 1.24541e-05 -0.0317346)
(-5.67922e-06 1.22771e-05 -0.0318032)
(-4.8093e-06 1.2063e-05 -0.031978)
(-4.44144e-07 1.20494e-05 -0.0320026)
(8.78274e-06 1.82223e-05 -0.0394954)
(4.1515e-06 1.87041e-05 -0.0392753)
(-1.2501e-06 1.87133e-05 -0.039208)
(-4.43501e-06 1.84768e-05 -0.0392745)
(-3.00954e-06 1.8159e-05 -0.039432)
(-8.0564e-08 1.79472e-05 -0.0395336)
(2.58547e-06 1.79732e-05 -0.0395648)
(4.21203e-06 1.82733e-05 -0.0394379)
(-9.08556e-07 1.84467e-05 -0.0392703)
(-6.6485e-06 1.81887e-05 -0.0393517)
(-5.62502e-06 1.78749e-05 -0.0395595)
(-4.70416e-07 1.78559e-05 -0.039589)
(1.01465e-05 2.52734e-05 -0.0471786)
(4.86225e-06 2.59447e-05 -0.0469246)
(-1.37541e-06 2.59635e-05 -0.0468473)
(-5.11431e-06 2.56332e-05 -0.0469254)
(-3.44313e-06 2.51869e-05 -0.0471071)
(-5.79889e-08 2.48956e-05 -0.0472225)
(2.93588e-06 2.49309e-05 -0.0472565)
(4.83034e-06 2.53377e-05 -0.0471112)
(-9.67583e-07 2.5576e-05 -0.0469202)
(-7.50969e-06 2.52245e-05 -0.0470132)
(-6.34125e-06 2.47946e-05 -0.0472513)
(-4.58411e-07 2.47701e-05 -0.0472856)
(1.14448e-05 3.34396e-05 -0.0549377)
(5.56371e-06 3.4331e-05 -0.0546523)
(-1.47117e-06 3.43634e-05 -0.0545658)
(-5.76419e-06 3.39238e-05 -0.0546551)
(-3.85276e-06 3.33267e-05 -0.0548594)
(-3.14641e-08 3.29451e-05 -0.0549868)
(3.24948e-06 3.29907e-05 -0.0550225)
(5.40884e-06 3.35163e-05 -0.0548607)
(-9.92111e-07 3.38291e-05 -0.0546489)
(-8.26265e-06 3.33725e-05 -0.0547525)
(-6.95457e-06 3.28108e-05 -0.0550179)
(-4.0238e-07 3.27809e-05 -0.0550567)
(1.26783e-05 4.2707e-05 -0.0627371)
(6.25621e-06 4.38487e-05 -0.0624229)
(-1.53995e-06 4.38995e-05 -0.0623278)
(-6.39074e-06 4.3335e-05 -0.0624282)
(-4.24505e-06 4.25644e-05 -0.0626533)
(-6.01114e-09 4.20825e-05 -0.0627909)
(3.52398e-06 4.21392e-05 -0.0628273)
(5.9468e-06 4.27944e-05 -0.0626507)
(-9.8394e-07 4.31911e-05 -0.0624209)
(-8.90814e-06 4.26187e-05 -0.0625339)
(-7.46214e-06 4.19102e-05 -0.0628238)
(-2.96808e-07 4.18754e-05 -0.0628669)
(1.38481e-05 5.30629e-05 -0.0705435)
(6.93977e-06 5.44852e-05 -0.070203)
(-1.58495e-06 5.45599e-05 -0.0701)
(-7.00056e-06 5.38547e-05 -0.0702111)
(-4.62706e-06 5.28872e-05 -0.0704554)
(1.2771e-08 5.2296e-05 -0.0706015)
(3.75646e-06 5.23644e-05 -0.0706376)
(6.44266e-06 5.31587e-05 -0.0704481)
(-9.4585e-07 5.36487e-05 -0.070203)
(-9.44772e-06 5.29507e-05 -0.0703243)
(-7.86174e-06 5.20807e-05 -0.0706358)
(-1.36569e-07 5.20419e-05 -0.070683)
(1.49553e-05 6.4494e-05 -0.0783278)
(7.61433e-06 6.62273e-05 -0.0779636)
(-1.60969e-06 6.63323e-05 -0.0778532)
(-7.60029e-06 6.54703e-05 -0.0779746)
(-5.00589e-06 6.42823e-05 -0.0782366)
(1.90455e-08 6.35732e-05 -0.0783896)
(3.9436e-06 6.3654e-05 -0.0784244)
(6.89429e-06 6.45957e-05 -0.0782236)
(-8.81278e-07 6.51883e-05 -0.0779657)
(-9.8835e-06 6.43555e-05 -0.0780944)
(-8.15166e-06 6.33098e-05 -0.078425)
(8.30044e-08 6.32683e-05 -0.0784759)
(1.6002e-05 7.69832e-05 -0.0860664)
(8.27985e-06 7.9058e-05 -0.0856806)
(-1.61781e-06 7.92009e-05 -0.0855634)
(-8.19619e-06 7.81654e-05 -0.0856948)
(-5.38829e-06 7.67322e-05 -0.0859731)
(7.02398e-09 7.58978e-05 -0.0861314)
(4.08194e-06 7.59916e-05 -0.0861643)
(7.29924e-06 7.70881e-05 -0.0859537)
(-7.93963e-07 7.77923e-05 -0.0856853)
(-1.02178e-05 7.68159e-05 -0.0858205)
(-8.33042e-06 7.55808e-05 -0.0861675)
(3.6614e-07 7.55384e-05 -0.086222)
(1.69907e-05 9.05264e-05 -0.0937424)
(8.93651e-06 9.2973e-05 -0.0933372)
(-1.61288e-06 9.31624e-05 -0.0932136)
(-8.79374e-06 9.1937e-05 -0.0933548)
(-5.78023e-06 9.02332e-05 -0.0936481)
(-2.87601e-08 8.92665e-05 -0.0938104)
(4.16808e-06 8.93738e-05 -0.0938406)
(7.65507e-06 9.06312e-05 -0.0936218)
(-6.87675e-07 9.14559e-05 -0.0933447)
(-1.04527e-05 9.03278e-05 -0.0934856)
(-8.39649e-06 8.88901e-05 -0.093847)
(7.16759e-07 8.88493e-05 -0.0939047)
(1.79247e-05 0.000105116 -0.101346)
(9.58495e-06 0.000107966 -0.100924)
(-1.59798e-06 0.000108211 -0.100794)
(-9.39795e-06 0.000106778 -0.100945)
(-6.18739e-06 0.000104778 -0.101252)
(-9.35597e-08 0.000103673 -0.101417)
(4.19877e-06 0.000103794 -0.101444)
(7.9595e-06 0.000105218 -0.101218)
(-5.65637e-07 0.000106171 -0.100934)
(-1.05897e-05 0.000104883 -0.10108)
(-8.34798e-06 0.000103231 -0.101454)
(1.13881e-06 0.000103195 -0.101515)
(1.88064e-05 0.000120701 -0.108869)
(1.02255e-05 0.000123985 -0.108431)
(-1.57593e-06 0.000124298 -0.108296)
(-1.00135e-05 0.000122639 -0.108456)
(-6.61544e-06 0.000120314 -0.108776)
(-1.92672e-07 0.000119066 -0.108942)
(4.17059e-06 0.000119202 -0.108966)
(8.20973e-06 0.000120795 -0.108734)
(-4.30956e-07 0.000121884 -0.108445)
(-1.06296e-05 0.000120431 -0.108595)
(-8.18281e-06 0.000118552 -0.108979)
(1.63605e-06 0.000118524 -0.109043)
(1.96372e-05 0.000137241 -0.116301)
(1.08577e-05 0.00014099 -0.115848)
(-1.54962e-06 0.000141383 -0.115708)
(-1.06441e-05 0.000139479 -0.115876)
(-7.06927e-06 0.000136802 -0.116208)
(-3.31206e-07 0.000135407 -0.116376)
(4.07992e-06 0.000135559 -0.116396)
(8.40233e-06 0.000137324 -0.116159)
(-2.86848e-07 0.000138554 -0.115865)
(-1.05729e-05 0.000136928 -0.11602)
(-7.8986e-06 0.000134813 -0.116413)
(2.21173e-06 0.0001348 -0.116478)
(2.04183e-05 0.000154696 -0.123631)
(1.14806e-05 0.000158942 -0.123166)
(-1.52178e-06 0.000159429 -0.123021)
(-1.12925e-05 0.00015726 -0.123198)
(-7.5531e-06 0.000154202 -0.123541)
(-5.13983e-07 0.000152656 -0.123708)
(3.92331e-06 0.000152826 -0.123724)
(8.53376e-06 0.000154763 -0.123483)
(-1.36069e-07 0.000156139 -0.123187)
(-1.0419e-05 0.000154335 -0.123344)
(-7.49245e-06 0.000151976 -0.123745)
(2.86901e-06 0.000151983 -0.123812)
(2.115e-05 0.000173024 -0.130854)
(1.20932e-05 0.000177798 -0.130377)
(-1.49509e-06 0.000178393 -0.130228)
(-1.1961e-05 0.000175939 -0.130412)
(-8.07074e-06 0.000172471 -0.130765)
(-7.45681e-07 0.000170773 -0.130933)
(3.69741e-06 0.000170962 -0.130945)
(8.60039e-06 0.000173069 -0.1307)
(1.90612e-08 0.000174594 -0.130401)
(-1.01663e-05 0.000172606 -0.130562)
(-6.96096e-06 0.00017 -0.130969)
(3.61093e-06 0.000170035 -0.131038)
(2.18324e-05 0.000192183 -0.137961)
(1.26939e-05 0.000197514 -0.137474)
(-1.4722e-06 0.000198235 -0.137321)
(-1.2651e-05 0.000195475 -0.137513)
(-8.62568e-06 0.000191565 -0.137875)
(-1.0309e-06 0.000189715 -0.138042)
(3.399e-06 0.000189925 -0.13805)
(8.59857e-06 0.000192199 -0.137803)
(1.76736e-07 0.000193871 -0.137502)
(-9.8127e-06 0.000191698 -0.137665)
(-6.30026e-06 0.000188841 -0.138077)
(4.44045e-06 0.000188914 -0.138148)
(2.24648e-05 0.000212128 -0.144948)
(1.32806e-05 0.000218046 -0.144452)
(-1.45588e-06 0.000218911 -0.144295)
(-1.33637e-05 0.000215824 -0.144494)
(-9.22121e-06 0.000211441 -0.144865)
(-1.3742e-06 0.000209438 -0.14503)
(3.02506e-06 0.000209671 -0.145034)
(8.52465e-06 0.000212105 -0.144785)
(3.35735e-07 0.000213924 -0.144483)
(-9.35478e-06 0.000211562 -0.144649)
(-5.50597e-06 0.000208456 -0.145065)
(5.36051e-06 0.000208577 -0.145136)
(2.30457e-05 0.000232815 -0.151809)
(1.38506e-05 0.00023935 -0.151304)
(-1.44902e-06 0.000240377 -0.151144)
(-1.40997e-05 0.00023694 -0.15135)
(-9.86048e-06 0.000232054 -0.151728)
(-1.7802e-06 0.000229898 -0.151891)
(2.57278e-06 0.000230156 -0.151892)
(8.37515e-06 0.000232743 -0.151642)
(4.95508e-07 0.000234704 -0.151338)
(-8.78841e-06 0.000232151 -0.151506)
(-4.5733e-06 0.000228801 -0.151926)
(6.37397e-06 0.000228984 -0.151998)
(2.3573e-05 0.000254196 -0.158537)
(1.4401e-05 0.000261377 -0.158026)
(-1.4547e-06 0.000262588 -0.157863)
(-1.4859e-05 0.00025878 -0.158074)
(-1.05465e-05 0.000253357 -0.158459)
(-2.25351e-06 0.000251049 -0.15862)
(2.03968e-06 0.000251334 -0.158618)
(8.14689e-06 0.000254062 -0.158367)
(6.56276e-07 0.000256159 -0.158062)
(-8.10861e-06 0.000253416 -0.158232)
(-3.49717e-06 0.000249829 -0.158654)
(7.48356e-06 0.000250089 -0.158726)
(2.4044e-05 0.000276223 -0.165127)
(1.49278e-05 0.000284079 -0.164609)
(-1.4762e-06 0.000285496 -0.164443)
(-1.56412e-05 0.000281293 -0.16466)
(-1.12823e-05 0.0002753 -0.165051)
(-2.79871e-06 0.000272842 -0.165209)
(1.4238e-06 0.000273155 -0.165205)
(7.8372e-06 0.000276012 -0.164953)
(8.19152e-07 0.000278235 -0.164649)
(-7.30967e-06 0.000275303 -0.16482)
(-2.27241e-06 0.000271493 -0.165243)
(8.69182e-06 0.000271846 -0.165315)
(2.44553e-05 0.000298842 -0.17157)
(1.54267e-05 0.000307403 -0.171048)
(-1.51697e-06 0.000309048 -0.170879)
(-1.64455e-05 0.000304427 -0.171101)
(-1.20705e-05 0.000297831 -0.171496)
(-3.42021e-06 0.000295224 -0.171652)
(7.23844e-07 0.000295565 -0.171645)
(7.44422e-06 0.000298536 -0.171394)
(9.86293e-07 0.000300874 -0.17109)
(-6.38528e-06 0.000297756 -0.171262)
(-8.93933e-07 0.000293738 -0.171686)
(1.0001e-05 0.000294204 -0.171757)
(2.48029e-05 0.000321994 -0.177859)
(1.58928e-05 0.000331289 -0.177333)
(-1.58055e-06 0.000333189 -0.177162)
(-1.72699e-05 0.000328126 -0.177387)
(-1.29134e-05 0.000320891 -0.177787)
(-4.12208e-06 0.000318135 -0.17794)
(-6.05238e-08 0.000318504 -0.17793)
(6.96722e-06 0.000321572 -0.177681)
(1.16107e-06 0.000324012 -0.177377)
(-5.32869e-06 0.000320713 -0.177549)
(6.42989e-07 0.000316506 -0.177973)
(1.14128e-05 0.000317106 -0.178044)
(2.50829e-05 0.000345615 -0.183983)
(1.63206e-05 0.000355673 -0.183455)
(-1.67047e-06 0.000357854 -0.183282)
(-1.81119e-05 0.000352325 -0.18351)
(-1.38128e-05 0.000344416 -0.183913)
(-4.90783e-06 0.000341511 -0.184063)
(-9.28428e-07 0.000341907 -0.184051)
(6.40697e-06 0.000345053 -0.183803)
(1.34829e-06 0.000347581 -0.183502)
(-4.13287e-06 0.000344104 -0.183674)
(2.34257e-06 0.000339732 -0.184096)
(1.29287e-05 0.00034049 -0.184166)
(2.52914e-05 0.000369631 -0.189932)
(1.67046e-05 0.000380484 -0.189403)
(-1.79011e-06 0.000382974 -0.189229)
(-1.89678e-05 0.000376954 -0.189459)
(-1.47697e-05 0.000368334 -0.189864)
(-5.78008e-06 0.000365278 -0.19001)
(-1.8775e-06 0.0003657 -0.189997)
(5.76612e-06 0.000368901 -0.189752)
(1.55437e-06 0.000371501 -0.189453)
(-2.79057e-06 0.000367854 -0.189624)
(4.20835e-06 0.000363343 -0.190043)
(1.45497e-05 0.000364287 -0.190112)
(2.54249e-05 0.000393962 -0.195697)
(1.70392e-05 0.000405641 -0.195169)
(-1.94248e-06 0.00040847 -0.194993)
(-1.98331e-05 0.000401934 -0.195224)
(-1.57844e-05 0.000392565 -0.19563)
(-6.74029e-06 0.000389354 -0.195773)
(-2.90362e-06 0.000389797 -0.195757)
(5.04961e-06 0.000393033 -0.195517)
(1.78759e-06 0.000395686 -0.195221)
(-1.29444e-06 0.000391877 -0.19539)
(6.24317e-06 0.000387259 -0.195805)
(1.62765e-05 0.000388415 -0.195872)
(2.54811e-05 0.000418514 -0.201267)
(1.73195e-05 0.000431053 -0.200742)
(-2.13007e-06 0.000434251 -0.200564)
(-2.07024e-05 0.000427173 -0.200795)
(-1.68558e-05 0.000417017 -0.201201)
(-7.78849e-06 0.000413646 -0.201339)
(-4.00067e-06 0.000414105 -0.201323)
(4.26497e-06 0.000417352 -0.201087)
(2.05828e-06 0.000420039 -0.200795)
(3.63041e-07 0.000416076 -0.200963)
(8.44926e-06 0.000411385 -0.201372)
(1.81098e-05 0.000412786 -0.201437)
(2.54592e-05 0.000443182 -0.206633)
(1.75414e-05 0.000456615 -0.206112)
(-2.35468e-06 0.000460215 -0.205934)
(-2.15697e-05 0.00045257 -0.206164)
(-1.79822e-05 0.000441587 -0.206568)
(-8.92308e-06 0.000438047 -0.206702)
(-5.16043e-06 0.000438516 -0.206684)
(3.42255e-06 0.000441748 -0.206455)
(2.3789e-06 0.000444449 -0.206168)
(2.18962e-06 0.000440344 -0.206332)
(1.08285e-05 0.000435617 -0.206735)
(2.00505e-05 0.000437296 -0.206797)
(2.53598e-05 0.00046785 -0.211789)
(1.77021e-05 0.000482212 -0.211274)
(-2.61735e-06 0.000486245 -0.211096)
(-2.24285e-05 0.000478006 -0.211323)
(-1.91609e-05 0.000466157 -0.211725)
(-1.01405e-05 0.000462437 -0.211853)
(-6.37221e-06 0.000462907 -0.211834)
(2.53565e-06 0.000466098 -0.211612)
(2.764e-06 0.000468791 -0.211332)
(4.19316e-06 0.000464557 -0.211492)
(1.33824e-05 0.000459837 -0.211886)
(2.21004e-05 0.000461829 -0.211946)
(2.51855e-05 0.000492367 -0.216726)
(1.77997e-05 0.000507694 -0.216221)
(-2.91781e-06 0.000512192 -0.216043)
(-2.32714e-05 0.000503334 -0.216266)
(-2.03875e-05 0.000490579 -0.216663)
(-1.14348e-05 0.000486663 -0.216786)
(-7.62232e-06 0.000487122 -0.216766)
(1.62103e-06 0.000490247 -0.216552)
(3.22988e-06 0.00049291 -0.21628)
(6.38072e-06 0.000488561 -0.216436)
(1.61112e-05 0.000483892 -0.216819)
(2.4261e-05 0.000486237 -0.216876)
(2.49398e-05 0.000516553 -0.221439)
(1.78327e-05 0.000532882 -0.220944)
(-3.25407e-06 0.000537881 -0.220767)
(-2.40888e-05 0.000528379 -0.220986)
(-2.16557e-05 0.000514674 -0.221377)
(-1.27972e-05 0.000510542 -0.221494)
(-8.89371e-06 0.000510979 -0.221473)
(6.99169e-07 0.000514008 -0.221269)
(3.79488e-06 0.000516618 -0.221006)
(8.75773e-06 0.000512173 -0.221156)
(1.90128e-05 0.000507604 -0.221526)
(2.65331e-05 0.000510341 -0.221581)
(2.46273e-05 0.000540223 -0.22592)
(1.78009e-05 0.000557591 -0.225438)
(-3.62284e-06 0.000563126 -0.225263)
(-2.48702e-05 0.000552955 -0.225475)
(-2.29565e-05 0.000538258 -0.225858)
(-1.42149e-05 0.000533887 -0.225969)
(-1.0166e-05 0.000534288 -0.225946)
(-2.06008e-07 0.000537191 -0.225753)
(4.47871e-06 0.000539724 -0.225501)
(1.13278e-05 0.000535204 -0.225644)
(2.20832e-05 0.000530787 -0.226)
(2.8917e-05 0.000533959 -0.226053)
(2.42538e-05 0.000563185 -0.230161)
(1.7705e-05 0.000581626 -0.229695)
(-4.01947e-06 0.00058773 -0.229522)
(-2.56039e-05 0.000576868 -0.229726)
(-2.42776e-05 0.000561136 -0.2301)
(-1.56712e-05 0.000556499 -0.230203)
(-1.14153e-05 0.000556847 -0.23018)
(-1.06704e-06 0.000559594 -0.229999)
(5.30164e-06 0.000562025 -0.229759)
(1.40924e-05 0.000557452 -0.229894)
(2.53159e-05 0.000553248 -0.230234)
(3.14121e-05 0.000556899 -0.230284)
(2.38264e-05 0.000585232 -0.234156)
(1.75469e-05 0.000604779 -0.233708)
(-4.43748e-06 0.000611485 -0.233538)
(-2.62768e-05 0.000599911 -0.233734)
(-2.5603e-05 0.000583104 -0.234096)
(-1.71444e-05 0.000578167 -0.234192)
(-1.26138e-05 0.000578444 -0.234168)
(-1.85275e-06 0.000581003 -0.234)
(6.28417e-06 0.000583305 -0.233773)
(1.70495e-05 0.000578708 -0.233899)
(2.87018e-05 0.000574778 -0.234222)
(3.40165e-05 0.000578955 -0.234268)
(2.33533e-05 0.000606154 -0.237898)
(1.73298e-05 0.000626838 -0.237471)
(-4.86831e-06 0.000634176 -0.237306)
(-2.6874e-05 0.000621874 -0.237492)
(-2.69126e-05 0.000603951 -0.237839)
(-1.8608e-05 0.000598677 -0.237927)
(-1.37293e-05 0.000598861 -0.237903)
(-2.52832e-06 0.000601199 -0.237749)
(7.44631e-06 0.000603347 -0.237536)
(2.01935e-05 0.000598758 -0.237653)
(3.22276e-05 0.000595168 -0.237956)
(3.67267e-05 0.000599917 -0.238)
(2.28438e-05 0.000625743 -0.241383)
(1.7058e-05 0.000647591 -0.240979)
(-5.30133e-06 0.000655591 -0.24082)
(-2.73786e-05 0.000642546 -0.240994)
(-2.81816e-05 0.000623469 -0.241326)
(-2.003e-05 0.000617815 -0.241405)
(-1.47259e-05 0.000617884 -0.241381)
(-3.05554e-06 0.000619967 -0.241241)
(8.80671e-06 0.000621934 -0.241043)
(2.35136e-05 0.000617389 -0.241151)
(3.58762e-05 0.00061421 -0.241433)
(3.95364e-05 0.000619577 -0.241475)
(2.23084e-05 0.000643803 -0.244608)
(1.67368e-05 0.000666834 -0.244229)
(-5.72384e-06 0.000675522 -0.244076)
(-2.77718e-05 0.000661725 -0.244238)
(-2.93801e-05 0.000641458 -0.244552)
(-2.13731e-05 0.000635375 -0.244623)
(-1.55639e-05 0.000635306 -0.244597)
(-3.39353e-06 0.0006371 -0.244473)
(1.03817e-05 0.00063886 -0.244291)
(2.69938e-05 0.000634399 -0.244388)
(3.96253e-05 0.000631703 -0.244649)
(4.24364e-05 0.000637737 -0.244688)
(2.1758e-05 0.000660145 -0.247569)
(1.63726e-05 0.000684374 -0.247217)
(-6.12119e-06 0.000693773 -0.247071)
(-2.80328e-05 0.000679218 -0.247221)
(-3.04732e-05 0.000657729 -0.247515)
(-2.25951e-05 0.000651166 -0.247576)
(-1.62006e-05 0.000650928 -0.247551)
(-3.49965e-06 0.000652403 -0.247442)
(1.21841e-05 0.000653934 -0.247276)
(3.06115e-05 0.000649598 -0.247362)
(4.34475e-05 0.000647462 -0.247601)
(4.54135e-05 0.000654212 -0.247639)
(2.1204e-05 0.000674595 -0.250267)
(1.59723e-05 0.000700033 -0.249943)
(-6.47689e-06 0.000710153 -0.249806)
(-2.81389e-05 0.000694842 -0.249942)
(-3.14214e-05 0.000672104 -0.250215)
(-2.36493e-05 0.000664998 -0.250267)
(-1.65911e-05 0.000664565 -0.250242)
(-3.33066e-06 0.000665687 -0.250148)
(1.42223e-05 0.000666964 -0.249998)
(3.43379e-05 0.000662801 -0.250074)
(4.73099e-05 0.000661306 -0.25029)
(4.84501e-05 0.000668817 -0.250326)
(2.06584e-05 0.000686994 -0.252704)
(1.5544e-05 0.000713643 -0.252409)
(-6.77356e-06 0.000724508 -0.252282)
(-2.80659e-05 0.000708447 -0.252404)
(-3.21814e-05 0.000684423 -0.252654)
(-2.44857e-05 0.000676717 -0.252696)
(-1.66892e-05 0.000676067 -0.252671)
(-2.845e-06 0.0006768 -0.252592)
(1.64994e-05 0.000677801 -0.252459)
(3.81376e-05 0.000673869 -0.252523)
(5.11736e-05 0.000673085 -0.252717)
(5.1524e-05 0.000681394 -0.252753)
(2.01338e-05 0.000697261 -0.254883)
(1.50969e-05 0.000725101 -0.254618)
(-6.9922e-06 0.000736714 -0.254503)
(-2.77899e-05 0.000719919 -0.254611)
(-3.27072e-05 0.000694596 -0.254836)
(-2.50536e-05 0.000686227 -0.254869)
(-1.64501e-05 0.000685326 -0.254844)
(-2.00341e-06 0.000685643 -0.25478)
(1.90114e-05 0.000686352 -0.254663)
(4.19689e-05 0.000682698 -0.254716)
(5.49941e-05 0.000682707 -0.254888)
(5.46074e-05 0.000691857 -0.254923)
(1.96429e-05 0.000705314 -0.256813)
(1.46415e-05 0.000734328 -0.256578)
(-7.1132e-06 0.000746682 -0.256474)
(-2.72871e-05 0.00072917 -0.256568)
(-3.29512e-05 0.000702539 -0.256768)
(-2.5302e-05 0.00069344 -0.256792)
(-1.58315e-05 0.000692258 -0.256767)
(-7.72185e-07 0.000692137 -0.256717)
(2.17467e-05 0.000692542 -0.256615)
(4.57835e-05 0.00068922 -0.256659)
(5.87216e-05 0.000690093 -0.25681)
(5.76659e-05 0.000700119 -0.256843)
(1.9198e-05 0.0007111 -0.258503)
(1.4189e-05 0.000741257 -0.258297)
(-7.11656e-06 0.000754343 -0.258205)
(-2.65342e-05 0.000736137 -0.258285)
(-3.28669e-05 0.000708193 -0.25846)
(-2.51825e-05 0.000698294 -0.258475)
(-1.47966e-05 0.000696803 -0.258451)
(8.73921e-07 0.000696227 -0.258413)
(2.46851e-05 0.000696322 -0.258326)
(4.95281e-05 0.000693387 -0.25836)
(6.23006e-05 0.000695188 -0.258491)
(6.0659e-05 0.000706119 -0.258524)
(1.88093e-05 0.000714599 -0.259963)
(1.37505e-05 0.000745858 -0.259787)
(-6.98276e-06 0.000759657 -0.259707)
(-2.55101e-05 0.000740787 -0.259774)
(-3.24101e-05 0.00071153 -0.259924)
(-2.46512e-05 0.000700766 -0.25993)
(-1.33168e-05 0.000698938 -0.259906)
(2.94891e-06 0.000697896 -0.259879)
(2.77977e-05 0.000697684 -0.259806)
(5.31448e-05 0.000695186 -0.259831)
(6.56714e-05 0.000697971 -0.259943)
(6.35394e-05 0.000709829 -0.259977)
(1.8485e-05 0.000715819 -0.261208)
(1.33361e-05 0.00074813 -0.26106)
(-6.69417e-06 0.000762612 -0.260992)
(-2.41975e-05 0.000743111 -0.261047)
(-3.15424e-05 0.000712554 -0.261171)
(-2.36726e-05 0.000700856 -0.261169)
(-1.13748e-05 0.000698665 -0.261146)
(5.45223e-06 0.000697157 -0.26113)
(3.10463e-05 0.000696649 -0.261069)
(5.65731e-05 0.000694636 -0.261086)
(6.87713e-05 0.00069845 -0.261181)
(6.62537e-05 0.000711252 -0.261216)
(1.82291e-05 0.000714797 -0.262252)
(1.29547e-05 0.000748097 -0.262131)
(-6.23718e-06 0.000763226 -0.262075)
(-2.25869e-05 0.000743134 -0.262118)
(-3.02347e-05 0.000711292 -0.262219)
(-2.22224e-05 0.000698597 -0.262209)
(-8.96882e-06 0.000696021 -0.262186)
(8.36565e-06 0.000694054 -0.262179)
(3.4383e-05 0.000693272 -0.26213)
(5.97536e-05 0.000691785 -0.26214)
(7.15378e-05 0.000696662 -0.26222)
(6.87452e-05 0.000710416 -0.262254)
(1.80444e-05 0.000711618 -0.263113)
(1.26148e-05 0.000745834 -0.263017)
(-5.60665e-06 0.00076156 -0.262973)
(-2.06817e-05 0.000740922 -0.263005)
(-2.84709e-05 0.000707823 -0.263083)
(-2.02916e-05 0.000694076 -0.263066)
(-6.11722e-06 0.000691097 -0.263044)
(1.165e-05 0.000688688 -0.263044)
(3.77533e-05 0.000687656 -0.263006)
(6.26338e-05 0.000686734 -0.26301)
(7.39169e-05 0.000692694 -0.263075)
(7.09605e-05 0.000707396 -0.26311)
(1.79377e-05 0.000706432 -0.263809)
(1.23362e-05 0.000741474 -0.263736)
(-4.80111e-06 0.000757738 -0.263704)
(-1.84995e-05 0.000736599 -0.263727)
(-2.62552e-05 0.00070229 -0.263783)
(-1.78885e-05 0.000687445 -0.26376)
(-2.85631e-06 0.000684047 -0.263739)
(1.52452e-05 0.000681227 -0.263745)
(4.10981e-05 0.000679978 -0.263715)
(6.51682e-05 0.000679649 -0.263714)
(7.58658e-05 0.000686697 -0.263768)
(7.28509e-05 0.000702334 -0.263803)
(1.79148e-05 0.000699401 -0.264364)
(1.21371e-05 0.000735177 -0.26431)
(-3.82017e-06 0.000751907 -0.264288)
(-1.60651e-05 0.000730315 -0.264303)
(-2.36113e-05 0.000694848 -0.264341)
(-1.50388e-05 0.00067887 -0.264312)
(7.76152e-07 0.000675041 -0.264292)
(1.91012e-05 0.000671851 -0.264302)
(4.43745e-05 0.00067043 -0.264279)
(6.73305e-05 0.000670714 -0.264275)
(7.73594e-05 0.000678835 -0.264319)
(7.43814e-05 0.000695384 -0.264354)
(1.79723e-05 0.0006907 -0.264797)
(1.20259e-05 0.000727109 -0.26476)
(-2.6717e-06 0.000744228 -0.264747)
(-1.34095e-05 0.000722225 -0.264756)
(-2.05738e-05 0.000685661 -0.264777)
(-1.1776e-05 0.000668522 -0.264743)
(4.73143e-06 0.000664258 -0.264725)
(2.31641e-05 0.00066075 -0.264738)
(4.75469e-05 0.000659207 -0.264721)
(6.91134e-05 0.000660115 -0.264715)
(7.83918e-05 0.000669283 -0.26475)
(7.55307e-05 0.000686715 -0.264785)
(1.81001e-05 0.000680494 -0.265129)
(1.20097e-05 0.000717436 -0.265106)
(-1.37032e-06 0.000734861 -0.265101)
(-1.05727e-05 0.000712488 -0.265104)
(-1.71858e-05 0.000674889 -0.265111)
(-8.1453e-06 0.000656572 -0.265074)
(8.9419e-06 0.000651874 -0.265057)
(2.73586e-05 0.000648115 -0.265073)
(5.05744e-05 0.000646511 -0.26506)
(7.05145e-05 0.000648044 -0.265052)
(7.89682e-05 0.000658213 -0.265081)
(7.62857e-05 0.000676488 -0.265115)
(1.82884e-05 0.000668939 -0.265376)
(1.20898e-05 0.000706311 -0.265365)
(6.67982e-08 0.00072396 -0.265367)
(-7.59413e-06 0.000701251 -0.265366)
(-1.35001e-05 0.000662681 -0.265361)
(-4.20638e-06 0.000643182 -0.265321)
(1.3337e-05 0.00063806 -0.265305)
(3.16115e-05 0.000634124 -0.265322)
(5.34226e-05 0.000632525 -0.265314)
(7.1538e-05 0.000634677 -0.265304)
(7.91013e-05 0.000645785 -0.265328)
(7.66417e-05 0.000664855 -0.265361)
(1.85257e-05 0.000656176 -0.265555)
(1.22645e-05 0.000693881 -0.265553)
(1.61964e-06 0.000711667 -0.26556)
(-4.51154e-06 0.000688652 -0.265556)
(-9.57478e-06 0.000649177 -0.265541)
(-2.43174e-08 0.000628503 -0.265499)
(1.78458e-05 0.000622971 -0.265485)
(3.58546e-05 0.00061894 -0.265503)
(5.60644e-05 0.00061742 -0.265498)
(7.21979e-05 0.000620176 -0.265487)
(7.88135e-05 0.000632148 -0.265506)
(7.6605e-05 0.000651956 -0.265539)
(1.88e-05 0.000642337 -0.265678)
(1.25285e-05 0.000680276 -0.265684)
(3.26697e-06 0.000698116 -0.265696)
(-1.36029e-06 0.00067482 -0.265688)
(-5.46899e-06 0.000634504 -0.265666)
(4.33383e-06 0.000612673 -0.265623)
(2.23993e-05 0.000606755 -0.26561)
(4.00258e-05 0.000602716 -0.265629)
(5.84798e-05 0.000601351 -0.265626)
(7.25149e-05 0.000604688 -0.265615)
(7.81357e-05 0.00061744 -0.265631)
(7.61913e-05 0.000637924 -0.265662)
(1.90992e-05 0.000627535 -0.265759)
(1.28738e-05 0.000665613 -0.26577)
(4.98751e-06 0.000683428 -0.265785)
(1.82865e-06 0.000659868 -0.265775)
(-1.2399e-06 0.000618775 -0.265747)
(8.80206e-06 0.000595818 -0.265704)
(2.69342e-05 0.00058954 -0.265692)
(4.40717e-05 0.000585585 -0.265712)
(6.06559e-05 0.000584453 -0.26571)
(7.25146e-05 0.000588346 -0.265699)
(7.7104e-05 0.000601782 -0.265712)
(7.54241e-05 0.000622876 -0.265742)
(1.94126e-05 0.000611865 -0.265805)
(1.32911e-05 0.000649994 -0.265821)
(6.7613e-06 0.000667704 -0.265837)
(5.0294e-06 0.000643895 -0.265826)
(3.05952e-06 0.000602087 -0.265794)
(1.33182e-05 0.000578043 -0.26575)
(3.13947e-05 0.000571439 -0.265741)
(4.79483e-05 0.000567662 -0.26576)
(6.25853e-05 0.000566843 -0.26576)
(7.22247e-05 0.000571261 -0.265749)
(7.57567e-05 0.000585278 -0.26576)
(7.43316e-05 0.000606909 -0.265789)
(1.97313e-05 0.000595406 -0.265826)
(1.377e-05 0.0006335 -0.265845)
(8.57049e-06 0.000651033 -0.265862)
(8.22087e-06 0.000626985 -0.26585)
(7.38153e-06 0.000584521 -0.265814)
(1.78256e-05 0.000559439 -0.265771)
(3.57328e-05 0.000552546 -0.265763)
(5.16208e-05 0.000549041 -0.265783)
(6.4265e-05 0.000548617 -0.265784)
(7.16726e-05 0.000553524 -0.265773)
(7.41313e-05 0.000568015 -0.265782)
(7.29441e-05 0.000590108 -0.26581)
(2.00486e-05 0.00057822 -0.265827)
(1.43009e-05 0.000616198 -0.265847)
(1.03996e-05 0.000633483 -0.265865)
(1.13855e-05 0.000609203 -0.265852)
(1.16833e-05 0.000566144 -0.265815)
(2.22733e-05 0.00054008 -0.265773)
(3.99075e-05 0.00053294 -0.265766)
(5.5061e-05 0.0005298 -0.265786)
(6.56947e-05 0.000529851 -0.265788)
(7.0884e-05 0.00053521 -0.265778)
(7.22625e-05 0.000550064 -0.265785)
(7.12919e-05 0.00057254 -0.265812)
(2.03598e-05 0.000560354 -0.265813)
(1.48747e-05 0.000598138 -0.265835)
(1.22352e-05 0.000615112 -0.265853)
(1.45076e-05 0.000590604 -0.265839)
(1.5926e-05 0.000547007 -0.2658)
(2.66155e-05 0.000520025 -0.265759)
(4.38827e-05 0.000512681 -0.265754)
(5.82456e-05 0.000509998 -0.265774)
(6.68753e-05 0.000510606 -0.265777)
(6.98817e-05 0.000516378 -0.265767)
(7.01811e-05 0.000531481 -0.265773)
(6.94036e-05 0.000554257 -0.265799)
(2.06614e-05 0.000541843 -0.265788)
(1.5483e-05 0.000579361 -0.265811)
(1.40652e-05 0.000595961 -0.265828)
(1.75721e-05 0.000571229 -0.265813)
(2.00732e-05 0.000527155 -0.265775)
(3.08098e-05 0.000499321 -0.265735)
(4.76253e-05 0.00049182 -0.265731)
(6.11534e-05 0.000489684 -0.265751)
(6.78075e-05 0.000490925 -0.265756)
(6.86856e-05 0.000497071 -0.265746)
(6.79145e-05 0.000512307 -0.265751)
(6.73057e-05 0.000535301 -0.265775)
(2.0951e-05 0.000522711 -0.265756)
(1.6118e-05 0.000559895 -0.265778)
(1.58778e-05 0.000576063 -0.265795)
(2.05625e-05 0.000551112 -0.26578)
(2.40894e-05 0.000506619 -0.265741)
(3.48161e-05 0.000478008 -0.265703)
(5.11034e-05 0.000470394 -0.2657)
(6.37638e-05 0.000468892 -0.26572)
(6.84912e-05 0.000470842 -0.265726)
(6.7313e-05 0.000477323 -0.265717)
(6.54868e-05 0.000492576 -0.265721)
(6.50228e-05 0.000515702 -0.265744)
(2.1226e-05 0.000502976 -0.265718)
(1.67723e-05 0.00053976 -0.26574)
(1.76613e-05 0.000555443 -0.265755)
(2.34604e-05 0.000530277 -0.26574)
(2.79384e-05 0.000485427 -0.265702)
(3.85943e-05 0.000456113 -0.265666)
(5.42836e-05 0.000448434 -0.265664)
(6.6055e-05 0.000447647 -0.265685)
(6.89251e-05 0.00045038 -0.265691)
(6.57789e-05 0.000457156 -0.265682)
(6.29205e-05 0.000472312 -0.265686)
(6.25782e-05 0.000495483 -0.265707)
(2.14838e-05 0.000482648 -0.265677)
(1.74382e-05 0.000518971 -0.265697)
(1.94028e-05 0.00053412 -0.265712)
(2.62449e-05 0.000508746 -0.265696)
(3.15824e-05 0.000463601 -0.265659)
(4.21034e-05 0.000433663 -0.265625)
(5.71306e-05 0.000425964 -0.265625)
(6.80029e-05 0.000425967 -0.265645)
(6.91063e-05 0.000429554 -0.265652)
(6.40975e-05 0.000436587 -0.265644)
(6.02374e-05 0.000451534 -0.265647)
(5.99946e-05 0.000474661 -0.265667)
(2.17217e-05 0.000461735 -0.265634)
(1.81081e-05 0.000497542 -0.265653)
(2.10884e-05 0.00051211 -0.265666)
(2.88918e-05 0.000486539 -0.26565)
(3.49815e-05 0.000441162 -0.265614)
(4.53002e-05 0.000410678 -0.265582)
(5.96061e-05 0.000403002 -0.265584)
(6.95811e-05 0.000403866 -0.265604)
(6.90309e-05 0.000408371 -0.265611)
(6.22823e-05 0.000415628 -0.265605)
(5.74598e-05 0.000430255 -0.265607)
(5.72951e-05 0.00045325 -0.265625)
(2.19362e-05 0.000440243 -0.26559)
(1.87747e-05 0.000475482 -0.265608)
(2.27032e-05 0.000489427 -0.26562)
(3.13743e-05 0.00046367 -0.265603)
(3.80939e-05 0.000418129 -0.265568)
(4.81393e-05 0.000387178 -0.265539)
(6.16682e-05 0.000379566 -0.265542)
(7.07608e-05 0.000381351 -0.265562)
(6.86939e-05 0.000386835 -0.26557)
(6.03475e-05 0.000394284 -0.265564)
(5.46114e-05 0.000408486 -0.265566)