/*--------------------------------*- C++ -*----------------------------------*\
| =========                 |                                                 |
| \\      /  F ield         | OpenFOAM: The Open Source CFD Toolbox           |
|  \\    /   O peration     | Version:  v1912                                 |
|   \\  /    A nd           | Website:  www.openfoam.com                      |
|    \\/     M anipulation  |                                                 |
\*---------------------------------------------------------------------------*/
FoamFile
{
    version     2.0;
    format      ascii;
    class       volScalarField;
    location    "9.2";
    object      heatTransferCoeff(T);
}
// * * * * * * * * * * * * * * * * * * * * * * * * * * * * * * * * * * * * * //

dimensions      [1 0 -3 -1 0 0 0];


internalField   uniform 0;

boundaryField
{
    leftWall
    {
        type            calculated;
        value           nonuniform List<scalar> 
216
(
-166.47
-168.912
-169.432
-171.82
-172.944
-175.348
-177.076
-179.565
-181.927
-184.566
-187.613
-190.462
-194.254
-197.365
-201.945
-205.34
-210.714
-214.378
-166.37
-168.681
-169.22
-171.506
-172.662
-174.98
-176.751
-179.171
-181.593
-184.205
-187.366
-190.281
-194.305
-197.642
-202.641
-206.482
-212.505
-216.853
-164.717
-166.682
-167.381
-169.449
-170.917
-173.158
-175.379
-177.831
-180.787
-183.48
-187.165
-190.12
-194.552
-197.8
-203.025
-206.643
-212.781
-216.962
-164.953
-166.858
-167.623
-169.668
-171.278
-173.552
-175.991
-178.535
-181.768
-184.579
-188.539
-191.569
-196.168
-199.339
-204.508
-207.821
-213.638
-217.349
-165.053
-166.869
-167.523
-169.371
-170.769
-172.743
-174.852
-177.006
-179.821
-182.193
-185.722
-188.357
-192.62
-195.576
-200.614
-203.97
-209.845
-213.728
-165.266
-167.146
-167.712
-169.523
-170.721
-172.541
-174.308
-176.186
-178.512
-180.501
-183.441
-185.651
-189.339
-191.962
-196.602
-199.858
-205.623
-209.644
-165.794
-167.842
-168.422
-170.393
-171.589
-173.563
-175.314
-177.333
-179.631
-181.744
-184.643
-186.953
-190.591
-193.297
-197.908
-201.281
-207.121
-211.391
-165.361
-167.548
-168.179
-170.327
-171.614
-173.811
-175.713
-178.003
-180.521
-182.943
-186.113
-188.732
-192.641
-195.589
-200.397
-203.892
-209.814
-214.079
-163.903
-166.377
-167.131
-169.615
-171.156
-173.722
-175.992
-178.663
-181.626
-184.408
-188.034
-190.922
-195.188
-198.196
-203.111
-206.299
-211.927
-215.417
-163.797
-166.291
-167.089
-169.619
-171.262
-173.883
-176.302
-179.027
-182.17
-185.005
-188.841
-191.808
-196.335
-199.475
-204.721
-208.095
-214.09
-217.76
-165.807
-168.313
-169.019
-171.51
-172.959
-175.463
-177.578
-180.107
-182.841
-185.418
-188.781
-191.469
-195.531
-198.447
-203.336
-206.651
-212.522
-216.419
-166.016
-168.553
-169.208
-171.714
-173.081
-175.591
-177.603
-180.139
-182.761
-185.353
-188.598
-191.3
-195.227
-198.136
-202.851
-206.109
-211.749
-215.515
)
;
    }
    rightWall
    {
        type            calculated;
        value           nonuniform List<scalar> 
216
(
-166.597
-168.354
-168.756
-170.592
-171.392
-173.363
-174.558
-176.687
-178.294
-180.609
-182.651
-185.187
-187.697
-190.483
-193.504
-196.578
-200.177
-203.607
-166.264
-168.167
-168.569
-170.522
-171.308
-173.352
-174.505
-176.654
-178.183
-180.452
-182.384
-184.801
-187.188
-189.797
-192.716
-195.592
-199.155
-202.433
-166.682
-168.643
-168.987
-170.976
-171.674
-173.717
-174.758
-176.867
-178.26
-180.452
-182.23
-184.534
-186.761
-189.23
-191.998
-194.727
-198.167
-201.312
-166.707
-168.61
-168.897
-170.837
-171.485
-173.491
-174.518
-176.628
-178.056
-180.31
-182.176
-184.611
-186.964
-189.62
-192.523
-195.448
-198.977
-202.241
-166.192
-168.141
-168.431
-170.44
-171.116
-173.225
-174.316
-176.568
-178.099
-180.531
-182.525
-185.167
-187.653
-190.528
-193.538
-196.666
-200.238
-203.641
-165.419
-167.38
-167.723
-169.766
-170.515
-172.695
-173.867
-176.209
-177.82
-180.337
-182.399
-185.107
-187.629
-190.545
-193.549
-196.7
-200.244
-203.692
-164.898
-166.65
-166.988
-168.824
-169.55
-171.542
-172.666
-174.843
-176.389
-178.77
-180.769
-183.378
-185.857
-188.711
-191.71
-194.84
-198.433
-201.922
-164.967
-166.839
-167.153
-169.077
-169.755
-171.787
-172.833
-175.004
-176.436
-178.772
-180.626
-183.157
-185.487
-188.246
-191.112
-194.14
-197.625
-200.998
-164.761
-166.816
-167.118
-169.194
-169.847
-171.972
-172.979
-175.186
-176.556
-178.879
-180.653
-183.135
-185.384
-188.081
-190.897
-193.885
-197.389
-200.773
-165.334
-167.407
-167.736
-169.849
-170.543
-172.719
-173.795
-176.058
-177.533
-179.914
-181.82
-184.359
-186.754
-189.502
-192.473
-195.505
-199.172
-202.589
-167.402
-169.473
-169.822
-171.968
-172.706
-174.952
-176.1
-178.465
-180.039
-182.536
-184.552
-187.193
-189.672
-192.476
-195.459
-198.46
-202.021
-205.274
-167.825
-169.743
-170.055
-172.045
-172.725
-174.809
-175.882
-178.088
-179.571
-181.917
-183.835
-186.334
-188.713
-191.388
-194.261
-197.154
-200.578
-203.755
)
;
    }
    leftSides_periodic0
    {
        type            cyclic;
    }
    leftSides_periodic1
    {
        type            cyclic;
    }
    rightSides_periodic0
    {
        type            cyclic;
    }
    rightSides_periodic1
    {
        type            cyclic;
    }
    leftInOut_periodic0
    {
        type            calculated;
        value           uniform 0;
    }
    leftInOut_periodic1
    {
        type            calculated;
        value           nonuniform 0();
    }
    rightInOut_periodic0
    {
        type            calculated;
        value           uniform 0;
    }
    rightInOut_periodic1
    {
        type            calculated;
        value           nonuniform 0();
    }
    procBoundary0to1
    {
        type            processor;
        value           uniform 0;
    }
    procBoundary0to2throughleftSides_periodic1
    {
        type            processorCyclic;
        value           uniform 0;
    }
    procBoundary0to2throughrightSides_periodic1
    {
        type            processorCyclic;
        value           uniform 0;
    }
    procBoundary0to3
    {
        type            processor;
        value           uniform 0;
    }
}


// ************************************************************************* //
