/*--------------------------------*- C++ -*----------------------------------*\
| =========                 |                                                 |
| \\      /  F ield         | OpenFOAM: The Open Source CFD Toolbox           |
|  \\    /   O peration     | Version:  v1912                                 |
|   \\  /    A nd           | Website:  www.openfoam.com                      |
|    \\/     M anipulation  |                                                 |
\*---------------------------------------------------------------------------*/
FoamFile
{
    version     2.0;
    format      ascii;
    class       volScalarField;
    location    "9.2";
    object      k;
}
// * * * * * * * * * * * * * * * * * * * * * * * * * * * * * * * * * * * * * //

dimensions      [0 2 -2 0 0 0 0];


internalField   nonuniform List<scalar> 
34128
(
2.70377e-07
2.75483e-07
2.71345e-07
2.68386e-07
2.60269e-07
2.51567e-07
2.51013e-07
2.57263e-07
2.68554e-07
2.77136e-07
2.77081e-07
2.74297e-07
5.24061e-08
5.36113e-08
5.2597e-08
5.1729e-08
5.06963e-08
4.965e-08
4.97564e-08
5.07938e-08
5.25102e-08
5.39415e-08
5.3845e-08
5.33451e-08
8.52417e-08
8.83238e-08
8.56196e-08
8.26749e-08
8.37763e-08
8.53831e-08
8.66678e-08
8.74754e-08
8.78502e-08
8.89733e-08
8.83249e-08
8.77099e-08
2.59294e-07
2.69372e-07
2.6062e-07
2.50682e-07
2.55715e-07
2.62679e-07
2.67345e-07
2.69304e-07
2.68917e-07
2.71515e-07
2.69141e-07
2.67379e-07
6.38563e-07
6.63639e-07
6.42254e-07
6.17348e-07
6.30248e-07
6.48276e-07
6.60298e-07
6.65054e-07
6.63315e-07
6.69132e-07
6.62932e-07
6.58611e-07
1.30391e-06
1.3552e-06
1.31238e-06
1.26114e-06
1.28766e-06
1.32541e-06
1.35089e-06
1.3607e-06
1.35588e-06
1.36664e-06
1.35346e-06
1.34465e-06
2.33052e-06
2.42202e-06
2.34743e-06
2.25536e-06
2.30298e-06
2.37231e-06
2.41979e-06
2.43734e-06
2.42571e-06
2.44237e-06
2.41811e-06
2.40251e-06
3.77151e-06
3.91877e-06
3.80172e-06
3.6522e-06
3.72993e-06
3.84591e-06
3.92638e-06
3.95432e-06
3.92887e-06
3.95051e-06
3.91058e-06
3.88588e-06
5.64191e-06
5.86002e-06
5.69113e-06
5.46717e-06
5.58496e-06
5.76544e-06
5.89198e-06
5.93214e-06
5.88135e-06
5.90396e-06
5.84418e-06
5.80856e-06
7.90802e-06
8.20927e-06
7.98219e-06
7.66866e-06
7.83633e-06
8.10073e-06
8.28768e-06
8.34029e-06
8.24763e-06
8.26336e-06
8.18108e-06
8.13379e-06
1.04869e-05
1.08786e-05
1.05915e-05
1.01775e-05
1.04032e-05
1.07705e-05
1.10322e-05
1.10955e-05
1.09402e-05
1.09376e-05
1.08325e-05
1.07742e-05
1.32566e-05
1.37395e-05
1.33961e-05
1.28771e-05
1.31653e-05
1.36514e-05
1.4001e-05
1.40715e-05
1.38307e-05
1.37953e-05
1.367e-05
1.36028e-05
1.60729e-05
1.66409e-05
1.62508e-05
1.56292e-05
1.59794e-05
1.65945e-05
1.70426e-05
1.71159e-05
1.67676e-05
1.66839e-05
1.65432e-05
1.64706e-05
1.88174e-05
1.94649e-05
1.90415e-05
1.8321e-05
1.87245e-05
1.94701e-05
2.0026e-05
2.01022e-05
1.96313e-05
1.94871e-05
1.93342e-05
1.92582e-05
2.14302e-05
2.21495e-05
2.17093e-05
2.08967e-05
2.13405e-05
2.22134e-05
2.28847e-05
2.29648e-05
2.2359e-05
2.21428e-05
2.19811e-05
2.19039e-05
2.3862e-05
2.46436e-05
2.4206e-05
2.33105e-05
2.37777e-05
2.47691e-05
2.55613e-05
2.56478e-05
2.48987e-05
2.46005e-05
2.4433e-05
2.4357e-05
2.60761e-05
2.69099e-05
2.64956e-05
2.55288e-05
2.59993e-05
2.70954e-05
2.80114e-05
2.81078e-05
2.72111e-05
2.68227e-05
2.66521e-05
2.65796e-05
2.80482e-05
2.89233e-05
2.85542e-05
2.75292e-05
2.79807e-05
2.9163e-05
3.02029e-05
3.03137e-05
2.92694e-05
2.87848e-05
2.86129e-05
2.85464e-05
2.97642e-05
3.06701e-05
3.03678e-05
2.92987e-05
2.97081e-05
3.09545e-05
3.21151e-05
3.22455e-05
3.10573e-05
3.04729e-05
3.03011e-05
3.02431e-05
3.12196e-05
3.21456e-05
3.1931e-05
3.08327e-05
3.11772e-05
3.24629e-05
3.37376e-05
3.38931e-05
3.25679e-05
3.18823e-05
3.17117e-05
3.1665e-05
3.24165e-05
3.33524e-05
3.32449e-05
3.21326e-05
3.23909e-05
3.36898e-05
3.50683e-05
3.5254e-05
3.38016e-05
3.30155e-05
3.28469e-05
3.28145e-05
3.33624e-05
3.42984e-05
3.43146e-05
3.32041e-05
3.33577e-05
3.46428e-05
3.61116e-05
3.63316e-05
3.4764e-05
3.38799e-05
3.37145e-05
3.37001e-05
3.40673e-05
3.49933e-05
3.51475e-05
3.40551e-05
3.40889e-05
3.53333e-05
3.68754e-05
3.71323e-05
3.54637e-05
3.44858e-05
3.43249e-05
3.43328e-05
3.45409e-05
3.54463e-05
3.57495e-05
3.46923e-05
3.45957e-05
3.57733e-05
3.73684e-05
3.76627e-05
3.5909e-05
3.48437e-05
3.4689e-05
3.47242e-05
3.47903e-05
3.56633e-05
3.61229e-05
3.5119e-05
3.48867e-05
3.59727e-05
3.75969e-05
3.79266e-05
3.61062e-05
3.49615e-05
3.48154e-05
3.48836e-05
3.48178e-05
3.56448e-05
3.62632e-05
3.53322e-05
3.49652e-05
3.59371e-05
3.75631e-05
3.79237e-05
3.60571e-05
3.48433e-05
3.47084e-05
3.48155e-05
3.46201e-05
3.53857e-05
3.6159e-05
3.53221e-05
3.48284e-05
3.56664e-05
3.7264e-05
3.76479e-05
3.57586e-05
3.44885e-05
3.43678e-05
3.45197e-05
3.4187e-05
3.48727e-05
3.57867e-05
3.50678e-05
3.44649e-05
3.51536e-05
3.66875e-05
3.7083e-05
3.52006e-05
3.3891e-05
3.37878e-05
3.39895e-05
3.34905e-05
3.40717e-05
3.50938e-05
3.45204e-05
3.38429e-05
3.43732e-05
3.57991e-05
3.61868e-05
3.43545e-05
3.30313e-05
3.29486e-05
3.32029e-05
3.249e-05
3.29405e-05
3.40238e-05
3.36186e-05
3.29139e-05
3.32865e-05
3.45575e-05
3.49149e-05
3.31832e-05
3.18806e-05
3.18207e-05
3.21253e-05
3.11741e-05
3.14776e-05
3.25749e-05
3.23471e-05
3.16607e-05
3.18855e-05
3.2968e-05
3.3277e-05
3.16872e-05
3.04383e-05
3.04019e-05
3.07499e-05
2.95937e-05
2.97439e-05
3.082e-05
3.07684e-05
3.0134e-05
3.02252e-05
3.11015e-05
3.13508e-05
2.99266e-05
2.87537e-05
2.87409e-05
2.91254e-05
2.77664e-05
2.77691e-05
2.8791e-05
2.88987e-05
2.83428e-05
2.83259e-05
2.8994e-05
2.91771e-05
2.79326e-05
2.68538e-05
2.68628e-05
2.72727e-05
2.57469e-05
2.56152e-05
2.65548e-05
2.67983e-05
2.63405e-05
2.62429e-05
2.6712e-05
2.68267e-05
2.5767e-05
2.47957e-05
2.48233e-05
2.52455e-05
2.36038e-05
2.33569e-05
2.41934e-05
2.45436e-05
2.41948e-05
2.40444e-05
2.43331e-05
2.43819e-05
2.35033e-05
2.26473e-05
2.26896e-05
2.31105e-05
2.14088e-05
2.10709e-05
2.17918e-05
2.22165e-05
2.19784e-05
2.18012e-05
2.1935e-05
2.19243e-05
2.1216e-05
2.04778e-05
2.05304e-05
2.09372e-05
1.92309e-05
1.8829e-05
1.94304e-05
1.98971e-05
1.97628e-05
1.95807e-05
1.95893e-05
1.95288e-05
1.89743e-05
1.83511e-05
1.84097e-05
1.87914e-05
1.7131e-05
1.66932e-05
1.71792e-05
1.76578e-05
1.76133e-05
1.74424e-05
1.7357e-05
1.72586e-05
1.68376e-05
1.63223e-05
1.63829e-05
1.67313e-05
1.51596e-05
1.4713e-05
1.50942e-05
1.55592e-05
1.55854e-05
1.54357e-05
1.52861e-05
1.51629e-05
1.48531e-05
1.44353e-05
1.44946e-05
1.48046e-05
1.33549e-05
1.2924e-05
1.32156e-05
1.36474e-05
1.3723e-05
1.35982e-05
1.3411e-05
1.32757e-05
1.30546e-05
1.27219e-05
1.27776e-05
1.30473e-05
1.17427e-05
1.13482e-05
1.15684e-05
1.19537e-05
1.2057e-05
1.19554e-05
1.17527e-05
1.16171e-05
1.14632e-05
1.12023e-05
1.12529e-05
1.14835e-05
1.03373e-05
9.99598e-06
1.01638e-05
1.04955e-05
1.06064e-05
1.05223e-05
1.03207e-05
1.01947e-05
1.00889e-05
9.88649e-06
9.93142e-06
1.01266e-05
9.14362e-06
8.86824e-06
9.00241e-06
9.27852e-06
9.37973e-06
9.30429e-06
9.11524e-06
9.007e-06
8.93281e-06
8.7763e-06
8.81576e-06
8.98099e-06
8.15943e-06
7.95967e-06
8.07788e-06
8.30026e-06
8.37744e-06
8.30013e-06
8.13039e-06
8.04606e-06
7.98967e-06
7.86801e-06
7.9028e-06
8.04457e-06
7.3782e-06
7.26152e-06
7.37972e-06
7.55298e-06
7.59468e-06
7.50402e-06
7.35649e-06
7.30054e-06
7.25087e-06
7.15463e-06
7.18599e-06
7.31131e-06
6.79133e-06
6.764e-06
6.89612e-06
7.02656e-06
7.02376e-06
6.90801e-06
6.78259e-06
6.75825e-06
6.70654e-06
6.62807e-06
6.6575e-06
6.77342e-06
6.39001e-06
6.45811e-06
6.61538e-06
6.71031e-06
6.65579e-06
6.50377e-06
6.39824e-06
6.4078e-06
6.34732e-06
6.28069e-06
6.30984e-06
6.42305e-06
6.16603e-06
6.33443e-06
6.52362e-06
6.5918e-06
6.4802e-06
6.28332e-06
6.19397e-06
6.23855e-06
6.16444e-06
6.10521e-06
6.13566e-06
6.25199e-06
6.10393e-06
6.32455e-06
6.54835e-06
6.59772e-06
6.46415e-06
6.2303e-06
6.14816e-06
6.21264e-06
6.13063e-06
6.07215e-06
6.10477e-06
6.22722e-06
6.14472e-06
6.41866e-06
6.66552e-06
6.70762e-06
6.55926e-06
6.28596e-06
6.20745e-06
6.29111e-06
6.19839e-06
6.13929e-06
6.17498e-06
6.30513e-06
6.27463e-06
6.57992e-06
6.81896e-06
6.86467e-06
6.72818e-06
6.43534e-06
6.35627e-06
6.44828e-06
6.34636e-06
6.28758e-06
6.32638e-06
6.45916e-06
6.46073e-06
6.74932e-06
6.95881e-06
7.01284e-06
6.91244e-06
6.64048e-06
6.5573e-06
6.63554e-06
6.53175e-06
6.47697e-06
6.51753e-06
6.64168e-06
6.64529e-06
6.89658e-06
7.0822e-06
7.14374e-06
7.07422e-06
6.84005e-06
6.75172e-06
6.80388e-06
6.7029e-06
6.65525e-06
6.69655e-06
6.80573e-06
6.80496e-06
7.02717e-06
7.19536e-06
7.26294e-06
7.21711e-06
7.01331e-06
6.91959e-06
6.94831e-06
6.84896e-06
6.80892e-06
6.85126e-06
6.94737e-06
6.94647e-06
7.14663e-06
7.30166e-06
7.37344e-06
7.34562e-06
7.16653e-06
7.06753e-06
7.07597e-06
6.97724e-06
6.94463e-06
6.98809e-06
7.07286e-06
7.07502e-06
7.2579e-06
7.4024e-06
7.47633e-06
7.46187e-06
7.3037e-06
7.20023e-06
7.19129e-06
7.09272e-06
7.06704e-06
7.11137e-06
7.18597e-06
7.19333e-06
7.36211e-06
7.49759e-06
7.57149e-06
7.56642e-06
7.42658e-06
7.32011e-06
7.29668e-06
7.19823e-06
7.17875e-06
7.22347e-06
7.28865e-06
7.30246e-06
7.45936e-06
7.58661e-06
7.65829e-06
7.65904e-06
7.53563e-06
7.42815e-06
7.3932e-06
7.29517e-06
7.281e-06
7.32551e-06
7.38174e-06
7.40257e-06
7.54924e-06
7.66864e-06
7.73593e-06
7.73929e-06
7.63076e-06
7.52459e-06
7.48118e-06
7.3841e-06
7.37432e-06
7.41794e-06
7.46555e-06
7.49343e-06
7.63122e-06
7.74293e-06
7.80379e-06
7.80685e-06
7.7118e-06
7.60944e-06
7.56067e-06
7.46517e-06
7.45886e-06
7.50095e-06
7.54018e-06
7.57474e-06
7.7048e-06
7.8089e-06
7.86146e-06
7.86166e-06
7.77881e-06
7.68271e-06
7.63158e-06
7.53841e-06
7.53471e-06
7.57469e-06
7.60581e-06
7.64629e-06
7.76967e-06
7.86618e-06
7.90882e-06
7.90398e-06
7.83213e-06
7.74457e-06
7.69393e-06
7.60382e-06
7.60198e-06
7.63937e-06
7.66269e-06
7.70805e-06
7.82567e-06
7.91463e-06
7.946e-06
7.93439e-06
7.87243e-06
7.79537e-06
7.74777e-06
7.6615e-06
7.66087e-06
7.69534e-06
7.71124e-06
7.76016e-06
7.87282e-06
7.95428e-06
7.97338e-06
7.95372e-06
7.90062e-06
7.83562e-06
7.79329e-06
7.71157e-06
7.71168e-06
7.74303e-06
7.75199e-06
7.80288e-06
7.91129e-06
7.98538e-06
7.99153e-06
7.96303e-06
7.91787e-06
7.86599e-06
7.83075e-06
7.75427e-06
7.75475e-06
7.78294e-06
7.78556e-06
7.83663e-06
7.94139e-06
8.00829e-06
8.00123e-06
7.96358e-06
7.92548e-06
7.8873e-06
7.86049e-06
7.78985e-06
7.79051e-06
7.81568e-06
7.81266e-06
7.86192e-06
7.96355e-06
8.02356e-06
8.00343e-06
7.9568e-06
7.92492e-06
7.90042e-06
7.88294e-06
7.81865e-06
7.81942e-06
7.84188e-06
7.83406e-06
7.8794e-06
7.97835e-06
8.03189e-06
7.99923e-06
7.94422e-06
7.91773e-06
7.90635e-06
7.89858e-06
7.84104e-06
7.842e-06
7.86221e-06
7.85055e-06
7.8898e-06
7.98647e-06
8.03412e-06
7.98986e-06
7.92746e-06
7.90551e-06
7.90616e-06
7.90799e-06
7.85746e-06
7.85881e-06
7.8774e-06
7.86298e-06
7.89396e-06
7.98873e-06
8.0312e-06
7.97667e-06
7.90817e-06
7.8899e-06
7.90096e-06
7.91182e-06
7.86841e-06
7.87046e-06
7.88819e-06
7.87221e-06
7.89283e-06
7.98609e-06
8.02423e-06
7.96105e-06
7.88798e-06
7.87248e-06
7.89194e-06
7.91083e-06
7.87448e-06
7.87763e-06
7.89539e-06
7.87909e-06
7.88745e-06
7.97959e-06
8.01436e-06
7.94442e-06
7.86845e-06
7.85478e-06
7.88028e-06
7.90586e-06
7.87637e-06
7.88105e-06
7.89981e-06
7.88447e-06
7.87895e-06
7.97037e-06
8.00284e-06
7.92818e-06
7.85103e-06
7.8382e-06
7.86721e-06
7.89787e-06
7.87486e-06
7.88153e-06
7.90229e-06
7.88918e-06
7.86853e-06
7.95964e-06
7.9909e-06
7.91364e-06
7.83697e-06
7.824e-06
7.85394e-06
7.88791e-06
7.87086e-06
7.87997e-06
7.90369e-06
7.89398e-06
7.85742e-06
7.94863e-06
7.97977e-06
7.90202e-06
7.82733e-06
7.81325e-06
7.84167e-06
7.87716e-06
7.86542e-06
7.87731e-06
7.90485e-06
7.89956e-06
7.84685e-06
7.9386e-06
7.97061e-06
7.89435e-06
7.82291e-06
7.80684e-06
7.83153e-06
7.86685e-06
7.85967e-06
7.87457e-06
7.90663e-06
7.90653e-06
7.83804e-06
7.93072e-06
7.96449e-06
7.89145e-06
7.82425e-06
7.80539e-06
7.82461e-06
7.85832e-06
7.85486e-06
7.87278e-06
7.9098e-06
7.91537e-06
7.83213e-06
7.9261e-06
7.96231e-06
7.89393e-06
7.83162e-06
7.80935e-06
7.8219e-06
7.85289e-06
7.85229e-06
7.87303e-06
7.91512e-06
7.92645e-06
7.83014e-06
7.92573e-06
7.96481e-06
7.90214e-06
7.84498e-06
7.81889e-06
7.82427e-06
7.85193e-06
7.85329e-06
7.87633e-06
7.92321e-06
7.93998e-06
2.89465e-07
2.95331e-07
2.89665e-07
2.8558e-07
2.78279e-07
2.70822e-07
2.71408e-07
2.7821e-07
2.8979e-07
2.98629e-07
2.97614e-07
2.94244e-07
5.37518e-08
5.50472e-08
5.39291e-08
5.28677e-08
5.18425e-08
5.10365e-08
5.15403e-08
5.2756e-08
5.43255e-08
5.56068e-08
5.53406e-08
5.47377e-08
7.52649e-08
7.8206e-08
7.63418e-08
7.32063e-08
7.35325e-08
7.55184e-08
7.83592e-08
7.98231e-08
7.89027e-08
7.87505e-08
7.79125e-08
7.71809e-08
2.21397e-07
2.30894e-07
2.25367e-07
2.1492e-07
2.17044e-07
2.25096e-07
2.35031e-07
2.39218e-07
2.34246e-07
2.32351e-07
2.29472e-07
2.2738e-07
5.4252e-07
5.66189e-07
5.5313e-07
5.26977e-07
5.32291e-07
5.52769e-07
5.77867e-07
5.88214e-07
5.75023e-07
5.6965e-07
5.62287e-07
5.5714e-07
1.10614e-06
1.15474e-06
1.12946e-06
1.07564e-06
1.08589e-06
1.12802e-06
1.18004e-06
1.20138e-06
1.17329e-06
1.16137e-06
1.14599e-06
1.13544e-06
1.97507e-06
2.06219e-06
2.01993e-06
1.92318e-06
1.94014e-06
2.01583e-06
2.11016e-06
2.14857e-06
2.09591e-06
2.07265e-06
2.0448e-06
2.02599e-06
3.19308e-06
3.33398e-06
3.27103e-06
3.11391e-06
3.13896e-06
3.26228e-06
3.41726e-06
3.47943e-06
3.38907e-06
3.34751e-06
3.3024e-06
3.27232e-06
4.77127e-06
4.98107e-06
4.89604e-06
4.66084e-06
4.69455e-06
4.88055e-06
5.11599e-06
5.20822e-06
5.06357e-06
4.9944e-06
4.92786e-06
4.88391e-06
6.67944e-06
6.97075e-06
6.86569e-06
6.53701e-06
6.57851e-06
6.84135e-06
7.17638e-06
7.30357e-06
7.08551e-06
6.97743e-06
6.88697e-06
6.8276e-06
8.84606e-06
9.22683e-06
9.10798e-06
8.67538e-06
8.72154e-06
9.07204e-06
9.52273e-06
9.68772e-06
9.37666e-06
9.21735e-06
9.10289e-06
9.0281e-06
1.11673e-05
1.16393e-05
1.15173e-05
1.09774e-05
1.1022e-05
1.1465e-05
1.20422e-05
1.22458e-05
1.18245e-05
1.1602e-05
1.1466e-05
1.13776e-05
1.35214e-05
1.40797e-05
1.39691e-05
1.33268e-05
1.33598e-05
1.38922e-05
1.46e-05
1.48412e-05
1.42978e-05
1.4002e-05
1.38493e-05
1.37508e-05
1.58137e-05
1.64546e-05
1.63725e-05
1.56337e-05
1.56392e-05
1.62499e-05
1.70888e-05
1.737e-05
1.67e-05
1.63254e-05
1.61591e-05
1.6053e-05
1.79951e-05
1.87125e-05
1.8678e-05
1.78521e-05
1.78116e-05
1.84836e-05
1.94504e-05
1.97742e-05
1.89778e-05
1.85209e-05
1.83444e-05
1.82336e-05
2.00256e-05
2.08118e-05
2.08446e-05
1.99445e-05
1.98375e-05
2.05486e-05
2.16358e-05
2.20056e-05
2.1088e-05
2.05475e-05
2.03638e-05
2.02521e-05
2.18758e-05
2.27219e-05
2.28419e-05
2.18829e-05
2.16881e-05
2.2412e-05
2.36077e-05
2.40272e-05
2.29981e-05
2.23752e-05
2.2187e-05
2.20788e-05
2.3526e-05
2.44224e-05
2.46482e-05
2.36475e-05
2.33449e-05
2.40518e-05
2.534e-05
2.58129e-05
2.46862e-05
2.39844e-05
2.37938e-05
2.36944e-05
2.49648e-05
2.59013e-05
2.62498e-05
2.52264e-05
2.47975e-05
2.54564e-05
2.68172e-05
2.73461e-05
2.61391e-05
2.5364e-05
2.51731e-05
2.50884e-05
2.61875e-05
2.7154e-05
2.76396e-05
2.66132e-05
2.60434e-05
2.66226e-05
2.80332e-05
2.86193e-05
2.73513e-05
2.65104e-05
2.63211e-05
2.62577e-05
2.71951e-05
2.81809e-05
2.88152e-05
2.78065e-05
2.70852e-05
2.75545e-05
2.89894e-05
2.96317e-05
2.83236e-05
2.74258e-05
2.72401e-05
2.72055e-05
2.79919e-05
2.89858e-05
2.97773e-05
2.88078e-05
2.79297e-05
2.82614e-05
2.96933e-05
3.03886e-05
2.90612e-05
2.81165e-05
2.79366e-05
2.79388e-05
2.85848e-05
2.95742e-05
3.05275e-05
2.96196e-05
2.85855e-05
2.87551e-05
3.01557e-05
3.0898e-05
2.95721e-05
2.85911e-05
2.84197e-05
2.8467e-05
2.89802e-05
2.99511e-05
3.1066e-05
3.02434e-05
2.90606e-05
2.90483e-05
3.03887e-05
3.11693e-05
2.98647e-05
2.88582e-05
2.86984e-05
2.87995e-05
2.91829e-05
3.0119e-05
3.13888e-05
3.06765e-05
2.93599e-05
2.91514e-05
3.04025e-05
3.12101e-05
2.9946e-05
2.8925e-05
2.87803e-05
2.89436e-05
2.91941e-05
3.0077e-05
3.1488e-05
3.09111e-05
2.94838e-05
2.90718e-05
3.02052e-05
3.10252e-05
2.98198e-05
2.87957e-05
2.86697e-05
2.89028e-05
2.9011e-05
2.98205e-05
3.13511e-05
3.09331e-05
2.94268e-05
2.88125e-05
2.98015e-05
3.06165e-05
2.94867e-05
2.84716e-05
2.83678e-05
2.86766e-05
2.86263e-05
2.934e-05
3.09563e-05
3.07165e-05
2.91758e-05
2.83716e-05
2.91925e-05
2.99815e-05
2.89439e-05
2.7951e-05
2.78726e-05
2.82597e-05
2.80228e-05
2.86139e-05
3.02609e-05
3.02091e-05
2.86978e-05
2.77365e-05
2.83689e-05
2.91049e-05
2.81789e-05
2.72259e-05
2.71749e-05
2.76356e-05
2.71755e-05
2.76175e-05
2.92277e-05
2.93598e-05
2.79493e-05
2.68837e-05
2.73147e-05
2.79689e-05
2.71735e-05
2.62825e-05
2.62596e-05
2.67794e-05
2.60804e-05
2.63575e-05
2.78711e-05
2.817e-05
2.69193e-05
2.58075e-05
2.60376e-05
2.65871e-05
2.59329e-05
2.51233e-05
2.51269e-05
2.56859e-05
2.47771e-05
2.48837e-05
2.62611e-05
2.67079e-05
2.56559e-05
2.45454e-05
2.45828e-05
2.50134e-05
2.45002e-05
2.37821e-05
2.38105e-05
2.4393e-05
2.32756e-05
2.32202e-05
2.44317e-05
2.49956e-05
2.41601e-05
2.30985e-05
2.29675e-05
2.32745e-05
2.2894e-05
2.22728e-05
2.23219e-05
2.29082e-05
2.16201e-05
2.14202e-05
2.24476e-05
2.30913e-05
2.24773e-05
2.15045e-05
2.12363e-05
2.14232e-05
2.11614e-05
2.06377e-05
2.07027e-05
2.12731e-05
1.98676e-05
1.95474e-05
2.03844e-05
2.10693e-05
2.06675e-05
1.98141e-05
1.94435e-05
1.95203e-05
1.93595e-05
1.89302e-05
1.90055e-05
1.95425e-05
1.80778e-05
1.76664e-05
1.83187e-05
1.90079e-05
1.87966e-05
1.80817e-05
1.76441e-05
1.76262e-05
1.75467e-05
1.72047e-05
1.72854e-05
1.77747e-05
1.63074e-05
1.58364e-05
1.63198e-05
1.69818e-05
1.69299e-05
1.636e-05
1.58888e-05
1.57953e-05
1.5777e-05
1.55126e-05
1.5594e-05
1.60264e-05
1.46066e-05
1.41075e-05
1.44454e-05
1.50563e-05
1.5127e-05
1.46971e-05
1.42213e-05
1.40727e-05
1.40967e-05
1.38984e-05
1.3977e-05
1.4348e-05
1.30158e-05
1.2518e-05
1.27389e-05
1.32835e-05
1.34385e-05
1.31332e-05
1.26756e-05
1.24929e-05
1.25423e-05
1.23978e-05
1.24712e-05
1.27818e-05
1.15655e-05
1.10945e-05
1.12289e-05
1.17005e-05
1.19033e-05
1.16999e-05
1.12766e-05
1.1079e-05
1.11401e-05
1.10374e-05
1.11045e-05
1.13595e-05
1.02757e-05
9.85268e-06
9.93051e-06
1.03297e-05
1.05482e-05
1.04197e-05
1.00399e-05
9.84445e-06
9.90638e-06
9.83459e-06
9.89544e-06
1.01031e-05
9.15786e-06
8.79893e-06
8.84855e-06
9.1816e-06
9.38924e-06
9.30643e-06
8.97371e-06
8.79423e-06
8.84942e-06
8.7989e-06
8.85455e-06
9.02528e-06
8.21614e-06
7.93332e-06
7.98039e-06
8.25725e-06
8.43315e-06
8.36728e-06
8.08012e-06
7.92756e-06
7.97102e-06
7.93399e-06
7.98626e-06
8.13135e-06
7.44999e-06
7.25199e-06
7.31936e-06
7.55224e-06
7.68072e-06
7.60424e-06
7.35756e-06
7.24014e-06
7.26897e-06
7.23942e-06
7.29073e-06
7.42166e-06
6.85623e-06
6.74956e-06
6.85764e-06
7.05991e-06
7.12966e-06
7.01637e-06
6.80258e-06
6.72634e-06
6.73921e-06
6.71279e-06
6.76598e-06
6.89386e-06
6.43111e-06
6.42096e-06
6.5881e-06
6.77374e-06
6.77753e-06
6.60168e-06
6.4116e-06
6.38103e-06
6.37772e-06
6.35151e-06
6.40974e-06
6.54519e-06
6.17176e-06
6.26101e-06
6.50096e-06
6.68502e-06
6.62207e-06
6.35829e-06
6.18176e-06
6.19996e-06
6.1815e-06
6.15372e-06
6.22034e-06
6.37345e-06
6.07303e-06
6.2273e-06
6.52431e-06
6.71766e-06
6.60775e-06
6.27784e-06
6.10368e-06
6.15775e-06
6.13403e-06
6.10438e-06
6.17885e-06
6.34881e-06
6.06688e-06
6.29405e-06
6.64314e-06
6.84822e-06
6.7077e-06
6.29388e-06
6.11566e-06
6.21091e-06
6.18256e-06
6.1515e-06
6.23611e-06
6.42812e-06
6.15846e-06
6.44667e-06
6.80777e-06
7.01432e-06
6.88886e-06
6.40985e-06
6.22215e-06
6.35149e-06
6.31951e-06
6.29025e-06
6.38437e-06
6.58979e-06
6.33115e-06
6.63485e-06
6.95764e-06
7.15629e-06
7.07729e-06
6.60462e-06
6.40579e-06
6.54227e-06
6.509e-06
6.48578e-06
6.58321e-06
6.77532e-06
6.53491e-06
6.80603e-06
7.08702e-06
7.27581e-06
7.233e-06
6.81783e-06
6.61411e-06
6.7242e-06
6.69075e-06
6.67641e-06
6.77025e-06
6.93266e-06
6.7195e-06
6.9566e-06
7.2047e-06
7.38232e-06
7.36513e-06
7.00258e-06
6.79832e-06
6.87793e-06
6.84437e-06
6.84011e-06
6.92949e-06
7.06383e-06
6.88371e-06
7.09408e-06
7.31548e-06
7.48082e-06
7.48152e-06
7.16263e-06
6.95772e-06
7.01181e-06
6.97852e-06
6.98503e-06
7.06973e-06
7.17786e-06
7.03419e-06
7.22253e-06
7.42124e-06
7.57313e-06
7.58604e-06
7.30453e-06
7.09922e-06
7.13183e-06
7.09929e-06
7.11669e-06
7.19632e-06
7.27984e-06
7.17429e-06
7.34358e-06
7.52208e-06
7.65927e-06
7.67999e-06
7.43146e-06
7.22663e-06
7.24125e-06
7.2099e-06
7.23772e-06
7.31183e-06
7.3722e-06
7.30506e-06
7.45735e-06
7.61718e-06
7.73837e-06
7.76323e-06
7.54442e-06
7.34165e-06
7.34157e-06
7.31177e-06
7.34907e-06
7.41716e-06
7.45585e-06
7.42632e-06
7.56319e-06
7.70541e-06
7.80938e-06
7.83513e-06
7.64337e-06
7.44483e-06
7.43332e-06
7.40533e-06
7.45081e-06
7.51245e-06
7.53102e-06
7.53735e-06
7.66026e-06
7.78575e-06
7.87135e-06
7.89503e-06
7.72791e-06
7.5362e-06
7.51658e-06
7.49065e-06
7.54279e-06
7.59761e-06
7.59777e-06
7.63735e-06
7.74777e-06
7.85736e-06
7.92366e-06
7.94259e-06
7.7978e-06
7.61572e-06
7.59132e-06
7.56765e-06
7.62487e-06
7.67266e-06
7.65619e-06
7.72571e-06
7.82512e-06
7.9197e-06
7.96596e-06
7.97777e-06
7.85314e-06
7.68346e-06
7.65754e-06
7.63636e-06
7.6971e-06
7.7378e-06
7.70654e-06
7.80212e-06
7.89198e-06
7.97246e-06
7.99821e-06
8.00092e-06
7.89437e-06
7.73969e-06
7.71534e-06
7.69688e-06
7.75972e-06
7.79339e-06
7.74919e-06
7.86652e-06
7.94824e-06
8.01556e-06
8.02063e-06
8.01269e-06
7.9223e-06
7.78491e-06
7.76489e-06
7.74943e-06
7.81308e-06
7.83995e-06
7.78464e-06
7.9191e-06
7.994e-06
8.04915e-06
8.03367e-06
8.01402e-06
7.93805e-06
7.81974e-06
7.80646e-06
7.79427e-06
7.85766e-06
7.87811e-06
7.81349e-06
7.96024e-06
8.0295e-06
8.07352e-06
8.03799e-06
8.00607e-06
7.94292e-06
7.84495e-06
7.84039e-06
7.83174e-06
7.894e-06
7.90852e-06
7.83636e-06
7.9905e-06
8.05518e-06
8.08916e-06
8.03444e-06
7.99023e-06
7.93844e-06
7.86144e-06
7.86706e-06
7.86218e-06
7.92265e-06
7.93191e-06
7.85395e-06
8.01059e-06
8.0716e-06
8.09669e-06
8.02406e-06
7.96803e-06
7.92621e-06
7.87014e-06
7.88686e-06
7.88597e-06
7.94418e-06
7.94896e-06
7.86694e-06
8.02134e-06
8.07948e-06
8.09692e-06
8.00804e-06
7.94115e-06
7.90797e-06
7.87205e-06
7.90024e-06
7.90349e-06
7.95918e-06
7.9604e-06
7.87606e-06
8.02374e-06
8.07969e-06
8.09079e-06
7.98768e-06
7.91129e-06
7.88545e-06
7.86823e-06
7.9077e-06
7.91514e-06
7.96823e-06
7.96695e-06
7.88203e-06
8.01891e-06
8.07324e-06
8.0794e-06
7.96438e-06
7.88022e-06
7.86037e-06
7.85976e-06
7.90976e-06
7.92136e-06
7.97195e-06
7.96931e-06
7.88556e-06
8.0081e-06
8.0613e-06
8.06394e-06
7.93961e-06
7.84962e-06
7.8344e-06
7.84771e-06
7.90703e-06
7.92265e-06
7.97099e-06
7.96821e-06
7.88735e-06
7.99268e-06
8.04513e-06
8.04569e-06
7.9148e-06
7.82107e-06
7.80909e-06
7.8332e-06
7.90017e-06
7.91958e-06
7.96602e-06
7.96435e-06
7.88806e-06
7.97414e-06
8.02612e-06
8.02599e-06
7.89137e-06
7.79599e-06
7.78583e-06
7.81732e-06
7.88994e-06
7.91281e-06
7.95779e-06
7.95846e-06
7.88833e-06
7.95401e-06
8.00572e-06
8.00617e-06
7.8706e-06
7.77557e-06
7.76586e-06
7.80115e-06
7.87721e-06
7.9031e-06
7.94709e-06
7.95124e-06
7.88872e-06
7.93388e-06
7.98542e-06
7.98753e-06
7.85365e-06
7.76078e-06
7.75016e-06
7.78578e-06
7.86296e-06
7.89133e-06
7.93477e-06
7.9434e-06
7.88977e-06
7.91535e-06
7.9667e-06
7.97133e-06
7.84151e-06
7.75231e-06
7.73954e-06
7.77224e-06
7.84828e-06
7.87853e-06
7.92176e-06
7.93563e-06
7.8919e-06
7.89992e-06
7.95098e-06
7.95868e-06
7.83495e-06
7.7506e-06
7.73459e-06
7.76158e-06
7.83438e-06
7.86583e-06
7.90904e-06
7.92861e-06
7.89551e-06
7.88906e-06
7.93961e-06
7.95061e-06
7.83454e-06
7.75586e-06
7.73571e-06
7.75479e-06
7.82259e-06
7.85448e-06
7.89761e-06
7.92299e-06
7.90087e-06
7.88404e-06
7.93382e-06
7.94798e-06
7.84063e-06
7.76806e-06
7.74316e-06
7.75285e-06
7.81428e-06
7.84582e-06
7.88851e-06
7.91937e-06
7.90821e-06
2.92118e-07
2.98484e-07
2.93377e-07
2.88896e-07
2.80953e-07
2.73554e-07
2.74866e-07
2.8197e-07
2.93003e-07
3.01554e-07
3.00352e-07
2.96688e-07
5.4445e-08
5.5893e-08
5.49724e-08
5.38205e-08
5.25303e-08
5.15794e-08
5.21353e-08
5.34401e-08
5.50027e-08
5.63019e-08
5.60094e-08
5.53449e-08
7.73025e-08
8.07803e-08
7.96966e-08
7.63467e-08
7.55183e-08
7.64549e-08
7.89181e-08
8.0685e-08
8.02653e-08
8.05228e-08
7.96937e-08
7.88425e-08
2.28143e-07
2.39442e-07
2.36561e-07
2.25442e-07
2.23633e-07
2.27968e-07
2.36432e-07
2.41632e-07
2.38517e-07
2.3811e-07
2.35297e-07
2.32849e-07
5.59305e-07
5.87438e-07
5.80947e-07
5.53204e-07
5.48782e-07
5.59848e-07
5.8108e-07
5.93936e-07
5.85497e-07
5.83903e-07
5.76734e-07
5.70779e-07
1.14046e-06
1.19811e-06
1.18616e-06
1.12931e-06
1.1199e-06
1.1425e-06
1.18619e-06
1.21261e-06
1.19448e-06
1.1904e-06
1.17547e-06
1.16347e-06
2.0364e-06
2.13946e-06
2.12073e-06
2.01912e-06
2.00154e-06
2.04183e-06
2.12037e-06
2.16772e-06
2.13335e-06
2.12432e-06
2.09741e-06
2.07642e-06
3.29218e-06
3.45838e-06
3.43287e-06
3.26895e-06
3.23947e-06
3.30468e-06
3.43242e-06
3.50871e-06
3.44887e-06
3.43072e-06
3.38734e-06
3.35456e-06
4.91925e-06
5.16585e-06
5.13555e-06
4.89216e-06
4.84689e-06
4.94476e-06
5.13659e-06
5.24929e-06
5.15185e-06
5.11829e-06
5.05467e-06
5.00815e-06
6.88645e-06
7.22754e-06
7.19693e-06
6.86006e-06
6.79526e-06
6.93311e-06
7.20257e-06
7.35722e-06
7.20781e-06
7.15047e-06
7.06454e-06
7.00392e-06
9.12021e-06
9.56414e-06
9.54033e-06
9.10182e-06
9.01397e-06
9.19726e-06
9.55467e-06
9.75394e-06
9.53743e-06
9.44659e-06
9.33866e-06
9.26568e-06
1.15138e-05
1.20615e-05
1.20539e-05
1.15136e-05
1.1399e-05
1.16298e-05
1.20807e-05
1.2324e-05
1.20269e-05
1.18926e-05
1.17654e-05
1.1684e-05
1.39422e-05
1.45864e-05
1.46064e-05
1.39728e-05
1.38272e-05
1.41031e-05
1.46473e-05
1.49311e-05
1.45438e-05
1.43571e-05
1.42155e-05
1.41315e-05
1.63077e-05
1.70422e-05
1.7103e-05
1.6386e-05
1.6201e-05
1.65126e-05
1.71472e-05
1.74707e-05
1.69899e-05
1.67454e-05
1.65927e-05
1.65114e-05
1.85593e-05
1.93752e-05
1.94908e-05
1.87042e-05
1.84704e-05
1.88047e-05
1.9524e-05
1.98858e-05
1.93116e-05
1.90055e-05
1.88451e-05
1.87725e-05
2.06551e-05
2.15414e-05
2.17259e-05
2.08869e-05
2.05943e-05
2.09356e-05
2.17307e-05
2.21292e-05
2.14652e-05
2.10954e-05
2.09304e-05
2.08729e-05
2.25641e-05
2.35084e-05
2.37752e-05
2.29031e-05
2.25425e-05
2.28726e-05
2.37321e-05
2.41654e-05
2.34183e-05
2.29846e-05
2.28178e-05
2.27819e-05
2.42649e-05
2.52539e-05
2.56152e-05
2.4731e-05
2.42946e-05
2.45943e-05
2.55042e-05
2.59697e-05
2.51485e-05
2.46526e-05
2.44863e-05
2.44788e-05
2.57446e-05
2.67649e-05
2.72305e-05
2.63565e-05
2.58385e-05
2.60884e-05
2.7033e-05
2.75274e-05
2.6643e-05
2.6088e-05
2.59242e-05
2.59517e-05
2.69976e-05
2.80357e-05
2.86129e-05
2.77716e-05
2.71695e-05
2.73513e-05
2.83132e-05
2.88321e-05
2.78962e-05
2.72863e-05
2.7127e-05
2.71961e-05
2.80238e-05
2.90664e-05
2.97596e-05
2.89736e-05
2.82884e-05
2.83853e-05
2.93464e-05
2.98841e-05
2.89089e-05
2.8249e-05
2.80962e-05
2.82136e-05
2.88276e-05
2.98608e-05
3.06718e-05
2.99632e-05
2.91999e-05
2.91976e-05
3.01394e-05
3.06889e-05
2.9686e-05
2.89816e-05
2.88374e-05
2.90096e-05
2.94156e-05
3.04252e-05
3.13526e-05
3.07425e-05
2.99101e-05
2.97976e-05
3.07012e-05
3.12543e-05
3.02351e-05
2.94918e-05
2.93588e-05
2.95917e-05
2.97947e-05
3.07655e-05
3.18044e-05
3.13124e-05
3.04248e-05
3.01948e-05
3.10417e-05
3.15885e-05
3.05638e-05
2.97877e-05
2.96684e-05
2.99676e-05
2.99701e-05
3.08856e-05
3.20264e-05
3.1671e-05
3.07464e-05
3.03964e-05
3.11687e-05
3.16976e-05
3.0678e-05
2.98757e-05
2.97729e-05
3.01424e-05
2.99442e-05
3.07862e-05
3.20144e-05
3.18117e-05
3.08729e-05
3.04058e-05
3.10867e-05
3.15847e-05
3.05805e-05
2.97596e-05
2.9676e-05
3.01179e-05
2.9716e-05
3.04651e-05
3.17603e-05
3.17229e-05
3.07969e-05
3.02222e-05
3.07963e-05
3.12495e-05
3.02711e-05
2.94401e-05
2.93782e-05
2.98915e-05
2.92811e-05
2.99168e-05
3.12493e-05
3.13829e-05
3.05033e-05
2.98393e-05
3.02938e-05
3.0687e-05
2.97457e-05
2.89151e-05
2.88767e-05
2.94559e-05
2.86277e-05
2.91273e-05
3.04508e-05
3.07471e-05
2.99582e-05
2.92397e-05
2.95649e-05
2.98807e-05
2.89913e-05
2.81761e-05
2.81619e-05
2.87928e-05
2.77363e-05
2.80785e-05
2.93374e-05
2.97735e-05
2.91196e-05
2.83958e-05
2.8588e-05
2.8809e-05
2.79882e-05
2.72081e-05
2.72174e-05
2.78756e-05
2.66035e-05
2.67776e-05
2.7925e-05
2.84704e-05
2.79811e-05
2.72989e-05
2.73625e-05
2.74787e-05
2.67392e-05
2.60123e-05
2.60426e-05
2.67013e-05
2.5265e-05
2.52689e-05
2.62768e-05
2.69063e-05
2.65953e-05
2.5986e-05
2.59286e-05
2.5938e-05
2.52855e-05
2.46224e-05
2.46712e-05
2.5311e-05
2.37324e-05
2.35784e-05
2.44291e-05
2.51114e-05
2.49757e-05
2.44625e-05
2.43027e-05
2.42114e-05
2.36469e-05
2.30548e-05
2.31181e-05
2.372e-05
2.205e-05
2.17588e-05
2.24455e-05
2.31477e-05
2.31733e-05
2.27723e-05
2.25317e-05
2.23515e-05
2.18719e-05
2.13545e-05
2.14277e-05
2.19759e-05
2.02738e-05
1.98722e-05
2.03983e-05
2.10901e-05
2.12538e-05
2.09719e-05
2.06734e-05
2.042e-05
2.00196e-05
1.9577e-05
1.96558e-05
2.01387e-05
1.8462e-05
1.79805e-05
1.83587e-05
1.90149e-05
1.92868e-05
1.91213e-05
1.87875e-05
1.84794e-05
1.81502e-05
1.77797e-05
1.78599e-05
1.82714e-05
1.66697e-05
1.61402e-05
1.63905e-05
1.69926e-05
1.73394e-05
1.72788e-05
1.693e-05
1.6587e-05
1.632e-05
1.60162e-05
1.60948e-05
1.64341e-05
1.49454e-05
1.43988e-05
1.4546e-05
1.50832e-05
1.54712e-05
1.54964e-05
1.51497e-05
1.47916e-05
1.45776e-05
1.43333e-05
1.44083e-05
1.46796e-05
1.33288e-05
1.27931e-05
1.28642e-05
1.33328e-05
1.37309e-05
1.38179e-05
1.34864e-05
1.31317e-05
1.29617e-05
1.27688e-05
1.28391e-05
1.30511e-05
1.18499e-05
1.13489e-05
1.13709e-05
1.17733e-05
1.21549e-05
1.2277e-05
1.19696e-05
1.16346e-05
1.15006e-05
1.13506e-05
1.14165e-05
1.15804e-05
1.05295e-05
1.00819e-05
1.00801e-05
1.0423e-05
1.07668e-05
1.08975e-05
1.0619e-05
1.03174e-05
1.02123e-05
1.00973e-05
1.01599e-05
1.02885e-05
9.3798e-06
8.99915e-06
8.99658e-06
9.28947e-06
9.57965e-06
9.69378e-06
9.44575e-06
9.18808e-06
9.10655e-06
9.01918e-06
9.08041e-06
9.18688e-06
8.40609e-06
8.10151e-06
8.11831e-06
8.37208e-06
8.5972e-06
8.67251e-06
8.45386e-06
8.24818e-06
8.18585e-06
8.11998e-06
8.18226e-06
8.27916e-06
7.60891e-06
7.38569e-06
7.43937e-06
7.66503e-06
7.81718e-06
7.83472e-06
7.64247e-06
7.49438e-06
7.44823e-06
7.39893e-06
7.46499e-06
7.56386e-06
6.98582e-06
6.84633e-06
6.95208e-06
7.15982e-06
7.23342e-06
7.17783e-06
7.00786e-06
6.92083e-06
6.88893e-06
6.85255e-06
6.92527e-06
7.03623e-06
6.53315e-06
6.47778e-06
6.64847e-06
6.84696e-06
6.83804e-06
6.69764e-06
6.54528e-06
6.52072e-06
6.50203e-06
6.47614e-06
6.55838e-06
6.68984e-06
6.24709e-06
6.27489e-06