/*--------------------------------*- C++ -*----------------------------------*\
| =========                 |                                                 |
| \\      /  F ield         | OpenFOAM: The Open Source CFD Toolbox           |
|  \\    /   O peration     | Version:  v1912                                 |
|   \\  /    A nd           | Website:  www.openfoam.com                      |
|    \\/     M anipulation  |                                                 |
\*---------------------------------------------------------------------------*/
FoamFile
{
    version     2.0;
    format      ascii;
    class       surfaceScalarField;
    location    "9.2";
    object      phi;
}
// * * * * * * * * * * * * * * * * * * * * * * * * * * * * * * * * * * * * * //

dimensions      [1 0 -1 0 0 0 0];
oriented        oriented;


internalField   nonuniform List<scalar> 
97428
(
3.92673e-11
3.35774e-09
-1.59753e-07
1.12634e-10
2.90591e-09
-1.61315e-07
2.92988e-10
2.5964e-09
-1.59919e-07
3.19528e-10
2.598e-09
-1.58901e-07
2.50965e-10
2.85445e-09
-1.56672e-07
-4.5628e-11
3.32993e-09
-1.54316e-07
-2.48537e-10
3.4228e-09
-1.54339e-07
-2.07132e-10
3.22889e-09
-1.56266e-07
-1.76213e-10
3.21785e-09
-1.59568e-07
-1.02932e-10
3.16879e-09
-1.62041e-07
-1.22187e-10
3.13489e-09
-1.61897e-07
3.08737e-09
-1.61027e-07
2.00589e-10
1.29534e-08
-5.05866e-07
4.77232e-10
1.1264e-08
-5.10636e-07
9.44829e-10
1.01907e-08
-5.06469e-07
8.48172e-10
1.0307e-08
-5.03354e-07
5.12995e-10
1.12719e-08
-4.96604e-07
-2.90458e-10
1.29212e-08
-4.89474e-07
-7.80909e-10
1.32385e-08
-4.89536e-07
-6.42517e-10
1.25569e-08
-4.95386e-07
-5.38681e-10
1.24894e-08
-5.05429e-07
-2.87392e-10
1.22592e-08
-5.12921e-07
-3.12894e-10
1.21125e-08
-5.12377e-07
1.19711e-08
-5.09706e-07
4.46722e-10
2.86355e-08
-8.84248e-07
9.6489e-10
2.49951e-08
-8.92402e-07
1.66241e-09
2.28235e-08
-8.85446e-07
1.29648e-09
2.32428e-08
-8.80089e-07
5.82156e-10
2.53253e-08
-8.68693e-07
-6.9095e-10
2.86971e-08
-8.56698e-07
-1.37615e-09
2.93289e-08
-8.56842e-07
-1.09922e-09
2.79191e-08
-8.66775e-07
-9.03345e-10
2.7738e-08
-8.83797e-07
-4.43896e-10
2.71692e-08
-8.96456e-07
-4.49831e-10
2.68253e-08
-8.9535e-07
2.65751e-08
-8.90776e-07
7.79362e-10
5.03197e-08
-1.29443e-06
1.56012e-09
4.40686e-08
-1.30618e-06
2.44149e-09
4.0561e-08
-1.29644e-06
1.68424e-09
4.15244e-08
-1.28865e-06
4.88466e-10
4.50984e-08
-1.27251e-06
-1.24009e-09
5.06372e-08
-1.25562e-06
-2.03806e-09
5.16381e-08
-1.25593e-06
-1.56343e-09
4.92889e-08
-1.27012e-06
-1.25292e-09
4.89253e-08
-1.29432e-06
-5.6109e-10
4.78396e-08
-1.31227e-06
-5.26946e-10
4.72116e-08
-1.3104e-06
4.68594e-08
-1.3038e-06
1.20289e-09
7.79163e-08
-1.73562e-06
2.25302e-09
6.84419e-08
-1.75122e-06
3.28454e-09
6.34394e-08
-1.73872e-06
2.03286e-09
6.52251e-08
-1.72826e-06
2.52698e-10
7.06403e-08
-1.70731e-06
-1.92499e-09
7.86988e-08
-1.68555e-06
-2.75702e-09
8.00936e-08
-1.68617e-06
-2.01699e-09
7.66112e-08
-1.70477e-06
-1.56855e-09
7.59756e-08
-1.73631e-06
-6.28216e-10
7.41754e-08
-1.75964e-06
-5.38818e-10
7.31745e-08
-1.75675e-06
7.27424e-08
-1.74801e-06
1.71799e-09
1.1133e-07
-2.20672e-06
3.03286e-09
9.80615e-08
-2.22643e-06
4.19581e-09
9.14652e-08
-2.21123e-06
2.36721e-09
9.43744e-08
-2.19784e-06
-8.47816e-11
1.01953e-07
-2.17204e-06
-2.72774e-09
1.12834e-07
-2.14551e-06
-3.51876e-09
1.14607e-07
-2.14661e-06
-2.43886e-09
1.09804e-07
-2.1698e-06
-1.83083e-09
1.08778e-07
-2.20873e-06
-6.36241e-10
1.0605e-07
-2.23747e-06
-4.84043e-10
1.04588e-07
-2.23328e-06
1.04109e-07
-2.22227e-06
2.32026e-09
1.50468e-07
-2.70627e-06
3.88711e-09
1.32867e-07
-2.73039e-06
5.18063e-09
1.24619e-07
-2.71259e-06
2.71548e-09
1.28963e-07
-2.69594e-06
-4.99107e-10
1.39018e-07
-2.66531e-06
-3.62632e-09
1.52977e-07
-2.63419e-06
-4.3062e-09
1.55078e-07
-2.63598e-06
-2.80729e-09
1.48762e-07
-2.6639e-06
-2.02164e-09
1.47196e-07
-2.71019e-06
-5.79083e-10
1.43314e-07
-2.74429e-06
-3.65867e-10
1.41309e-07
-2.73852e-06
1.40823e-07
-2.72511e-06
2.99918e-09
1.95239e-07
-3.23254e-06
4.80064e-09
1.728e-07
-3.26138e-06
6.24472e-09
1.62862e-07
-3.24108e-06
3.10877e-09
1.68951e-07
-3.22083e-06
-9.55841e-10
1.81803e-07
-3.18544e-06
-4.59523e-09
1.9906e-07
-3.14999e-06
-5.10099e-09
2.01407e-07
-3.15272e-06
-3.10172e-09
1.93369e-07
-3.18547e-06
-2.12565e-09
1.91074e-07
-3.23893e-06
-4.54517e-10
1.85808e-07
-3.2783e-06
-1.92481e-10
1.8319e-07
-3.27067e-06
1.82742e-07
-3.25474e-06
3.73741e-09
2.45569e-07
-3.78356e-06
5.75513e-09
2.17803e-07
-3.81743e-06
7.39345e-09
2.06141e-07
-3.79476e-06
3.5806e-09
2.14278e-07
-3.77053e-06
-1.41252e-09
2.30266e-07
-3.73051e-06
-5.60603e-09
2.51026e-07
-3.69107e-06
-5.88455e-09
2.53498e-07
-3.69502e-06
-3.30424e-09
2.43502e-07
-3.73266e-06
-2.13134e-09
2.40257e-07
-3.79296e-06
-2.64707e-10
2.33377e-07
-3.83742e-06
2.2964e-11
2.30094e-07
-3.82771e-06
2.29732e-07
-3.80914e-06
4.51055e-09
3.01391e-07
-4.35734e-06
6.72873e-09
2.67824e-07
-4.39656e-06
8.63121e-09
2.54394e-07
-4.37164e-06
4.16621e-09
2.64872e-07
-4.34301e-06
-1.82479e-09
2.84363e-07
-4.29853e-06
-6.62771e-09
3.0883e-07
-4.25555e-06
-6.63889e-09
3.11269e-07
-4.26102e-06
-3.40045e-09
2.99044e-07
-4.30356e-06
-2.03165e-09
2.9459e-07
-4.37023e-06
-1.63378e-11
2.85873e-07
-4.41954e-06
2.60478e-10
2.819e-07
-4.40755e-06
2.81672e-07
-4.38625e-06
5.28734e-09
3.62646e-07
-4.95199e-06
7.69607e-09
3.22809e-07
-4.99689e-06
9.96095e-09
3.07546e-07
-4.96984e-06
4.902e-09
3.20648e-07
-4.93635e-06
-2.14533e-09
3.4405e-07
-4.88764e-06
-7.62685e-09
3.72439e-07
-4.84166e-06
-7.34684e-09
3.74643e-07
-4.84898e-06
-3.37977e-09
3.5988e-07
-4.89636e-06
-1.82392e-09
3.5393e-07
-4.96879e-06
2.79843e-10
3.43163e-07
-5.02266e-06
4.99509e-10
3.38501e-07
-5.00829e-06
3.38457e-07
-4.98417e-06
6.03015e-09
4.29273e-07
-5.5659e-06
8.62835e-09
3.82691e-07
-5.61683e-06
1.13838e-08
3.65506e-07
-5.58776e-06
5.82497e-09
3.81512e-07
-5.54893e-06
-2.32386e-09
4.09276e-07
-5.49623e-06
-8.56754e-09
4.41816e-07
-5.44785e-06
-7.99184e-09
4.43543e-07
-5.45739e-06
-3.23506e-09
4.25891e-07
-5.50952e-06
-1.50947e-09
4.18136e-07
-5.58697e-06
6.09154e-10
4.05117e-07
-5.64507e-06
7.13101e-10
3.99797e-07
-5.62829e-06
3.99988e-07
-5.60126e-06
6.69581e-09
5.01203e-07
-6.19794e-06
9.49376e-09
4.47381e-07
-6.25529e-06
1.28993e-08
4.28163e-07
-6.22432e-06
6.97252e-09
4.47357e-07
-6.17961e-06
-2.30713e-09
4.79976e-07
-6.12316e-06
-9.41107e-09
5.16915e-07
-6.07303e-06
-8.55739e-09
5.17892e-07
-6.08521e-06
-2.96183e-09
4.96959e-07
-6.14199e-06
-1.09266e-09
4.87071e-07
-6.22364e-06
9.54076e-10
4.71606e-07
-6.28562e-06
8.7165e-10
4.65689e-07
-6.26644e-06
4.66166e-07
-6.23642e-06
7.23641e-09
5.78313e-07
-6.84748e-06
1.02577e-08
5.16729e-07
-6.91164e-06
1.45047e-08
4.95351e-07
-6.87895e-06
8.3824e-09
5.18034e-07
-6.82779e-06
-2.0386e-09
5.56028e-07
-6.7678e-06
-1.01153e-08
5.97626e-07
-6.71662e-06
-9.02611e-09
5.97549e-07
-6.73193e-06
-2.55713e-09
5.72916e-07
-6.79323e-06
-5.80013e-10
5.60559e-07
-6.87816e-06
1.29466e-09
5.42458e-07
-6.94362e-06
9.42726e-10
5.36031e-07
-6.92211e-06
5.36845e-07
-6.88902e-06
7.59976e-09
6.60432e-07
-7.51387e-06
1.08823e-08
5.90521e-07
-7.58523e-06
1.61939e-08
5.66843e-07
-7.55103e-06
1.00913e-08
5.93346e-07
-7.49293e-06
-1.45828e-09
6.37252e-07
-7.42954e-06
-1.06328e-08
6.83762e-07
-7.378e-06
-9.37807e-09
6.82301e-07
-7.39696e-06
-2.0188e-09
6.53527e-07
-7.46265e-06
2.0121e-11
6.38383e-07
-7.54988e-06
1.60881e-09
6.17466e-07
-7.61835e-06
8.91294e-10
6.10631e-07
-7.59465e-06
6.11837e-07
-7.55843e-06
7.73102e-09
7.4738e-07
-8.19638e-06
1.13276e-08
6.68527e-07
-8.27528e-06
1.79566e-08
6.424e-07
-8.23989e-06
1.21334e-08
6.73094e-07
-8.1744e-06
-5.03788e-10
7.23449e-07
-8.10764e-06
-1.09111e-08
7.75104e-07
-8.05638e-06
-9.58989e-09
7.71905e-07
-8.07953e-06
-1.3446e-09
7.38544e-07
-8.14953e-06
6.99301e-10
7.2033e-07
-8.23802e-06
1.87292e-09
6.96426e-07
-8.30901e-06
6.80338e-10
6.89295e-07
-8.28328e-06
6.90949e-07
-8.24391e-06
7.5749e-09
8.38975e-07
-8.89438e-06
1.15524e-08
7.50508e-07
-8.98113e-06
1.97786e-08
7.21775e-07
-8.94497e-06
1.45397e-08
7.57078e-07
-8.87172e-06
8.63456e-10
8.14435e-07
-8.80149e-06
-1.08919e-08
8.71383e-07
-8.751e-06
-9.63408e-09
8.66093e-07
-8.77894e-06
-5.31138e-10
8.27701e-07
-8.8532e-06
1.44788e-09
8.06192e-07
-8.94196e-06
2.06267e-09
7.79146e-07
-9.01491e-06
2.71602e-10
7.71831e-07
-8.98732e-06
7.73988e-07
-8.94482e-06
7.07807e-09
9.35034e-07
-9.60734e-06
1.15163e-08
8.36221e-07
-9.70223e-06
2.16421e-08
8.0471e-07
-9.66582e-06
1.73375e-08
8.45091e-07
-9.58453e-06
2.78773e-09
9.09939e-07
-9.51055e-06
-1.05121e-08
9.72391e-07
-9.46118e-06
-9.47835e-09
9.64581e-07
-9.4945e-06
4.26994e-10
9.20723e-07
-9.57304e-06
2.25784e-09
8.95768e-07
-9.66113e-06
2.1538e-09
8.65453e-07
-9.73546e-06
-3.66309e-10
8.58044e-07
-9.7062e-06
8.60773e-07
-9.66061e-06
6.19203e-09
1.03537e-06
-1.03348e-05
1.11808e-08
9.2542e-07
-1.04381e-05
2.35252e-08
8.90945e-07
-1.04021e-05
2.05482e-08
9.36919e-07
-1.03126e-05
5.26094e-09
1.00975e-06
-1.02344e-05
-9.70393e-09
1.07784e-06
-1.01863e-05
-9.08504e-09
1.06707e-06
-1.02256e-05
1.53884e-09
1.01732e-06
-1.03085e-05
3.12267e-09
9.88866e-07
-1.0395e-05
2.12277e-09
9.55191e-07
-1.04702e-05
-1.29393e-09
9.47772e-07
-1.04394e-05
9.51104e-07
-1.03908e-05
4.87638e-09
1.13979e-06
-1.10764e-05
1.05114e-08
1.01786e-06
-1.11883e-05
2.54025e-08
9.80204e-07
-1.11534e-05
2.41868e-08
1.03233e-06
-1.10556e-05
8.36568e-09
1.11364e-06
-1.09726e-05
-8.39553e-09
1.18743e-06
-1.09258e-05
-8.41096e-09
1.17325e-06
-1.09715e-05
2.81598e-09
1.1172e-06
-1.1059e-05
4.03807e-09
1.08529e-06
-1.11432e-05
1.94758e-09
1.04823e-06
-1.12186e-05
-2.52756e-09
1.04085e-06
-1.11864e-05
1.0448e-06
-1.11349e-05
3.10261e-09
1.24809e-06
-1.18318e-05
9.48033e-09
1.11327e-06
-1.19525e-05
2.72453e-08
1.07219e-06
-1.19194e-05
2.82597e-08
1.13106e-06
-1.18134e-05
1.21627e-08
1.22134e-06
-1.17249e-05
-6.51266e-09
1.30091e-06
-1.1679e-05
-7.40755e-09
1.28283e-06
-1.17317e-05
4.27457e-09
1.22005e-06
-1.1824e-05
5.00246e-09
1.18486e-06
-1.19052e-05
1.60856e-09
1.14444e-06
-1.19801e-05
-4.10783e-09
1.13711e-06
-1.19467e-05
1.14169e-06
-1.18926e-05
8.5849e-10
1.36005e-06
-1.26004e-05
8.06894e-09
1.21139e-06
-1.27301e-05
2.9022e-08
1.16659e-06
-1.26998e-05
3.27633e-08
1.23281e-06
-1.25856e-05
1.67044e-08
1.33257e-06
-1.24909e-05
-3.98047e-09
1.41798e-06
-1.24455e-05
-6.02158e-09
1.39548e-06
-1.25055e-05
5.93451e-09
1.32557e-06
-1.26029e-05
6.01724e-09
1.28738e-06
-1.26805e-05
1.08918e-09
1.24372e-06
-1.27544e-05
-6.06526e-09
1.23643e-06
-1.27197e-05
1.24158e-06
-1.26633e-05
-1.84668e-09
1.47541e-06
-1.33818e-05
6.27076e-09
1.31193e-06
-1.35205e-05
3.06995e-08
1.26305e-06
-1.34939e-05
3.76824e-08
1.33722e-06
-1.33719e-05
2.20329e-08
1.44703e-06
-1.32701e-05
-7.26184e-10
1.53836e-06
-1.32245e-05
-4.19642e-09
1.51091e-06
-1.3292e-05
7.81924e-09
1.43343e-06
-1.33948e-05
7.08686e-09
1.39266e-06
-1.34684e-05
3.76902e-10
1.34598e-06
-1.35408e-05
-8.42493e-09
1.33865e-06
-1.3505e-05
1.34428e-06
-1.34465e-05
-4.98584e-09
1.59388e-06
-1.41754e-05
4.09468e-09
1.41455e-06
-1.43232e-05
3.22442e-08
1.36117e-06
-1.43011e-05
4.29893e-08
1.44388e-06
-1.41717e-05
2.81768e-08
1.56435e-06
-1.40621e-05
3.3173e-09
1.66176e-06
-1.40155e-05
-1.87382e-09
1.62882e-06
-1.40905e-05
9.95489e-09
1.54333e-06
-1.41989e-05
8.21866e-09
1.50048e-06
-1.42682e-05
-5.35948e-10
1.45112e-06
-1.43386e-05
-1.12041e-08
1.44366e-06
-1.43017e-05
1.44957e-06
-1.42416e-05
-8.49259e-09
1.71514e-06
-1.49804e-05
1.5679e-09
1.5189e-06
-1.51372e-05
3.36239e-08
1.46051e-06
-1.51205e-05
4.8642e-08
1.55229e-06
-1.49843e-05
3.5148e-08
1.6841e-06
-1.48661e-05
8.20974e-09
1.78786e-06
-1.48176e-05
1.02829e-09
1.74889e-06
-1.49e-05
1.23691e-08
1.65499e-06
-1.50143e-05
9.42249e-09
1.61065e-06
-1.5079e-05
-1.65125e-09
1.55904e-06
-1.51469e-05
-1.44105e-08
1.5513e-06
-1.5109e-05
1.55721e-06
-1.50478e-05
-1.22763e-08
1.83882e-06
-1.57958e-05
-1.25926e-09
1.62458e-06
-1.59614e-05
3.481e-08
1.56061e-06
-1.5951e-05
5.4585e-08
1.66191e-06
-1.58087e-05
4.2938e-08
1.8058e-06
-1.56815e-05
1.39951e-08
1.9163e-06
-1.563e-05
4.48964e-09
1.87088e-06
-1.57195e-05
1.50894e-08
1.76803e-06
-1.58397e-05
1.07101e-08
1.72294e-06
-1.58997e-05
-2.96456e-09
1.66963e-06
-1.59648e-05
-1.80403e-08
1.66143e-06
-1.59259e-05
1.66693e-06
-1.58642e-05
-1.6214e-08
1.96452e-06
-1.66206e-05
-4.32699e-09
1.73118e-06
-1.67947e-05
3.57792e-08
1.66095e-06
-1.67912e-05
6.07492e-08
1.77209e-06
-1.66438e-05
5.15157e-08
1.92886e-06
-1.65071e-05
2.07025e-08
2.04668e-06
-1.64516e-05
8.62615e-09
1.99447e-06
-1.65476e-05
1.81419e-08
1.88218e-06
-1.66739e-05
1.20943e-08
1.83712e-06
-1.67292e-05
-4.46433e-09
1.78275e-06
-1.67911e-05
-2.20766e-08
1.77387e-06
-1.67514e-05
1.7784e-06
-1.66898e-05
-2.01521e-08
2.09177e-06
-1.74536e-05
-7.5351e-09
1.83823e-06
-1.76358e-05
3.65165e-08
1.76097e-06
-1.76399e-05
6.70541e-08
1.88212e-06
-1.74883e-05
6.0826e-08
2.0526e-06
-1.7342e-05
2.83403e-08
2.17855e-06
-1.72814e-05
1.34559e-08
2.11933e-06
-1.73833e-05
2.15492e-08
1.9971e-06
-1.75156e-05
1.35884e-08
1.95293e-06
-1.75662e-05
-6.13158e-09
1.89824e-06
-1.76245e-05
-2.6488e-08
1.88841e-06
-1.75841e-05
1.89124e-06
-1.75235e-05
-2.39106e-08
2.2201e-06
-1.82934e-05
-1.07745e-08
1.94523e-06
-1.84831e-05
3.70161e-08
1.8601e-06
-1.84953e-05
7.34107e-08
1.99122e-06
-1.83407e-05
7.07903e-08
2.17624e-06
-1.81849e-05
3.68954e-08
2.31134e-06
-1.81182e-05
1.9002e-08
2.24508e-06
-1.82251e-05
2.53295e-08
2.11246e-06
-1.83633e-05
1.52056e-08
2.07006e-06
-1.84094e-05
-7.93962e-09
2.01589e-06
-1.84639e-05
-3.12276e-08
2.00479e-06
-1.84229e-05
2.005e-06
-1.83639e-05
-2.72896e-08
2.34895e-06
-1.91387e-05
-1.39173e-08
2.05166e-06
-1.93353e-05
3.72832e-08
1.95774e-06
-1.93559e-05
7.97244e-08
2.09856e-06
-1.91995e-05
8.13085e-08
2.29886e-06
-1.90346e-05
4.63327e-08
2.44439e-06
-1.89609e-05
2.52778e-08
2.37125e-06
-1.90719e-05
2.9496e-08
2.22784e-06
-1.92157e-05
1.69586e-08
2.18818e-06
-1.92574e-05
-9.854e-09
2.13543e-06
-1.93078e-05
-3.62334e-08
2.12266e-06
-1.92664e-05
2.11913e-06
-1.92098e-05
-3.00763e-08
2.47771e-06
-1.99885e-05
-1.68224e-08
2.15692e-06
-2.0191e-05
3.73344e-08
2.05325e-06
-2.02203e-05
8.58992e-08
2.20322e-06
-2.00635e-05
9.22621e-08
2.41945e-06
-1.98898e-05
5.65967e-08
2.57686e-06
-1.98084e-05
3.22836e-08
2.49727e-06
-1.99225e-05
3.40569e-08
2.34272e-06
-2.00716e-05
1.88598e-08
2.30683e-06
-2.01091e-05
-1.18323e-08
2.25647e-06
-2.01551e-05
-4.14276e-08
2.2416e-06
-2.01136e-05
2.23298e-06
-2.00602e-05
-3.2053e-08
2.6057e-06
-2.08413e-05
-1.93397e-08
2.26038e-06
-2.10486e-05
3.71973e-08
2.14592e-06
-2.10868e-05
9.18396e-08
2.30419e-06
-2.09309e-05
1.03516e-07
2.53684e-06
-2.07494e-05
6.76107e-08
2.70782e-06
-2.06596e-05
4.00062e-08
2.62241e-06
-2.07757e-05
3.90143e-08
2.45648e-06
-2.09295e-05
2.09212e-08
2.42549e-06
-2.09631e-05
-1.38235e-08
2.37855e-06
-2.10045e-05
-4.67167e-08
2.36106e-06
-2.0963e-05
2.34578e-06
-2.09136e-05
-3.30073e-08
2.7322e-06
-2.16959e-05
-2.1316e-08
2.36136e-06
-2.19067e-05
3.69105e-08
2.23499e-06
-2.19536e-05
9.74525e-08
2.40037e-06
-2.18002e-05
1.14919e-07
2.64974e-06
-2.16118e-05
7.92766e-08
2.83616e-06
-2.15132e-05
4.84177e-08
2.74587e-06
-2.163e-05
4.43641e-08
2.56844e-06
-2.1788e-05
2.31553e-08
2.54354e-06
-2.18179e-05
-1.57668e-08
2.50113e-06
-2.18547e-05
-5.19899e-08
2.48041e-06
-2.18134e-05
2.45665e-06
-2.17688e-05
-3.27444e-08
2.85644e-06
-2.25508e-05
-2.2603e-08
2.45921e-06
-2.27634e-05
3.65212e-08
2.31969e-06
-2.28187e-05
1.0265e-07
2.4906e-06
-2.26693e-05
1.26309e-07
2.75676e-06
-2.24754e-05
9.14778e-08
2.96073e-06
-2.23678e-05
5.74785e-08
2.86676e-06
-2.24841e-05
5.00986e-08
2.67783e-06
-2.26454e-05
2.5576e-08
2.66034e-06
-2.26721e-05
-1.75915e-08
2.62358e-06
-2.27042e-05
-5.71206e-08
2.59894e-06
-2.26633e-05
2.56466e-06
-2.26241e-05
-3.11003e-08
2.97766e-06
-2.34045e-05
-2.30659e-08
2.55328e-06
-2.36172e-05
3.60836e-08
2.39926e-06
-2.36802e-05
1.07352e-07
2.57366e-06
-2.35364e-05
1.37517e-07
2.85644e-06
-2.33386e-05
1.04085e-07
3.08025e-06
-2.32222e-05
6.71402e-08
2.98413e-06
-2.33365e-05
5.62085e-08
2.7839e-06
-2.35002e-05
2.82009e-08
2.77518e-06
-2.35242e-05
-1.92172e-08
2.74521e-06
-2.35515e-05
-6.19686e-08
2.71585e-06
-2.35113e-05
2.66878e-06
-2.34781e-05
-2.79544e-08
3.09511e-06
-2.42556e-05
-2.25926e-08
2.64301e-06
-2.44662e-05
3.56552e-08
2.47299e-06
-2.45361e-05
1.11492e-07
2.64836e-06
-2.43993e-05
1.48375e-07
2.94728e-06
-2.41995e-05
1.16961e-07
3.19339e-06
-2.40747e-05
7.73495e-08
3.09701e-06
-2.41858e-05
6.26859e-08
2.88587e-06
-2.43508e-05
3.10526e-08
2.88734e-06
-2.43726e-05
-2.0554e-08
2.8653e-06
-2.43953e-05
-6.63831e-08
2.83031e-06
-2.43559e-05
2.76798e-06
-2.4329e-05
-2.32412e-08
3.20808e-06
-2.51025e-05
-2.11024e-08
2.72787e-06
-2.5309e-05
3.52932e-08
2.54021e-06
-2.53844e-05
1.15017e-07
2.71353e-06
-2.52559e-05
1.58724e-07
3.02778e-06
-2.50562e-05
1.29968e-07
3.2988e-06
-2.49239e-05
8.80521e-08
3.20439e-06
-2.50305e-05
6.95263e-08
2.98298e-06
-2.51957e-05
3.41605e-08
2.99611e-06
-2.52159e-05
-2.15037e-08
2.98306e-06
-2.52341e-05
-7.02065e-08
2.94141e-06
-2.51957e-05
2.86118e-06
-2.51753e-05
-1.69598e-08
3.31586e-06
-2.59437e-05
-1.85542e-08
2.80744e-06
-2.61439e-05
3.50506e-08
2.60036e-06
-2.62234e-05
1.1789e-07
2.76805e-06
-2.61041e-05
1.68418e-07
3.09645e-06
-2.59067e-05
1.42974e-07
3.39511e-06
-2.57682e-05
9.91971e-08
3.30528e-06
-2.58692e-05
7.67314e-08
3.07452e-06
-2.60333e-05
3.75614e-08
3.10076e-06
-2.60525e-05
-2.19618e-08
3.09767e-06
-2.60666e-05
-7.32806e-08
3.04823e-06
-2.60292e-05
2.94734e-06
-2.60152e-05
-9.18028e-09
3.41785e-06
-2.67781e-05
-1.4952e-08
2.88139e-06
-2.69695e-05
3.49725e-08
2.65296e-06
-2.70515e-05
1.20095e-07
2.81092e-06
-2.69422e-05
1.77333e-07
3.15188e-06
-2.67493e-05
1.55859e-07
3.48097e-06
-2.66062e-05
1.1074e-07
3.39871e-06
-2.67006e-05
8.43106e-08
3.15983e-06
-2.68623e-05
4.13003e-08
3.20064e-06
-2.68811e-05
-2.18211e-08
3.20832e-06
-2.68914e-05
-7.54529e-08
3.14983e-06
-2.68551e-05
3.02545e-06
-2.68473e-05
-4.53355e-11
3.51347e-06
-2.76042e-05
-1.03492e-08
2.94952e-06
-2.77847e-05
3.50926e-08
2.6977e-06
-2.78672e-05
1.21635e-07
2.8413e-06
-2.77683e-05
1.85376e-07
3.1928e-06
-2.75821e-05
1.68522e-07
3.55508e-06
-2.74365e-05
1.22646e-07
3.48378e-06
-2.75236e-05
9.22808e-08
3.23839e-06
-2.76816e-05
4.54285e-08
3.29511e-06
-2.77006e-05
-2.09761e-08
3.31417e-06
-2.77075e-05
-7.65847e-08
3.24528e-06
-2.76722e-05
3.0946e-06
-2.76699e-05
1.0235e-08
3.60223e-06
-2.8421e-05
-4.84782e-09
3.01171e-06
-2.85884e-05
3.54312e-08
2.73439e-06
-2.86694e-05
1.22534e-07
2.85853e-06
-2.85809e-05
1.92484e-07
3.21808e-06
-2.84036e-05
1.80885e-07
3.61625e-06
-2.82577e-05
1.34891e-07
3.55965e-06
-2.83369e-05
1.00666e-07
3.30973e-06
-2.849e-05
5.00018e-08
3.38364e-06
-2.85098e-05
-1.93293e-08
3.41443e-06
-2.85138e-05
-7.65608e-08
3.3337e-06
-2.84794e-05
3.15401e-06
-2.84819e-05
2.13757e-08
3.68374e-06
-2.92276e-05
1.40547e-09
3.06796e-06
-2.93802e-05
3.59959e-08
2.76297e-06
-2.94576e-05
1.2284e-07
2.86216e-06
-2.93791e-05
1.98635e-07
3.22682e-06
-2.92125e-05
1.92894e-07
3.66339e-06
-2.90687e-05
1.47458e-07
3.62559e-06
-2.91399e-05
1.09492e-07
3.37356e-06
-2.92869e-05
5.50756e-08
3.46576e-06
-2.9308e-05
-1.67974e-08
3.50834e-06
-2.93095e-05
-7.52981e-08
3.41425e-06
-2.92759e-05
3.20304e-06
-2.92822e-05
3.30615e-08
3.75766e-06
-3.00234e-05
8.22942e-09
3.11834e-06
-3.01594e-05
3.67817e-08
2.78355e-06
-3.02313e-05
1.22622e-07
2.852e-06
-3.01621e-05
2.03845e-07
3.21839e-06
-3.00077e-05
2.04523e-07
3.69559e-06
-2.98685e-05
1.60338e-07
3.68096e-06
-2.99318e-05
1.18787e-07
3.42967e-06
-3.00719e-05
6.06996e-08
3.54111e-06
-3.00947e-05
-1.33203e-08
3.59518e-06
-3.00941e-05
-7.2755e-08
3.48621e-06
-3.00609e-05
3.24126e-06
-3.00701e-05
4.49348e-08
3.82373e-06
-3.08079e-05
1.53883e-08
3.16297e-06
-3.09262e-05
3.7774e-08
2.79629e-06
-3.09906e-05
1.21972e-07
2.8281e-06
-3.09297e-05
2.08168e-07
3.1924e-06
-3.07887e-05
2.15764e-07
3.71211e-06
-3.06566e-05
1.73517e-07
3.72526e-06
-3.07123e-05
1.28567e-07
3.47799e-06
-3.08447e-05
6.69111e-08
3.60942e-06
-3.08695e-05
-8.86815e-09
3.67434e-06
-3.08673e-05
-6.89392e-08
3.54894e-06
-3.08343e-05
3.26843e-06
-3.08451e-05
5.66292e-08
3.88175e-06
-3.15811e-05
2.26854e-08
3.20197e-06
-3.16808e-05
3.89517e-08
2.80144e-06
-3.17362e-05
1.20999e-07
2.79072e-06
-3.16822e-05
2.11695e-07
3.1488e-06
-3.15552e-05
2.26628e-07
3.71242e-06
-3.14324e-05
1.86974e-07
3.7581e-06
-3.14812e-05
1.38831e-07
3.51857e-06
-3.16055e-05
7.37263e-08
3.67054e-06
-3.16326e-05
-3.44956e-09
3.74527e-06
-3.16291e-05
-6.39137e-08
3.60198e-06
-3.15959e-05
3.28455e-06
-3.16072e-05
6.77938e-08
3.93157e-06
-3.23429e-05
2.98714e-08
3.23546e-06
-3.24237e-05
4.02942e-08
2.79924e-06
-3.24687e-05
1.19829e-07
2.7403e-06
-3.24204e-05
2.14544e-07
3.08779e-06
-3.23076e-05
2.3713e-07
3.69619e-06
-3.2196e-05
2.00663e-07
3.77924e-06
-3.22387e-05
1.4955e-07
3.55155e-06
-3.23547e-05
8.11319e-08
3.72437e-06
-3.23843e-05
2.87976e-09
3.80755e-06
-3.23797e-05
-5.77995e-08
3.64497e-06
-3.23461e-05
3.28981e-06
-3.23567e-05
7.81098e-08
3.97308e-06
-3.30939e-05
3.67568e-08
3.26349e-06
-3.31557e-05
4.17854e-08
2.7899e-06
-3.31892e-05
1.18601e-07
2.67738e-06
-3.31451e-05
2.16854e-07
3.00985e-06
-3.30463e-05
2.47283e-07
3.66336e-06
-3.29476e-05
2.14511e-07
3.78857e-06
-3.29853e-05
1.60655e-07
3.57713e-06
-3.30931e-05
8.90762e-08
3.77093e-06
-3.31253e-05
1.00218e-08
3.86085e-06
-3.31197e-05
-5.07766e-08
3.67775e-06
-3.30853e-05
3.2846e-06
-3.30943e-05
8.73151e-08
4.00621e-06
-3.38346e-05
4.31617e-08
3.28604e-06
-3.38778e-05
4.3416e-08
2.77367e-06
-3.38994e-05
1.1746e-07
2.60264e-06
-3.38578e-05
2.18772e-07
2.91565e-06
-3.37723e-05
2.57084e-07
3.61405e-06
-3.36877e-05
2.28396e-07
3.78611e-06
-3.37217e-05
1.72033e-07
3.5956e-06
-3.38216e-05
9.74618e-08
3.81027e-06
-3.38564e-05
1.78126e-08
3.90497e-06
-3.385e-05
-4.30794e-08
3.70028e-06
-3.38144e-05
3.26946e-06
-3.3821e-05
9.52225e-08
4.03093e-06
-3.45658e-05
4.89582e-08
3.30324e-06
-3.45915e-05
4.51894e-08
2.75108e-06
-3.46011e-05
1.16553e-07
2.51719e-06
-3.45607e-05
2.2045e-07
2.8063e-06
-3.44874e-05
2.6651e-07
3.54873e-06
-3.44172e-05
2.42158e-07
3.77213e-06
-3.44487e-05
1.8352e-07
3.60734e-06
-3.45415e-05
1.06143e-07
3.84255e-06
-3.45787e-05
2.60475e-08
3.93992e-06
-3.45716e-05
-3.49847e-08
3.7128e-06
-3.45346e-05
3.24514e-06
-3.45382e-05
1.01739e-07
4.04753e-06
-3.52891e-05
5.40809e-08
3.31528e-06
-3.52989e-05
4.71152e-08
2.72266e-06
-3.52969e-05
1.16005e-07
2.42245e-06
-3.52565e-05
2.22023e-07
2.68348e-06
-3.51936e-05
2.75514e-07
3.46844e-06
-3.51378e-05
2.55597e-07
3.74731e-06
-3.51681e-05
1.94914e-07
3.61306e-06
-3.52546e-05
1.14937e-07
3.86831e-06
-3.52941e-05
3.44871e-08
3.96615e-06
-3.52863e-05
-2.67863e-08
3.71598e-06
-3.52477e-05
3.21279e-06
-3.5248e-05
1.06863e-07
4.05632e-06
-3.60064e-05
5.85205e-08
3.32216e-06
-3.6002e-05
4.92094e-08
2.68868e-06
-3.59892e-05
1.15911e-07
2.31961e-06
-3.59478e-05
2.23608e-07
2.54892e-06
-3.58938e-05
2.8406e-07
3.37443e-06
-3.58515e-05
2.68534e-07
3.71242e-06
-3.58819e-05
2.06026e-07
3.61344e-06
-3.59632e-05
1.23664e-07
3.88814e-06
-3.60047e-05
4.29016e-08
3.98416e-06
-3.59962e-05
-1.87527e-08
3.71057e-06
-3.5956e-05
3.17359e-06
-3.59528e-05
1.10658e-07
4.05747e-06
-3.67196e-05
6.23109e-08
3.32377e-06
-3.67029e-05
5.15011e-08
2.64931e-06
-3.66802e-05
1.16344e-07
2.20975e-06
-3.66373e-05
2.25278e-07
2.40423e-06
-3.65905e-05
2.92076e-07
3.26794e-06
-3.65607e-05
2.80772e-07
3.66814e-06
-3.65921e-05
2.1666e-07
3.60897e-06
-3.66694e-05
1.32136e-07
3.90248e-06
-3.67127e-05
5.10602e-08
3.99444e-06
-3.67034e-05
-1.11307e-08
3.69731e-06
-3.66616e-05
3.1286e-06
-3.66552e-05
1.13247e-07
4.05125e-06
-3.74308e-05
6.55225e-08
3.31998e-06
-3.74035e-05
5.40237e-08
2.60466e-06
-3.73721e-05
1.17348e-07
2.09381e-06
-3.73273e-05
2.2707e-07
2.25104e-06
-3.72862e-05
2.9946e-07
3.1503e-06
-3.72674e-05
2.92089e-07
3.61526e-06
-3.73007e-05
2.26589e-07
3.60012e-06
-3.73752e-05
1.4014e-07
3.91177e-06
-3.74201e-05
5.87273e-08
3.99754e-06
-3.74099e-05
-4.14711e-09
3.67697e-06
-3.73665e-05
3.0788e-06
-3.73572e-05
1.1479e-07
4.03791e-06
-3.81419e-05
6.82509e-08
3.31066e-06
-3.81059e-05
5.68087e-08
2.55478e-06
-3.80668e-05
1.18943e-07
1.97265e-06
-3.80198e-05
2.28987e-07
2.09094e-06
-3.79832e-05
3.06107e-07
3.02297e-06
-3.79739e-05
3.0228e-07
3.55463e-06
-3.80097e-05
2.35603e-07
3.58734e-06
-3.80826e-05
1.47476e-07
3.91643e-06
-3.81289e-05
6.56974e-08
3.99404e-06
-3.81177e-05
2.01898e-09
3.65033e-06
-3.80729e-05
3.02506e-06
-3.80611e-05
1.15474e-07
4.01776e-06
-3.88548e-05
7.06051e-08
3.29565e-06
-3.88117e-05
5.98826e-08
2.49968e-06
-3.8766e-05
1.21119e-07
1.84701e-06
-3.87168e-05
2.31006e-07
1.92541e-06
-3.86836e-05
3.11911e-07
2.88742e-06
-3.86823e-05
3.11164e-07
3.4871e-06
-3.87212e-05
2.43516e-07
3.57097e-06
-3.87935e-05
1.53964e-07
3.91681e-06
-3.8841e-05
7.17984e-08
3.9845e-06
-3.88288e-05
7.23743e-09
3.61811e-06
-3.87828e-05
2.96812e-06
-3.87689e-05
1.15488e-07
3.99108e-06
-3.95714e-05
7.26968e-08
3.27484e-06
-3.95227e-05
6.32653e-08
2.43934e-06
-3.94714e-05
1.23846e-07
1.71751e-06
-3.94201e-05
2.3308e-07
1.7558e-06
-3.93894e-05
3.16775e-07
2.74513e-06
-3.93948e-05
3.18591e-07
3.41355e-06
-3.94369e-05
2.50165e-07
3.55134e-06
-3.95095e-05
1.59449e-07
3.91325e-06
-3.95581e-05
7.68956e-08
3.96948e-06
-3.95449e-05
1.14234e-08
3.58095e-06
-3.94979e-05
2.90854e-06
-3.94823e-05
1.15015e-07
3.95817e-06
-4.02934e-05
7.46304e-08
3.24812e-06
-4.02403e-05
6.69686e-08
2.37373e-06
-4.01843e-05
1.27077e-07
1.58466e-06
-4.0131e-05
2.35146e-07
1.58337e-06
-4.01021e-05
3.20612e-07
2.59751e-06
-4.0113e-05
3.24442e-07
3.33482e-06
-4.01587e-05
2.55421e-07
3.5287e-06
-4.02322e-05
1.63806e-07
3.90599e-06
-4.02818e-05
8.0892e-08
3.94945e-06
-4.02676e-05
1.45371e-08
3.53941e-06
-4.02198e-05
2.84675e-06
-4.0203e-05
1.14218e-07
3.91931e-06
-4.10223e-05
7.64968e-08
3.21541e-06
-4.09657e-05
7.09972e-08
2.3028e-06
-4.09058e-05
1.30757e-07
1.44889e-06
-4.08508e-05
2.37133e-07
1.4092e-06
-4.08233e-05
3.2335e-07
2.44595e-06
-4.08386e-05
3.28632e-07
3.25175e-06
-4.0888e-05
2.59186e-07
3.50324e-06
-4.0963e-05
1.66937e-07
3.89523e-06
-4.10134e-05
8.37234e-08
3.92481e-06
-4.09983e-05
1.65688e-08
3.49392e-06
-4.09499e-05
2.78299e-06
-4.09323e-05
1.13231e-07
3.87477e-06
-4.17593e-05
7.83705e-08
3.17664e-06
-4.17001e-05
7.53486e-08
2.2265e-06
-4.1637e-05
1.34824e-07
1.31058e-06
-4.15804e-05
2.38966e-07
1.2343e-06
-4.15539e-05
3.24927e-07
2.29172e-06
-4.1573e-05
3.311e-07
3.1651e-06
-4.1626e-05
2.61383e-07
3.47513e-06
-4.1703e-05
1.6877e-07
3.8811e-06
-4.17542e-05
8.53514e-08
3.8959e-06
-4.17383e-05
1.75312e-08
3.44479e-06
-4.16895e-05
2.7174e-06
-4.16714e-05
1.12166e-07
3.82478e-06
-4.25058e-05
8.03091e-08
3.13176e-06
-4.24445e-05
8.00148e-08
2.14477e-06
-4.23787e-05
1.39216e-07
1.17001e-06
-4.23207e-05
2.40565e-07
1.05957e-06
-4.22951e-05
3.25291e-07
2.13605e-06
-4.23173e-05
3.31802e-07
3.0756e-06
-4.2374e-05
2.61955e-07
3.44448e-06
-4.24532e-05
1.69247e-07
3.86367e-06
-4.25052e-05
8.57549e-08
3.86294e-06
-4.24885e-05
1.74484e-08
3.39223e-06
-4.24396e-05
2.64997e-06
-4.24213e-05
1.11105e-07
3.76958e-06
-4.32625e-05
8.23544e-08
3.08075e-06
-4.31997e-05
8.49831e-08
2.05756e-06
-4.31316e-05
1.43869e-07
1.02747e-06
-4.30725e-05
2.41854e-07
8.85825e-07
-4.30477e-05
3.2439e-07
1.98005e-06
-4.30726e-05
3.30702e-07
2.98393e-06
-4.31328e-05
2.60854e-07
3.41136e-06
-4.32144e-05
1.68325e-07
3.84294e-06
-4.32671e-05
8.49228e-08
3.82609e-06
-4.32499e-05
1.63495e-08
3.33634e-06
-4.3201e-05
2.58061e-06
-4.31827e-05
1.10112e-07
3.70936e-06
-4.40304e-05
8.45354e-08
3.02357e-06
-4.39663e-05
9.02362e-08
1.9648e-06
-4.38964e-05
1.4872e-07
8.83205e-07
-4.38364e-05
2.42752e-07
7.13846e-07
-4.38123e-05
3.22178e-07
1.82481e-06
-4.38396e-05
3.27768e-07
2.89075e-06
-4.39034e-05
2.58038e-07
3.37583e-06
-4.39874e-05
1.65967e-07
3.81889e-06
-4.40408e-05
8.28491e-08
3.78544e-06
-4.40231e-05
1.42651e-08
3.27714e-06
-4.39746e-05
2.50912e-06
-4.39565e-05
1.09232e-07
3.6443e-06
-4.48102e-05
8.68702e-08
2.9602e-06
-4.4745e-05
9.5753e-08
1.86645e-06
-4.46735e-05
1.53704e-07
7.37458e-07
-4.4613e-05
2.43182e-07
5.44369e-07
-4.45897e-05
3.18604e-07
1.67132e-06
-4.46192e-05
3.22969e-07
2.79665e-06
-4.46863e-05
2.53467e-07
3.33792e-06
-4.47727e-05
1.62139e-07
3.79142e-06
-4.48269e-05
7.95311e-08
3.741e-06
-4.48089e-05
1.12255e-08
3.21457e-06
-4.47609e-05
2.43525e-06
-4.47431e-05
1.08498e-07
3.5746e-06
-4.56024e-05
8.93692e-08
2.89065e-06
-4.55363e-05
1.01508e-07
1.76247e-06
-4.54635e-05
1.58756e-07
5.90477e-07
-4.54027e-05
2.43064e-07
3.78105e-07
-4.53804e-05
3.13619e-07
1.52054e-06
-4.5412e-05
3.16274e-07
2.7022e-06
-4.54823e-05
2.47107e-07
3.29764e-06
-4.5571e-05
1.56812e-07
3.76043e-06
-4.56259e-05
7.49699e-08
3.69271e-06
-4.56079e-05
7.26485e-09
3.14848e-06
-4.55605e-05
2.35865e-06
-4.55432e-05
1.07937e-07
3.50041e-06
-4.64077e-05
9.20362e-08
2.81493e-06
-4.63408e-05
1.07471e-07
1.65283e-06
-4.62669e-05
1.63805e-07
4.42523e-07
-4.62061e-05
2.4232e-07
2.15749e-07
-4.6185e-05
3.07176e-07
1.37338e-06
-4.62185e-05
3.07655e-07
2.60794e-06
-4.62918e-05
2.38928e-07
3.25498e-06
-4.63828e-05
1.49968e-07
3.72576e-06
-4.64384e-05
6.91733e-08
3.64049e-06
-4.64204e-05
2.42122e-09
3.07868e-06
-4.63739e-05
2.27895e-06
-4.63573e-05
1.07569e-07
3.42191e-06
-4.72265e-05
9.48705e-08
2.73305e-06
-4.71589e-05
1.13605e-07
1.53754e-06
-4.70841e-05
1.6878e-07
2.93871e-07
-4.70237e-05
2.40873e-07
5.79806e-08
-4.70039e-05
2.99233e-07
1.2307e-06
-4.70393e-05
2.97094e-07
2.51437e-06
-4.71154e-05
2.28912e-07
3.20992e-06
-4.72084e-05
1.41597e-07
3.68724e-06
-4.72647e-05
6.21605e-08
3.58419e-06
-4.72471e-05
-3.25423e-09
3.00493e-06
-4.72017e-05
2.19572e-06
-4.71859e-05
1.07409e-07
3.33928e-06
-4.80593e-05
9.78676e-08
2.64506e-06
-4.7991e-05
1.19869e-07
1.41662e-06
-4.79157e-05
1.73602e-07
1.44822e-07
-4.78559e-05
2.38648e-07
-9.454e-08
-4.78377e-05
2.89756e-07
1.09329e-06
-4.7875e-05
2.84587e-07
2.42193e-06
-4.79536e-05
2.17062e-07
3.16242e-06
-4.80485e-05
1.31711e-07
3.64465e-06
-4.81054e-05
5.39685e-08
3.52363e-06
-4.80883e-05
-9.69558e-09
2.92692e-06
-4.80442e-05
2.10847e-06
-4.80293e-05
1.07473e-07
3.2527e-06
-4.89067e-05
1.01019e-07
2.55105e-06
-4.88378e-05
1.26214e-07
1.29017e-06
-4.8762e-05
1.78188e-07
-4.30274e-09
-4.87034e-05
2.35577e-07
-2.4118e-07
-4.86869e-05
2.78729e-07