0 	0 	0 	0
0 	-2.60827e-35 	-6.77108e-37 	1.8569e-31
5.01672e-05 	-2.28026e-06 	-1.06283e-07 	0.0173221
5.01672e-05 	-2.28026e-06 	-1.06283e-07 	0.0173221
0.000100334 	-3.23829e-06 	-5.92567e-07 	0.0333211
0.000150502 	-3.79366e-06 	-1.5032e-06 	0.0481609
0.000150502 	-3.79366e-06 	-1.5032e-06 	0.0481609
0.000200669 	-4.33672e-06 	-2.86252e-06 	0.0619284
0.000200669 	-4.33672e-06 	-2.86252e-06 	0.0619284
0.000250836 	-4.85439e-06 	-4.64428e-06 	0.0747048
0.000301003 	-5.30375e-06 	-6.84257e-06 	0.0865578
0.000301003 	-5.30375e-06 	-6.84257e-06 	0.0865578
0.000351171 	-5.67616e-06 	-9.45172e-06 	0.0975326
0.000401338 	-5.97234e-06 	-1.24807e-05 	0.107652
0.000451505 	-6.19719e-06 	-1.59562e-05 	0.116932
0.000451505 	-6.19719e-06 	-1.59562e-05 	0.116932
0.000501672 	-6.35833e-06 	-1.99175e-05 	0.125398
0.000551839 	-6.46479e-06 	-2.44052e-05 	0.133097
0.000551839 	-6.46479e-06 	-2.44052e-05 	0.133097
0.000602007 	-6.52551e-06 	-2.94505e-05 	0.140089
0.000602007 	-6.52551e-06 	-2.94505e-05 	0.140089
0.000652174 	-6.54848e-06 	-3.50749e-05 	0.146445
0.000652174 	-6.54848e-06 	-3.50749e-05 	0.146445
0.000702341 	-6.54029e-06 	-4.12951e-05 	0.152236
0.000702341 	-6.54029e-06 	-4.12951e-05 	0.152236
0.000752508 	-6.50613e-06 	-4.81263e-05 	0.157532
0.000802676 	-6.44966e-06 	-5.55831e-05 	0.162388
0.000852843 	-6.37118e-06 	-6.37648e-05 	0.166797
0.000852843 	-6.37118e-06 	-6.37648e-05 	0.166797
0.00090301 	-6.27692e-06 	-7.25423e-05 	0.17087
0.00090301 	-6.27692e-06 	-7.25423e-05 	0.17087
0.000953177 	-6.16954e-06 	-8.1864e-05 	0.174645
0.00100334 	-6.05129e-06 	-9.16767e-05 	0.178159
0.00100334 	-6.05129e-06 	-9.16767e-05 	0.178159
0.00105351 	-5.92399e-06 	-0.000101929 	0.181444
0.00105351 	-5.92399e-06 	-0.000101929 	0.181444
0.00110368 	-5.78894e-06 	-0.000112583 	0.184522
0.00115385 	-5.64568e-06 	-0.000123684 	0.187372
0.00120401 	-5.49722e-06 	-0.000135073 	0.190072
0.00120401 	-5.49722e-06 	-0.000135073 	0.190072
0.00130435 	-5.18735e-06 	-0.000158578 	0.195078
0.00130435 	-5.18735e-06 	-0.000158578 	0.195078
0.00135452 	-5.02617e-06 	-0.000170682 	0.197377
0.00135452 	-5.02617e-06 	-0.000170682 	0.197377
0.00140468 	-4.8621e-06 	-0.000182951 	0.199567
0.00145485 	-4.69613e-06 	-0.00019533 	0.201673
0.00145485 	-4.69613e-06 	-0.00019533 	0.201673
0.00150502 	-4.52864e-06 	-0.000207802 	0.203703
0.00150502 	-4.52864e-06 	-0.000207802 	0.203703
0.00155518 	-4.35969e-06 	-0.000220366 	0.205623
0.00155518 	-4.35969e-06 	-0.000220366 	0.205623
0.00160535 	-4.19008e-06 	-0.000232951 	0.207484
0.00160535 	-4.19008e-06 	-0.000232951 	0.207484
0.00165552 	-4.01985e-06 	-0.000245544 	0.209292
0.00165552 	-4.01985e-06 	-0.000245544 	0.209292
0.00170569 	-3.84868e-06 	-0.000258112 	0.21103
0.00170569 	-3.84868e-06 	-0.000258112 	0.21103
0.00175585 	-3.67658e-06 	-0.000270608 	0.212712
0.00175585 	-3.67658e-06 	-0.000270608 	0.212712
0.00180602 	-3.50381e-06 	-0.000283036 	0.214356
0.00180602 	-3.50381e-06 	-0.000283036 	0.214356
0.00185619 	-3.33005e-06 	-0.000295335 	0.215947
0.00185619 	-3.33005e-06 	-0.000295335 	0.215947
0.00190635 	-3.15546e-06 	-0.000307468 	0.217493
0.00190635 	-3.15546e-06 	-0.000307468 	0.217493
0.00195652 	-2.98037e-06 	-0.000319483 	0.219011
0.00195652 	-2.98037e-06 	-0.000319483 	0.219011
0.00200669 	-2.80444e-06 	-0.000331257 	0.220481
0.00200669 	-2.80444e-06 	-0.000331257 	0.220481
0.00205686 	-2.62798e-06 	-0.000342816 	0.221919
0.00210702 	-2.45116e-06 	-0.000354232 	0.223336
0.00210702 	-2.45116e-06 	-0.000354232 	0.223336
0.00215719 	-2.27356e-06 	-0.000365244 	0.224704
0.00220736 	-2.0957e-06 	-0.000376078 	0.226054
0.00225753 	-1.9174e-06 	-0.000386629 	0.227375
0.00225753 	-1.9174e-06 	-0.000386629 	0.227375
0.00230769 	-1.73861e-06 	-0.000396808 	0.228664
0.00230769 	-1.73861e-06 	-0.000396808 	0.228664
0.00235786 	-1.55961e-06 	-0.000406825 	0.229939
0.00235786 	-1.55961e-06 	-0.000406825 	0.229939
0.00240803 	-1.37997e-06 	-0.000416314 	0.231175
0.00240803 	-1.37997e-06 	-0.000416314 	0.231175
0.00245819 	-1.20009e-06 	-0.000425609 	0.232397
0.00245819 	-1.20009e-06 	-0.000425609 	0.232397
0.00250836 	-1.01973e-06 	-0.000434509 	0.233591
0.00250836 	-1.01973e-06 	-0.000434509 	0.233591
0.00255853 	-8.38908e-07 	-0.000443046 	0.234763
0.0026087 	-6.57755e-07 	-0.000451324 	0.235918
0.0026087 	-6.57755e-07 	-0.000451324 	0.235918
0.00265886 	-4.759e-07 	-0.000459078 	0.237042
0.00270903 	-2.93879e-07 	-0.000466708 	0.238158
0.00270903 	-2.93879e-07 	-0.000466708 	0.238158
0.0027592 	-1.10958e-07 	-0.000473664 	0.239236
0.00280936 	7.21054e-08 	-0.000480511 	0.240307
0.00280936 	7.21054e-08 	-0.000480511 	0.240307
0.00285953 	2.55921e-07 	-0.000486776 	0.241346
0.00285953 	2.55921e-07 	-0.000486776 	0.241346
0.0029097 	4.39995e-07 	-0.000492843 	0.242375
0.0029097 	4.39995e-07 	-0.000492843 	0.242375
0.00295987 	6.24717e-07 	-0.000498412 	0.243376
0.00295987 	6.24717e-07 	-0.000498412 	0.243376
0.00301003 	8.09823e-07 	-0.000503722 	0.244362
0.0030602 	9.95566e-07 	-0.000508605 	0.245325
0.00311037 	1.18187e-06 	-0.000513203 	0.246271
0.00311037 	1.18187e-06 	-0.000513203 	0.246271
0.00316054 	1.36891e-06 	-0.000517428 	0.247196
0.00316054 	1.36891e-06 	-0.000517428 	0.247196
0.00326087 	1.74548e-06 	-0.000524982 	0.248991
0.00326087 	1.74548e-06 	-0.000524982 	0.248991
0.00331104 	1.93507e-06 	-0.000528341 	0.249861
0.0033612 	2.12571e-06 	-0.000531387 	0.25071
0.0033612 	2.12571e-06 	-0.000531387 	0.25071
0.00341137 	2.31685e-06 	-0.000534231 	0.251544
0.00341137 	2.31685e-06 	-0.000534231 	0.251544
0.00346154 	2.50876e-06 	-0.00053677 	0.252355
0.00346154 	2.50876e-06 	-0.00053677 	0.252355
0.00351171 	2.70063e-06 	-0.000539168 	0.253154
0.00356187 	2.89241e-06 	-0.000541258 	0.253928
0.00356187 	2.89241e-06 	-0.000541258 	0.253928
0.00361204 	3.08397e-06 	-0.000543273 	0.254695
0.00366221 	3.27456e-06 	-0.000544969 	0.255434
0.00366221 	3.27456e-06 	-0.000544969 	0.255434
0.00371237 	3.46512e-06 	-0.000546654 	0.256172
0.00371237 	3.46512e-06 	-0.000546654 	0.256172
0.00376254 	3.6547e-06 	-0.000548001 	0.256878
0.00376254 	3.6547e-06 	-0.000548001 	0.256878
0.00381271 	3.84428e-06 	-0.000549348 	0.257584
0.00381271 	3.84428e-06 	-0.000549348 	0.257584
0.00386288 	4.03385e-06 	-0.000550437 	0.258263
0.00391304 	4.22341e-06 	-0.000551473 	0.258937
0.00391304 	4.22341e-06 	-0.000551473 	0.258937
0.00396321 	4.41334e-06 	-0.000552347 	0.259592
0.00401338 	4.60353e-06 	-0.000553108 	0.260234
0.00401338 	4.60353e-06 	-0.000553108 	0.260234
0.00406355 	4.79388e-06 	-0.000553793 	0.260866
0.00406355 	4.79388e-06 	-0.000553793 	0.260866
0.00411371 	4.98459e-06 	-0.000554313 	0.261476
0.00411371 	4.98459e-06 	-0.000554313 	0.261476
0.00421405 	5.36616e-06 	-0.000555149 	0.262663
0.00421405 	5.36616e-06 	-0.000555149 	0.262663
0.00426421 	5.55702e-06 	-0.000555464 	0.26324
0.00426421 	5.55702e-06 	-0.000555464 	0.26324
0.00431438 	5.7477e-06 	-0.000555673 	0.263797
0.00431438 	5.7477e-06 	-0.000555673 	0.263797
0.00436455 	5.93829e-06 	-0.000555819 	0.264342
0.00436455 	5.93829e-06 	-0.000555819 	0.264342
0.00441472 	6.1287e-06 	-0.000555935 	0.26488
0.00441472 	6.1287e-06 	-0.000555935 	0.26488
0.00446488 	6.31853e-06 	-0.000555948 	0.265392
0.00446488 	6.31853e-06 	-0.000555948 	0.265392
0.00451505 	6.50836e-06 	-0.000555962 	0.265905
0.00451505 	6.50836e-06 	-0.000555962 	0.265905
0.00456522 	6.69719e-06 	-0.0005559 	0.266392
0.00456522 	6.69719e-06 	-0.0005559 	0.266392
0.00461538 	6.88575e-06 	-0.000555817 	0.266872
0.00461538 	6.88575e-06 	-0.000555817 	0.266872
0.00466555 	7.07376e-06 	-0.000555716 	0.267343
0.00471572 	7.26046e-06 	-0.000555571 	0.26779
0.00476589 	7.44716e-06 	-0.000555425 	0.268238
0.00476589 	7.44716e-06 	-0.000555425 	0.268238
0.00486622 	7.81626e-06 	-0.00055508 	0.269075
0.00486622 	7.81626e-06 	-0.00055508 	0.269075
0.00491639 	7.99997e-06 	-0.000554903 	0.269484
0.00496656 	8.18111e-06 	-0.000554724 	0.269867
0.00496656 	8.18111e-06 	-0.000554724 	0.269867
0.00501672 	8.36225e-06 	-0.000554546 	0.270249
0.00506689 	8.54126e-06 	-0.00055438 	0.270613
0.00511706 	8.71852e-06 	-0.000554223 	0.270963
0.00511706 	8.71852e-06 	-0.000554223 	0.270963
0.00521739 	9.06888e-06 	-0.000553947 	0.271635
0.00521739 	9.06888e-06 	-0.000553947 	0.271635
0.00526756 	9.24139e-06 	-0.000553832 	0.271953
0.00526756 	9.24139e-06 	-0.000553832 	0.271953
0.00531773 	9.413e-06 	-0.000553726 	0.272265
0.00536789 	9.57968e-06 	-0.000553665 	0.272551
0.00536789 	9.57968e-06 	-0.000553665 	0.272551
0.00541806 	9.74636e-06 	-0.000553605 	0.272837
0.00546823 	9.91026e-06 	-0.000553569 	0.273111
0.00551839 	1.00697e-05 	-0.000553571 	0.273366
0.00551839 	1.00697e-05 	-0.000553571 	0.273366
0.00556856 	1.02291e-05 	-0.000553573 	0.27362
0.00556856 	1.02291e-05 	-0.000553573 	0.27362
0.0056689 	1.05337e-05 	-0.000553677 	0.274081
0.0056689 	1.05337e-05 	-0.000553677 	0.274081
0.00571906 	1.0684e-05 	-0.000553743 	0.274305
0.00576923 	1.08266e-05 	-0.00055385 	0.274508
0.00576923 	1.08266e-05 	-0.00055385 	0.274508
0.0058194 	1.09657e-05 	-0.000553975 	0.274702
0.0058194 	1.09657e-05 	-0.000553975 	0.274702
0.00591973 	1.12339e-05 	-0.000554261 	0.275068
0.00591973 	1.12339e-05 	-0.000554261 	0.275068
0.0059699 	1.13599e-05 	-0.000554433 	0.275233
0.0059699 	1.13599e-05 	-0.000554433 	0.275233
0.00602007 	1.14859e-05 	-0.000554605 	0.275398
0.00607023 	1.16e-05 	-0.000554801 	0.275541
0.0061204 	1.1711e-05 	-0.000555005 	0.275678
0.0061204 	1.1711e-05 	-0.000555005 	0.275678
0.00617057 	1.1822e-05 	-0.000555208 	0.275815
0.00622074 	1.19202e-05 	-0.000555421 	0.275932
0.00622074 	1.19202e-05 	-0.000555421 	0.275932
0.0062709 	1.20145e-05 	-0.000555636 	0.276042
0.00632107 	1.21088e-05 	-0.000555852 	0.276152
0.00632107 	1.21088e-05 	-0.000555852 	0.276152
0.00637124 	1.21905e-05 	-0.000556062 	0.276244
0.00637124 	1.21905e-05 	-0.000556062 	0.276244
0.0064214 	1.22663e-05 	-0.000556269 	0.276328
0.0064214 	1.22663e-05 	-0.000556269 	0.276328
0.00647157 	1.23421e-05 	-0.000556476 	0.276413
0.00647157 	1.23421e-05 	-0.000556476 	0.276413
0.00652174 	1.24067e-05 	-0.000556682 	0.276483
0.00657191 	1.24619e-05 	-0.000556886 	0.276541
0.00657191 	1.24619e-05 	-0.000556886 	0.276541
0.00662207 	1.25171e-05 	-0.000557091 	0.2766
0.00667224 	1.25642e-05 	-0.000557282 	0.27665
0.00672241 	1.25964e-05 	-0.000557446 	0.276684
0.00672241 	1.25964e-05 	-0.000557446 	0.276684
0.00677258 	1.26285e-05 	-0.000557611 	0.276717
0.00682274 	1.26581e-05 	-0.000557766 	0.276749
0.00682274 	1.26581e-05 	-0.000557766 	0.276749
0.00687291 	1.26649e-05 	-0.000557844 	0.276758
0.00687291 	1.26649e-05 	-0.000557844 	0.276758
0.00692308 	1.26716e-05 	-0.000557921 	0.276767
0.00697324 	1.26784e-05 	-0.000557998 	0.276776
0.00702341 	1.26635e-05 	-0.000558026 	0.276766
0.00707358 	1.26428e-05 	-0.000558041 	0.276751
0.00707358 	1.26428e-05 	-0.000558041 	0.276751
0.00717391 	1.25902e-05 	-0.000558008 	0.276711
0.00717391 	1.25902e-05 	-0.000558008 	0.276711
0.00722408 	1.2543e-05 	-0.000557874 	0.276672
0.00722408 	1.2543e-05 	-0.000557874 	0.276672
0.00727425 	1.24958e-05 	-0.00055774 	0.276633
0.00727425 	1.24958e-05 	-0.00055774 	0.276633
0.00732441 	1.24486e-05 	-0.000557607 	0.276594
0.00732441 	1.24486e-05 	-0.000557607 	0.276594
0.00737458 	1.23781e-05 	-0.000557358 	0.276531
0.00737458 	1.23781e-05 	-0.000557358 	0.276531
0.00742475 	1.23074e-05 	-0.000557107 	0.276468
0.00747492 	1.22368e-05 	-0.000556857 	0.276404
0.00752508 	1.21543e-05 	-0.000556582 	0.276329
0.00752508 	1.21543e-05 	-0.000556582 	0.276329
0.00757525 	1.20602e-05 	-0.000556282 	0.276242
0.00762542 	1.1966e-05 	-0.000555982 	0.276155
0.00767559 	1.18716e-05 	-0.000555681 	0.276068
0.00767559 	1.18716e-05 	-0.000555681 	0.276068
0.00772575 	1.17541e-05 	-0.000555249 	0.275957
0.00777592 	1.16366e-05 	-0.000554817 	0.275845
0.00777592 	1.16366e-05 	-0.000554817 	0.275845
0.00782609 	1.1519e-05 	-0.000554385 	0.275734
0.00787625 	1.13878e-05 	-0.000553915 	0.275609
0.00787625 	1.13878e-05 	-0.000553915 	0.275609
0.00792642 	1.12466e-05 	-0.000553417 	0.275475
0.00797659 	1.11054e-05 	-0.000552918 	0.27534
0.00802676 	1.0959e-05 	-0.000552404 	0.275201
0.00802676 	1.0959e-05 	-0.000552404 	0.275201
0.00807692 	1.07934e-05 	-0.000551829 	0.275043
0.00807692 	1.07934e-05 	-0.000551829 	0.275043
0.00812709 	1.06279e-05 	-0.000551254 	0.274885
0.00817726 	1.04623e-05 	-0.00055068 	0.274728
0.00817726 	1.04623e-05 	-0.00055068 	0.274728
0.00822742 	1.02777e-05 	-0.000549979 	0.27455
0.00827759 	1.0091e-05 	-0.000549264 	0.274369
0.00827759 	1.0091e-05 	-0.000549264 	0.274369
0.00832776 	9.90421e-06 	-0.000548549 	0.274189
0.00832776 	9.90421e-06 	-0.000548549 	0.274189
0.00837793 	9.70574e-06 	-0.000547764 	0.273994
0.00842809 	9.50094e-06 	-0.000546943 	0.273791
0.00842809 	9.50094e-06 	-0.000546943 	0.273791
0.00847826 	9.29614e-06 	-0.000546121 	0.273588
0.00847826 	9.29614e-06 	-0.000546121 	0.273588
0.0085786 	8.86448e-06 	-0.000544324 	0.273149
0.0085786 	8.86448e-06 	-0.000544324 	0.273149
0.00862876 	8.64451e-06 	-0.000543397 	0.272923
0.00867893 	8.4206e-06 	-0.000542437 	0.272691
0.0087291 	8.18818e-06 	-0.000541406 	0.272442
0.00877926 	7.95577e-06 	-0.000540375 	0.272194
0.00882943 	7.72101e-06 	-0.00053932 	0.271941
0.0088796 	7.47863e-06 	-0.000538187 	0.27167
0.0088796 	7.47863e-06 	-0.000538187 	0.27167
0.00892977 	7.23625e-06 	-0.000537054 	0.2714
0.00892977 	7.23625e-06 	-0.000537054 	0.2714
0.00897993 	6.99227e-06 	-0.0005359 	0.271124
0.00897993 	6.99227e-06 	-0.0005359 	0.271124
0.0090301 	6.74216e-06 	-0.000534666 	0.270831
0.00908027 	6.49206e-06 	-0.000533432 	0.270538
0.00908027 	6.49206e-06 	-0.000533432 	0.270538
0.00913043 	6.24062e-06 	-0.000532175 	0.270239
0.0091806 	5.98477e-06 	-0.00053084 	0.269923
0.0091806 	5.98477e-06 	-0.00053084 	0.269923
0.00923077 	5.72893e-06 	-0.000529506 	0.269607
0.00928094 	5.47185e-06 	-0.00052814 	0.269284
0.00928094 	5.47185e-06 	-0.00052814 	0.269284
0.0093311 	5.21201e-06 	-0.000526704 	0.268945
0.00938127 	4.95217e-06 	-0.000525268 	0.268606
0.00938127 	4.95217e-06 	-0.000525268 	0.268606
0.00943144 	4.69124e-06 	-0.000523787 	0.268257
0.00943144 	4.69124e-06 	-0.000523787 	0.268257
0.00948161 	4.42894e-06 	-0.000522249 	0.267895
0.00948161 	4.42894e-06 	-0.000522249 	0.267895
0.00953177 	4.16663e-06 	-0.00052071 	0.267533
0.00953177 	4.16663e-06 	-0.00052071 	0.267533
0.00958194 	3.90365e-06 	-0.000519107 	0.267156
0.00958194 	3.90365e-06 	-0.000519107 	0.267156
0.00963211 	3.64023e-06 	-0.000517464 	0.26677
0.00968227 	3.37682e-06 	-0.000515821 	0.266384
0.00968227 	3.37682e-06 	-0.000515821 	0.266384
0.00973244 	3.1135e-06 	-0.000514088 	0.265978
0.00978261 	2.85019e-06 	-0.000512337 	0.265569
0.00978261 	2.85019e-06 	-0.000512337 	0.265569
0.00983278 	2.58703e-06 	-0.000510573 	0.265156
0.00983278 	2.58703e-06 	-0.000510573 	0.265156
0.00988294 	2.32489e-06 	-0.000508712 	0.264722
0.00993311 	2.06275e-06 	-0.000506851 	0.264287
0.00993311 	2.06275e-06 	-0.000506851 	0.264287
0.00998328 	1.80156e-06 	-0.000504937 	0.263842
0.0100334 	1.54153e-06 	-0.000502961 	0.263383
0.0100836 	1.28149e-06 	-0.000500984 	0.262924
0.0100836 	1.28149e-06 	-0.000500984 	0.262924
0.0101338 	1.02387e-06 	-0.000498908 	0.262444
0.0101839 	7.66762e-07 	-0.000496811 	0.261959
0.0101839 	7.66762e-07 	-0.000496811 	0.261959
0.0102341 	5.10538e-07 	-0.000494683 	0.261468
0.0102341 	5.10538e-07 	-0.000494683 	0.261468
0.0102843 	2.57066e-07 	-0.000492459 	0.260957
0.0103344 	3.5941e-09 	-0.000490235 	0.260446
0.0103344 	3.5941e-09 	-0.000490235 	0.260446
0.0103846 	-2.46866e-07 	-0.000487916 	0.259916
0.0103846 	-2.46866e-07 	-0.000487916 	0.259916
0.0104348 	-4.96084e-07 	-0.000485558 	0.259379
0.0104348 	-4.96084e-07 	-0.000485558 	0.259379
0.0104849 	-7.44259e-07 	-0.00048317 	0.258835
0.0104849 	-7.44259e-07 	-0.00048317 	0.258835
0.0105351 	-9.88686e-07 	-0.000480671 	0.25827
0.0105853 	-1.23311e-06 	-0.000478172 	0.257704
0.0105853 	-1.23311e-06 	-0.000478172 	0.257704
0.0106856 	-1.71263e-06 	-0.000472909 	0.256523
0.0106856 	-1.71263e-06 	-0.000472909 	0.256523
0.0107358 	-1.94968e-06 	-0.000470203 	0.255918
0.010786 	-2.18312e-06 	-0.000467396 	0.255294
0.010786 	-2.18312e-06 	-0.000467396 	0.255294
0.0108361 	-2.41651e-06 	-0.000464589 	0.25467
0.0108863 	-2.64381e-06 	-0.000461616 	0.254015
0.0108863 	-2.64381e-06 	-0.000461616 	0.254015
0.0109365 	-2.8711e-06 	-0.000458643 	0.253361
0.0109365 	-2.8711e-06 	-0.000458643 	0.253361
0.0109866 	-3.09389e-06 	-0.00045555 	0.252684
0.0110368 	-3.31464e-06 	-0.000452403 	0.251997
0.0110368 	-3.31464e-06 	-0.000452403 	0.251997
0.011087 	-3.53256e-06 	-0.000449179 	0.251297
0.011087 	-3.53256e-06 	-0.000449179 	0.251297
0.0111371 	-3.7464e-06 	-0.000445846 	0.250577
0.0111873 	-3.95903e-06 	-0.000442478 	0.249851
0.0111873 	-3.95903e-06 	-0.000442478 	0.249851
0.0112375 	-4.1657e-06 	-0.000438943 	0.249096
0.0112876 	-4.37236e-06 	-0.000435407 	0.248341
0.0112876 	-4.37236e-06 	-0.000435407 	0.248341
0.0113378 	-4.57179e-06 	-0.000431659 	0.247551
0.0113378 	-4.57179e-06 	-0.000431659 	0.247551
0.011388 	-4.771e-06 	-0.000427904 	0.246759
0.0114381 	-4.96397e-06 	-0.000423949 	0.245936
0.0114381 	-4.96397e-06 	-0.000423949 	0.245936
0.0114883 	-5.15546e-06 	-0.000419948 	0.245105
0.0115385 	-5.34176e-06 	-0.000415748 	0.244244
0.0115385 	-5.34176e-06 	-0.000415748 	0.244244
0.0115886 	-5.52569e-06 	-0.000411458 	0.243369
0.0116388 	-5.70544e-06 	-0.000406966 	0.242466
0.0116388 	-5.70544e-06 	-0.000406966 	0.242466
0.011689 	-5.88245e-06 	-0.000402341 	0.241543
0.0117391 	-6.05596e-06 	-0.0003975 	0.240592
0.0117893 	-6.22665e-06 	-0.000392486 	0.239617
0.0118395 	-6.39387e-06 	-0.000387237 	0.23861
0.0118395 	-6.39387e-06 	-0.000387237 	0.23861
0.0118896 	-6.55816e-06 	-0.00038179 	0.237578
0.0119398 	-6.71841e-06 	-0.000376082 	0.236509
0.0119398 	-6.71841e-06 	-0.000376082 	0.236509
0.01199 	-6.87555e-06 	-0.000370173 	0.235414
0.0120401 	-7.02771e-06 	-0.000363965 	0.234277
0.0120401 	-7.02771e-06 	-0.000363965 	0.234277
0.0120903 	-7.17685e-06 	-0.000357578 	0.233114
0.0120903 	-7.17685e-06 	-0.000357578 	0.233114
0.0121906 	-7.46036e-06 	-0.000343974 	0.230666
0.0121906 	-7.46036e-06 	-0.000343974 	0.230666
0.0122408 	-7.59326e-06 	-0.000336693 	0.229368
0.012291 	-7.72472e-06 	-0.000329335 	0.228057
0.012291 	-7.72472e-06 	-0.000329335 	0.228057
0.0123411 	-7.84668e-06 	-0.000321493 	0.226665
0.0123913 	-7.96674e-06 	-0.000313558 	0.225256
0.0123913 	-7.96674e-06 	-0.000313558 	0.225256
0.0124415 	-8.07878e-06 	-0.000305237 	0.223778
0.0124415 	-8.07878e-06 	-0.000305237 	0.223778
0.0124916 	-8.18652e-06 	-0.000296724 	0.222261
0.0124916 	-8.18652e-06 	-0.000296724 	0.222261
0.0125418 	-8.28819e-06 	-0.000287941 	0.220691
0.012592 	-8.38264e-06 	-0.000278864 	0.219057
0.0126421 	-8.47352e-06 	-0.000269644 	0.217391
0.0126421 	-8.47352e-06 	-0.000269644 	0.217391
0.0126923 	-8.55367e-06 	-0.00026004 	0.215628
0.0127425 	-8.63017e-06 	-0.000250323 	0.213831
0.0127425 	-8.63017e-06 	-0.000250323 	0.213831
0.0127926 	-8.69817e-06 	-0.000240349 	0.211957
0.0128428 	-8.75873e-06 	-0.000230196 	0.210015
0.0128428 	-8.75873e-06 	-0.000230196 	0.210015
0.0129431 	-8.85821e-06 	-0.000209449 	0.205927
0.0129431 	-8.85821e-06 	-0.000209449 	0.205927
0.0129933 	-8.89658e-06 	-0.000198909 	0.203776
0.0130435 	-8.92711e-06 	-0.000188284 	0.201551
0.0130435 	-8.92711e-06 	-0.000188284 	0.201551
0.0131438 	-8.96e-06 	-0.000166944 	0.196826
0.0131438 	-8.96e-06 	-0.000166944 	0.196826
0.013194 	-8.96346e-06 	-0.000156298 	0.194336
0.0132441 	-8.95602e-06 	-0.000145746 	0.191736
0.0132441 	-8.95602e-06 	-0.000145746 	0.191736
0.0132943 	-8.94116e-06 	-0.000135281 	0.18906
0.0133445 	-8.91576e-06 	-0.000124966 	0.186275
0.0133445 	-8.91576e-06 	-0.000124966 	0.186275
0.0133946 	-8.87796e-06 	-0.000114889 	0.183358
0.0133946 	-8.87796e-06 	-0.000114889 	0.183358
0.0134448 	-8.83145e-06 	-0.000105004 	0.180347
0.0134448 	-8.83145e-06 	-0.000105004 	0.180347
0.013495 	-8.77536e-06 	-9.53454e-05 	0.177231
0.0135452 	-8.70385e-06 	-8.61095e-05 	0.173938
0.0135452 	-8.70385e-06 	-8.61095e-05 	0.173938
0.0135953 	-8.62252e-06 	-7.7178e-05 	0.170523
0.0135953 	-8.62252e-06 	-7.7178e-05 	0.170523
0.0136455 	-8.53087e-06 	-6.85772e-05 	0.166979
0.0136455 	-8.53087e-06 	-6.85772e-05 	0.166979
0.0136957 	-8.42654e-06 	-6.04041e-05 	0.16327
0.0136957 	-8.42654e-06 	-6.04041e-05 	0.16327
0.0137458 	-8.30679e-06 	-5.27681e-05 	0.159352
0.013796 	-8.17452e-06 	-4.55723e-05 	0.155261
0.013796 	-8.17452e-06 	-4.55723e-05 	0.155261
0.0138462 	-8.02894e-06 	-3.88462e-05 	0.150985
0.0138462 	-8.02894e-06 	-3.88462e-05 	0.150985
0.0138963 	-7.86923e-06 	-3.262e-05 	0.146508
0.0139465 	-7.69007e-06 	-2.70806e-05 	0.141742
0.0139465 	-7.69007e-06 	-2.70806e-05 	0.141742
0.0139967 	-7.49513e-06 	-2.20877e-05 	0.13673
0.0139967 	-7.49513e-06 	-2.20877e-05 	0.13673
0.0140468 	-7.2841e-06 	-1.76403e-05 	0.131457
0.0140468 	-7.2841e-06 	-1.76403e-05 	0.131457
0.014097 	-7.05649e-06 	-1.3746e-05 	0.125904
0.0141472 	-6.81214e-06 	-1.04045e-05 	0.120046
0.0141472 	-6.81214e-06 	-1.04045e-05 	0.120046
0.0141973 	-6.55126e-06 	-7.60162e-06 	0.113857
0.0142475 	-6.27035e-06 	-5.37849e-06 	0.107237
0.0142977 	-5.96865e-06 	-3.60506e-06 	0.100204
0.0142977 	-5.96865e-06 	-3.60506e-06 	0.100204
0.0143478 	-5.64183e-06 	-2.23731e-06 	0.0927477
0.014398 	-5.28557e-06 	-1.23703e-06 	0.0848877
0.014398 	-5.28557e-06 	-1.23703e-06 	0.0848877
0.0144482 	-4.89672e-06 	-5.57553e-07 	0.0766826
0.0144983 	-4.47417e-06 	-1.42291e-07 	0.0682368
0.0144983 	-4.47417e-06 	-1.42291e-07 	0.0682368
0.0145485 	-4.01957e-06 	7.19714e-08 	0.0597001
0.0145485 	-4.01957e-06 	7.19714e-08 	0.0597001
0.0145987 	-3.53804e-06 	1.48908e-07 	0.0512517
0.0146488 	-3.0386e-06 	1.44835e-07 	0.0430713
0.014699 	-2.53398e-06 	1.02337e-07 	0.0353057
0.014699 	-2.53398e-06 	1.02337e-07 	0.0353057
0.0147492 	-2.04131e-06 	4.84867e-08 	0.0280491
0.0147993 	-1.58695e-06 	-7.23817e-10 	0.0213454
0.0147993 	-1.58695e-06 	-7.23817e-10 	0.0213454
0.0148495 	-1.22095e-06 	-3.95035e-08 	0.0152037
0.0148495 	-1.22095e-06 	-3.95035e-08 	0.0152037
0.0148997 	-9.66039e-07 	-5.05548e-08 	0.00961408
0.0148997 	-9.66039e-07 	-5.05548e-08 	0.00961408
0.0149498 	-6.56694e-07 	-3.51775e-08 	0.00455903
0.0149498 	-6.56694e-07 	-3.51775e-08 	0.00455903
0.015 	0 	0 	0
0.015 	0 	0 	0
