/*--------------------------------*- C++ -*----------------------------------*\
| =========                 |                                                 |
| \\      /  F ield         | OpenFOAM: The Open Source CFD Toolbox           |
|  \\    /   O peration     | Version:  v1912                                 |
|   \\  /    A nd           | Website:  www.openfoam.com                      |
|    \\/     M anipulation  |                                                 |
\*---------------------------------------------------------------------------*/
FoamFile
{
    version     2.0;
    format      ascii;
    class       volScalarField;
    location    "200";
    object      alphat;
}
// * * * * * * * * * * * * * * * * * * * * * * * * * * * * * * * * * * * * * //

dimensions      [1 -1 -1 0 0 0 0];


internalField   nonuniform List<scalar> 
10147
(
1.04172e-08
1.3907e-08
1.66917e-08
1.58494e-08
1.54769e-08
1.5473e-08
1.53942e-08
1.53693e-08
1.53527e-08
1.53752e-08
1.54021e-08
1.54841e-08
1.54865e-08
1.58604e-08
1.67112e-08
1.39302e-08
1.64289e-08
2.19068e-08
2.64555e-08
2.54478e-08
2.47051e-08
2.47127e-08
2.45699e-08
2.45303e-08
2.44978e-08
2.45439e-08
2.45899e-08
2.47406e-08
2.47296e-08
2.54766e-08
2.64846e-08
2.19412e-08
1.56885e-07
2.01185e-07
2.33428e-07
2.44009e-07
2.35546e-07
2.35682e-07
2.34161e-07
2.33773e-07
2.3341e-07
2.33945e-07
2.3443e-07
2.36054e-07
2.35877e-07
2.444e-07
2.33857e-07
2.01583e-07
1.09993e-06
1.37699e-06
1.57111e-06
1.67796e-06
1.62041e-06
1.6208e-06
1.61045e-06
1.6077e-06
1.60525e-06
1.60889e-06
1.61233e-06
1.62339e-06
1.62272e-06
1.68067e-06
1.57426e-06
1.37981e-06
4.67959e-06
5.72537e-06
6.44265e-06
6.95902e-06
6.72871e-06
6.72806e-06
6.6864e-06
6.67488e-06
6.66511e-06
6.67971e-06
6.69406e-06
6.73858e-06
6.73814e-06
6.97006e-06
6.45573e-06
5.73687e-06
1.42952e-05
1.70763e-05
1.89346e-05
2.06296e-05
1.99796e-05
1.99727e-05
1.98549e-05
1.98213e-05
1.97938e-05
1.98351e-05
1.98768e-05
2.00028e-05
2.00067e-05
2.06612e-05
1.89725e-05
1.71092e-05
3.46977e-05
4.0456e-05
4.41476e-05
4.8459e-05
4.70222e-05
4.70015e-05
4.67422e-05
4.66677e-05
4.66069e-05
4.66982e-05
4.67913e-05
4.70688e-05
4.70827e-05
4.853e-05
4.4233e-05
4.05292e-05
7.11419e-05
8.10088e-05
8.69167e-05
9.60508e-05
9.33991e-05
9.33675e-05
9.28956e-05
9.27624e-05
9.26498e-05
9.2819e-05
9.29869e-05
9.34925e-05
9.35116e-05
9.61834e-05
8.7077e-05
8.11439e-05
0.00012831
0.000142812
0.000150559
0.000167439
0.000163181
0.000163177
0.000162439
0.000162243
0.000162061
0.000162334
0.000162586
0.000163378
0.000163362
0.000167655
0.000150821
0.000143028
0.000209497
0.00022809
0.000236195
0.000264315
0.000258189
0.000258317
0.000257304
0.000257066
0.000256801
0.000257196
0.000257515
0.000258606
0.000258448
0.000264629
0.000236578
0.000228399
0.000316341
0.000337108
0.000342849
0.000386141
0.000378065
0.000378527
0.000377288
0.000377064
0.000376708
0.000377234
0.000377563
0.000378905
0.000378401
0.000386559
0.000343364
0.000337508
0.000449085
0.000468635
0.000468086
0.000530867
0.000520945
0.000522067
0.000520718
0.000520607
0.000520159
0.000520812
0.00052105
0.000522526
0.000521347
0.000531387
0.000468733
0.000469112
0.00060711
0.000620607
0.000600474
0.000695742
0.000684247
0.000686505
0.000685234
0.000685376
0.000684841
0.000685608
0.000685606
0.000687025
0.000684694
0.000696353
0.000601156
0.000621138
0.000789441
0.000790772
0.000735555
0.000868377
0.000858856
0.000866121
0.000866867
0.000868489
0.000868038
0.00086866
0.000867108
0.000866494
0.000859149
0.000868941
0.000736329
0.000791328
0.000995088
0.000967934
0.000881256
0.00104999
0.0010404
0.0010517
0.00105371
0.00105643
0.00105596
0.00105657
0.00105388
0.001052
0.0010406
0.00105056
0.00088212
0.000968213
0.00122319
0.00115581
0.00103808
0.00124724
0.00123769
0.00125418
0.0012578
0.00126192
0.00126144
0.00126202
0.00125786
0.00125436
0.00123775
0.00124778
0.00103902
0.00115596
0.00147303
0.00135971
0.00120598
0.00146116
0.00145213
0.00147562
0.00148148
0.00148749
0.00148703
0.00148753
0.00148137
0.00147561
0.00145197
0.00146162
0.00120698
0.0013597
0.001744
0.00158082
0.001385
0.00169221
0.00168434
0.00171716
0.00172606
0.00173447
0.00173404
0.00173442
0.00172569
0.00171686
0.00168386
0.0016925
0.00138604
0.00158059
0.00203538
0.0018199
0.00157531
0.00194082
0.00193492
0.00197955
0.00199215
0.00200259
0.00200212
0.00200247
0.00199146
0.00197888
0.00193399
0.00194085
0.00157634
0.00181939
0.00234708
0.00207768
0.00177729
0.00220736
0.00220428
0.00226058
0.00227564
0.00228266
0.00228163
0.00228282
0.00227475
0.00225969
0.00220279
0.002207
0.00177827
0.0020768
0.00267908
0.00235469
0.00199153
0.00249119
0.00249101
0.00254338
0.00254933
0.0025567
0.00255563
0.00255679
0.00254942
0.00254362
0.0024892
0.00249037
0.00199241
0.0023534
0.0030313
0.00264993
0.00221878
0.00278644
0.00278553
0.0028211
0.00282914
0.00283831
0.00283723
0.00283832
0.00282908
0.00282117
0.0027852
0.0027854
0.0022195
0.00264841
0.00340215
0.00295631
0.00245935
0.00306546
0.00306207
0.00310458
0.003115
0.00312634
0.00312534
0.00312625
0.00311479
0.00310445
0.00306147
0.00306602
0.00245986
0.00295575
0.00379088
0.00325008
0.00270998
0.00334216
0.00334387
0.00339405
0.00340729
0.00342109
0.00342019
0.00342087
0.00340686
0.00339369
0.00334296
0.00334258
0.0027104
0.00324919
0.00419664
0.00355204
0.00295052
0.003622
0.00362991
0.00368869
0.00370531
0.00372181
0.00372105
0.00372145
0.00370463
0.00368803
0.00362865
0.00362225
0.00295172
0.00355081
0.00461849
0.00386223
0.00316274
0.00390409
0.00391915
0.00398785
0.00400838
0.00402784
0.00402724
0.00402733
0.0040074
0.00398684
0.00391749
0.00390413
0.00316382
0.00386062
0.00505538
0.00418015
0.00337482
0.00418795
0.00421089
0.00429088
0.00431582
0.00433857
0.00433815
0.00433788
0.00431451
0.00428947
0.00420878
0.00418772
0.00337576
0.00417814
0.00550619
0.00450529
0.00358666
0.00447306
0.00450465
0.00459717
0.004627
0.00465338
0.00465321
0.00465251
0.00462533
0.00459533
0.00450204
0.00447252
0.00358742
0.00450286
0.00596972
0.00483713
0.00379825
0.00475889
0.00479993
0.00490616
0.00494133
0.00497167
0.0049718
0.00497059
0.00493927
0.00490386
0.00479678
0.004758
0.0037988
0.00483426
0.00644473
0.00517512
0.00400967
0.00504492
0.00509622
0.00521729
0.00525824
0.00529282
0.00529331
0.00529153
0.00525577
0.00521449
0.00509248
0.00504364
0.00400998
0.0051718
0.00692993
0.0055187
0.00422107
0.00533065
0.005393
0.00552998
0.00557714
0.00561623
0.00561714
0.00561473
0.00557424
0.00552667
0.00538864
0.00532893
0.00422111
0.00551492
0.007424
0.00586731
0.00443268
0.00561556
0.00568976
0.00584367
0.00589742
0.00594129
0.00594267
0.00593957
0.00589408
0.00583981
0.00568474
0.00561336
0.00443241
0.00586307
0.00792564
0.00622032
0.00464479
0.00589917
0.005986
0.00615775
0.00621848
0.00626736
0.00626926
0.00626543
0.00621468
0.00615333
0.00598027
0.00589646
0.00464419
0.00621563
0.00843351
0.00657709
0.00485776
0.00618104
0.00628123
0.00647161
0.00653966
0.00659377
0.00659624
0.00659162
0.0065354
0.00646661
0.00627478
0.00617779
0.00485681
0.00657196
0.00894625
0.00693692
0.00507201
0.00646081
0.00657502
0.00678464
0.00686032
0.00691984
0.00692291
0.00691747
0.00685557
0.00677904
0.00656783
0.006457
0.00507068
0.00693137
0.00946252
0.00729933
0.00528797
0.00673818
0.00686702
0.00709623
0.00717976
0.00724484
0.00724857
0.00724225
0.00717454
0.00709002
0.0068591
0.0067338
0.00528624
0.00729338
0.00998098
0.00766392
0.00550608
0.00701294
0.00715694
0.00740579
0.00749735
0.00756806
0.00757248
0.00756526
0.00749166
0.007399
0.00714831
0.00700797
0.00550393
0.0076576
0.0105002
0.00803035
0.00572678
0.00728494
0.00744458
0.00771279
0.00781244
0.00788878
0.00789393
0.00788578
0.00780629
0.00770542
0.00743526
0.00727935
0.00572418
0.00802368
0.0110188
0.00839833
0.00595044
0.00755406
0.00772975
0.00801671
0.0081244
0.00820629
0.00821221
0.0082031
0.00811783
0.00800879
0.00771974
0.00754786
0.00594739
0.00839136
0.0115352
0.00876768
0.00617741
0.00782013
0.0080122
0.00831702
0.00843261
0.00851984
0.00852658
0.00851648
0.00842565
0.0083086
0.00800153
0.00781332
0.00617389
0.00876043
0.012048
0.0091382
0.00640796
0.00808255
0.00829144
0.00861307
0.0087363
0.00882857
0.00883617
0.00882506
0.00872899
0.00860418
0.00828013
0.00807514
0.00640396
0.00913071
0.0125556
0.00950983
0.00664228
0.00834051
0.00856655
0.00890428
0.00903494
0.00913195
0.00914043
0.0091283
0.00902734
0.00889495
0.00855466
0.00833253
0.0066378
0.00950213
0.0130567
0.00988257
0.00688046
0.00859315
0.00883667
0.00918984
0.00932779
0.00942935
0.00943874
0.00942558
0.00931992
0.0091801
0.00882424
0.00858462
0.00687548
0.00987469
0.0135496
0.0102565
0.00712246
0.00883986
0.00910101
0.00946899
0.00961391
0.00971966
0.00972999
0.00971578
0.0096058
0.0094589
0.00908811
0.00883083
0.007117
0.0102485
0.0140327
0.0106317
0.00736814
0.00908063
0.00935925
0.00974116
0.0098924
0.0100015
0.0100129
0.00999756
0.00988412
0.00973081
0.00934602
0.0090712
0.0073622
0.0106236
0.0145043
0.0110086
0.00761724
0.00931563
0.00961151
0.0100056
0.010162
0.0102728
0.0102853
0.0102688
0.0101536
0.00999513
0.00959809
0.00930592
0.00761084
0.0110003
0.0149622
0.0113875
0.00786938
0.00954501
0.00985798
0.0102611
0.010421
0.0105332
0.0105467
0.0105292
0.0104127
0.0102506
0.00984452
0.00953514
0.00786255
0.0113792
0.0152726
0.0117691
0.00812407
0.00976871
0.0100986
0.0105062
0.0106693
0.0107825
0.0107971
0.0107784
0.010661
0.0104957
0.0100852
0.00975875
0.00811683
0.0117607
0.0154583
0.0121542
0.00838114
0.00998615
0.0103323
0.0107405
0.0109066
0.0110204
0.011036
0.0110163
0.0108984
0.0107301
0.0103191
0.00997616
0.00837351
0.0121457
0.0155752
0.0125435
0.00864041
0.0101963
0.0105574
0.0109635
0.0111323
0.0112464
0.011263
0.0112423
0.0111242
0.0109534
0.0105444
0.0101863
0.00863241
0.0125349
0.0156525
0.0129335
0.00890117
0.0103984
0.0107719
0.0111749
0.011346
0.0114599
0.0114776
0.0114559
0.0113381
0.011165
0.0107592
0.0103885
0.00889284
0.0129249
0.015707
0.013291
0.00916263
0.0105927
0.0109756
0.0113742
0.0115472
0.0116606
0.0116792
0.0116567
0.0115397
0.0113647
0.0109634
0.0105832
0.00915398
0.0132847
0.0157476
0.0136087
0.009424
0.0107783
0.0111707
0.0115614
0.0117359
0.0118484
0.011868
0.0118446
0.0117288
0.0115524
0.0111593
0.010769
0.00941509
0.0136047
0.0157807
0.0139412
0.00968473
0.0109532
0.0113565
0.011737
0.0119129
0.0120243
0.0120448
0.0120207
0.0119063
0.0117287
0.0113458
0.0109441
0.0096756
0.0139395
0.0158126
0.0143126
0.0099445
0.0111157
0.0115308
0.011901
0.0120794
0.01219
0.0122115
0.0121866
0.0120734
0.0118934
0.0115208
0.0111067
0.00993521
0.0143129
0.0158493
0.0147274
0.0102033
0.0112654
0.0116918
0.0120558
0.012235
0.0123461
0.0123686
0.0123428
0.0122295
0.0120487
0.0116824
0.0112566
0.010194
0.0147272
0.0158962
0.0151363
0.0104615
0.0114032
0.0118391
0.0121985
0.0123804
0.0124907
0.0125148
0.0124877
0.0123754
0.012192
0.0118303
0.0113948
0.0104521
0.0151275
0.0159599
0.0154712
0.0107193
0.0115313
0.0119738
0.0123285
0.0125134
0.0126238
0.0126495
0.0126209
0.0125089
0.0123226
0.0119659
0.0115234
0.0107099
0.0154623
0.0160548
0.0157951
0.0109771
0.0116523
0.0120982
0.0124474
0.0126348
0.0127451
0.0127724
0.0127424
0.0126309
0.0124424
0.0120914
0.0116451
0.0109679
0.0157863
0.0162103
0.0161077
0.0112354
0.0117694
0.0122155
0.0125582
0.0127471
0.0128568
0.0128856
0.0128544
0.0127439
0.0125541
0.0122098
0.0117632
0.0112265
0.0160989
0.0164802
0.0164078
0.0114945
0.0118862
0.012329
0.0126652
0.0128544
0.0129632
0.0129931
0.0129612
0.0128521
0.0126622
0.0123247
0.011881
0.0114859
0.0163991
0.016944
0.0166944
0.0117546
0.0120063
0.0124423
0.0127672
0.0129551
0.0130626
0.0130933
0.013061
0.0129536
0.0127654
0.0124395
0.0120024
0.0117466
0.0166856
0.0176888
0.0169654
0.0120159
0.0121335
0.0125566
0.0128675
0.0130521
0.0131571
0.0131883
0.013156
0.0130516
0.012867
0.0125554
0.0121309
0.0120084
0.0169566
0.0187494
0.0172188
0.0122781
0.0122715
0.0126762
0.0129705
0.0131502
0.0132517
0.013283
0.0132511
0.0131508
0.0129715
0.0126768
0.0122705
0.0122714
0.0172101
0.0199535
0.0174523
0.0125408
0.012424
0.0128052
0.0130806
0.0132537
0.0133508
0.0133818
0.0133508
0.0132555
0.0130831
0.0128077
0.0124247
0.0125348
0.0174437
0.0206034
0.0176641
0.012803
0.0125923
0.0129475
0.013202
0.013367
0.0134588
0.0134892
0.0134595
0.0133701
0.0132062
0.0129521
0.0125948
0.0127979
0.0176556
0.0206934
0.0178526
0.0130635
0.0127761
0.0131066
0.0133388
0.0134943
0.01358
0.0136095
0.0135815
0.0134987
0.0133449
0.0131131
0.0127799
0.0130594
0.0178442
0.0207562
0.0180162
0.0133208
0.0129664
0.0132819
0.013495
0.0136398
0.0137189
0.0137469
0.0137212
0.0136457
0.0135029
0.0132896
0.0129708
0.0133177
0.018008
0.0207922
0.0181532
0.0135732
0.0131576
0.0134641
0.0136715
0.0138039
0.0138746
0.013901
0.0138775
0.013811
0.0136808
0.0134721
0.0131625
0.0135712
0.0181451
0.0208021
0.0182607
0.0138188
0.0133492
0.0136447
0.0138572
0.013982
0.0140452
0.0140694
0.0140486
0.0139897
0.0138667
0.0136527
0.0133549
0.013818
0.0182527
0.0207861
0.0183354
0.0140554
0.0135413
0.0138213
0.0140361
0.0141575
0.0142184
0.0142405
0.0142218
0.0141648
0.0140451
0.0138293
0.0135479
0.014056
0.0183276
0.0207437
0.0183743
0.0142808
0.0137334
0.0139929
0.014202
0.014316
0.0143753
0.0143954
0.0143784
0.0143227
0.0142107
0.0140009
0.013741
0.0142827
0.0183668
0.0206737
0.0183755
0.0144924
0.0139241
0.0141584
0.0143551
0.0144574
0.0145118
0.0145294
0.0145146
0.0144637
0.0143637
0.0141665
0.013933
0.0144957
0.0183683
0.0205737
0.0183375
0.0146876
0.0141117
0.0143184
0.014496
0.0145834
0.0146299
0.0146447
0.0146326
0.0145896
0.0145047
0.0143274
0.0141217
0.0146923
0.0183309
0.0204398
0.0182597
0.0148639
0.0142935
0.0144723
0.014625
0.014695
0.0147311
0.0147429
0.0147339
0.0147012
0.0146339
0.0144823
0.0143047
0.0148701
0.0182537
0.0202618
0.0181417
0.0150178
0.0144665
0.0146179
0.0147418
0.0147924
0.0148162
0.0148247
0.0148191
0.0147987
0.014751
0.0146289
0.0144788
0.0150253
0.0181366
0.0200271
0.0179844
0.0151453
0.014627
0.0147524
0.0148449
0.0148749
0.0148853
0.0148903
0.0148882
0.0148814
0.0148545
0.0147641
0.0146404
0.0151543
0.0179802
0.0197311
0.0177893
0.0152458
0.0147707
0.0148731
0.0149341
0.0149427
0.0149381
0.0149396
0.0149413
0.0149495
0.014944
0.0148856
0.014785
0.0152562
0.0177863
0.0193762
0.0175592
0.0153182
0.0148945
0.0149774
0.0150075
0.0149949
0.0149745
0.0149725
0.0149779
0.0150019
0.0150177
0.0149905
0.0149098
0.0153302
0.0175576
1.91901e-08
1.519e-08
1.26073e-08
1.36792e-08
1.38802e-08
1.40045e-08
1.4041e-08
1.40673e-08
1.40619e-08
1.40745e-08
1.40574e-08
1.40255e-08
1.39008e-08
1.3699e-08
1.26212e-08
1.51996e-08
3.53841e-08
2.6312e-08
2.16472e-08
2.4092e-08
2.46116e-08
2.51385e-08
2.53231e-08
2.5454e-08
2.54543e-08
2.54704e-08
2.53582e-08
2.51832e-08
2.4651e-08
2.41319e-08
2.16772e-08
2.63267e-08
3.85128e-07
2.7497e-07
2.26234e-07
2.5665e-07
2.63639e-07
2.72079e-07
2.75163e-07
2.77333e-07
2.77433e-07
2.77538e-07
2.75584e-07
2.72616e-07
2.64078e-07
2.57112e-07
2.26601e-07
2.75102e-07
2.66137e-06
1.92437e-06
1.5989e-06
1.8079e-06
1.85675e-06
1.91676e-06
1.93878e-06
1.95426e-06
1.95503e-06
1.95566e-06
1.94167e-06
1.92044e-06
1.85971e-06
1.81105e-06
1.60145e-06
1.92524e-06
1.09569e-05
8.06642e-06
6.78442e-06
7.62864e-06
7.82823e-06
8.07673e-06
8.16821e-06
8.23245e-06
8.23582e-06
8.23807e-06
8.17972e-06
8.09145e-06
7.83997e-06
7.64119e-06
6.79483e-06
8.06975e-06
3.213e-05
2.40995e-05
2.05515e-05
2.29668e-05
2.35424e-05
2.4272e-05
2.45412e-05
2.47309e-05
2.47411e-05
2.47467e-05
2.45734e-05
2.43132e-05
2.35748e-05
2.30018e-05
2.05813e-05
2.41081e-05
7.44878e-05
5.6859e-05
4.91946e-05
5.46375e-05
5.59382e-05
5.76264e-05
5.82505e-05
5.86929e-05
5.87173e-05
5.87273e-05
5.83203e-05
5.77159e-05
5.60072e-05
5.47135e-05
4.92607e-05
5.68756e-05
0.000145416
0.000112766
9.89669e-05
0.000109276
0.000111732
0.000115011
0.000116225
0.000117093
0.000117141
0.000117155
0.00011635
0.000115171
0.000111853
0.000109412
9.90885e-05
0.00011279
0.000249243
0.000196019
0.000174382
0.00019151
0.000195554
0.000201131
0.0002032
0.000204697
0.00020478
0.000204794
0.000203394
0.000201381
0.000195736
0.000191721
0.000174576
0.000196045
0.000386539
0.000307805
0.000277305
0.000303051
0.000309048
0.000317624
0.00032081
0.000323144
0.000323273
0.000323279
0.000321077
0.000317968
0.00030929
0.000303342
0.000277581
0.00030782
0.00055496
0.000446742
0.000407162
0.000443016
0.00045123
0.000463446
0.000467995
0.000471372
0.000471558
0.000471543
0.000468333
0.000463881
0.00045152
0.000443385
0.000407525
0.000446727
0.00075069
0.000609949
0.000561851
0.000608961
0.000619552
0.000635986
0.000642121
0.000646737
0.00064699
0.000646939
0.000642518
0.000636497
0.000619869
0.000609395
0.000562298
0.000609879
0.000969062
0.000794078
0.000738692
0.000797872
0.000810914
0.000832089
0.000840016
0.000846063
0.000846391
0.000846287
0.000840455
0.000832655
0.00081123
0.000798354
0.000739216
0.000793921
0.00119179
0.000991994
0.000935066
0.00100678
0.00102227
0.00104866
0.00105857
0.00106624
0.00106665
0.00106647
0.00105903
0.00104925
0.00102255
0.00100729
0.000935657
0.000991633
0.00143173
0.00119472
0.00114866
0.00123231
0.00124903
0.00128101
0.00129313
0.0013031
0.00130352
0.00130325
0.00129345
0.00128143
0.00124904
0.00123267
0.00114931
0.0011942
0.00168913
0.00141075
0.00137484
0.00146047
0.00147938
0.0015167
0.00153106
0.00154301
0.00154351
0.00154312
0.00153132
0.00151704
0.00147925
0.00146078
0.00137542
0.00141008
0.00196207
0.00164019
0.00160537
0.00170035
0.00172159
0.00176422
0.00178094
0.00179491
0.0017955
0.00179497
0.00178115
0.00176449
0.00172133
0.00170061
0.00160594
0.00163934
0.00224792
0.00188187
0.00184649
0.00195216
0.00197574
0.00202366
0.00204284
0.00205883
0.00205956
0.00205883
0.00204296
0.00202383
0.00197531
0.00195237
0.00184708
0.00188082
0.00254367
0.00213433
0.00209826
0.00221468
0.00224049
0.00229346
0.00231508
0.00233304
0.00233392
0.00233297
0.00231511
0.0022935
0.00223987
0.00221482
0.00209884
0.00213307
0.00284611
0.0023961
0.00235956
0.00248641
0.00251421
0.00257152
0.00259543
0.00261522
0.00261626
0.00261506
0.00259537
0.00257144
0.00251339
0.00248646
0.00236014
0.00239462
0.00315212
0.00266573
0.00262926
0.0027656
0.00279498
0.00285544
0.00288138
0.00290283
0.00290408
0.00290258
0.00288123
0.00285522
0.00279395
0.00276557
0.0026298
0.00266402
0.00345884
0.00294166
0.00290634
0.00305017
0.00308054
0.00314278
0.00317054
0.00319347
0.00319495
0.00319311
0.00317028
0.00314243
0.00307931
0.00305008
0.00290684
0.00293972
0.00376393
0.00322206
0.0031898
0.00333783
0.00336854
0.00343133
0.00346069
0.0034849
0.00348665
0.00348442
0.00346032
0.00343083
0.00336714
0.00333772
0.00319025
0.00321992
0.00406573
0.00350495
0.00347811
0.00362647
0.00365686
0.00371902
0.00374978
0.00377505
0.00377709
0.00377443
0.00374929
0.00371836
0.00365527
0.00362635
0.00347853
0.00350263
0.00436335
0.00378839
0.00376924
0.00391442
0.00394382
0.00400425
0.00403619
0.00406227
0.00406463
0.00406151
0.00403557
0.00400342
0.00394204
0.0039143
0.00376963
0.00378592
0.00465649
0.00407096
0.00406125
0.0042004
0.00422806
0.00428572
0.00431861
0.00434525
0.00434795
0.00434434
0.00431784
0.00428471
0.00422609
0.00420028
0.00406162
0.00406836
0.00494459
0.0043514
0.00435253
0.00448341
0.00450853
0.00456247
0.00459607
0.00462302
0.00462609
0.00462195
0.00459514
0.00456127
0.00450637
0.00448328
0.0043529
0.00434871
0.00522421
0.00462871
0.00464192
0.00476273
0.00478447
0.00483386
0.00486794
0.00489498
0.00489843
0.00489374
0.00486684
0.00483246
0.0047821
0.00476259
0.00464227
0.00462595
0.00548146
0.00490213
0.0049285
0.00503794
0.00505541
0.00509958
0.00513394
0.00516085
0.00516469
0.00515945
0.00513265
0.00509797
0.00505281
0.00503776
0.00492885
0.00489934
0.00571256
0.0051712
0.0052116
0.00530885
0.00532117
0.00535962
0.00539405
0.00542066
0.0054249
0.00541909
0.00539256
0.00535778
0.00531831
0.00530862
0.00521195
0.00516842
0.00592775
0.00543581
0.00549075
0.00557553
0.00558179
0.00561419
0.00564853
0.0056747
0.00567933
0.00567295
0.00564682
0.00561211
0.00557866
0.00557523
0.00549111
0.00543306
0.00612624
0.00569621
0.00576569
0.00583823
0.00583754
0.00586375
0.00589784
0.00592347
0.00592848
0.00592154
0.0058959
0.0058614
0.0058341
0.00583782
0.00576605
0.00569351
0.0063074
0.00595303
0.00603632
0.00609734
0.00608884
0.00610891
0.00614263
0.00616765
0.00617303
0.00616553
0.00614043
0.00610626
0.00608506
0.00609681
0.0060367
0.00595042
0.00647083
0.00620735
0.00630275
0.0063534
0.00633627
0.00635041
0.00638368
0.00640808
0.0064138
0.00640577
0.0063812
0.00634745
0.00633211
0.0063527
0.00630315
0.00620486
0.00661632
0.00646069
0.00656522
0.00660701
0.00658049
0.00658912
0.00662191
0.00664572
0.00665175
0.00664322
0.00661911
0.00658581
0.0065759
0.00660612
0.00656566
0.00645834
0.00674394
0.00671498
0.00682413
0.00685885
0.00682224
0.00682599
0.0068583
0.00688163
0.00688794
0.00687893
0.00685517
0.00682229
0.00681719
0.00685773
0.00682461
0.00671279
0.00685397
0.00697225
0.00708
0.00710964
0.00706237
0.00706208
0.00709401
0.00711701
0.00712356
0.00711411
0.00709051
0.00705796
0.00705681
0.00710824
0.00708053
0.00697026
0.00694689
0.0072339
0.00733349
0.00736015
0.00730182
0.00729866
0.00733034
0.00735328
0.00736001
0.00735016
0.00732643
0.00729405
0.00729571
0.00735844
0.00733408
0.00723217
0.00702341
0.00749887
0.00758535
0.00761128
0.00754175
0.00753728
0.00756895
0.00759217
0.00759901
0.00758882
0.00756459
0.00753214
0.00753504
0.00760924
0.00758599
0.00749748
0.00708438
0.00775927
0.0078364
0.00786425
0.00778376
0.00778008
0.00781202
0.00783595
0.00784282
0.00783237
0.00780718
0.00777435
0.00777642
0.00786184
0.00783711
0.00775842
0.00713086
0.00798735
0.00808762
0.00812099
0.00803025
0.00803007
0.00806256
0.00808766
0.00809444
0.00808384
0.00805719
0.0080237
0.00802222
0.00811816
0.00808841
0.00798758
0.00716404
0.00817717
0.00834013
0.00838462
0.00828484
0.0082913
0.00832435
0.00835094
0.00835748
0.00834691
0.00831845
0.00828427
0.00827609
0.00838135
0.00834099
0.00817785
0.00718526
0.0083593
0.0085953
0.00865997
0.00855253
0.00856799
0.00860079
0.00862865
0.00863478
0.00862446
0.00859445
0.00856041
0.00854305
0.0086562
0.00859624
0.00836044
0.00719601
0.0085337
0.00885466
0.00895309
0.00883857
0.00886108
0.00889068
0.00891799
0.00892359
0.00891385
0.00888431
0.00885346
0.00882853
0.00894883
0.0088557
0.00853533
0.00719786
0.00870039
0.00911977
0.00926912
0.00914481
0.00915987
0.00917827
0.00919927
0.00920447
0.00919566
0.00917298
0.00915364
0.00913489
0.00926453
0.00912093
0.00870253
0.00719254
0.00885935
0.00939243
0.00960597
0.00946083
0.00941915
0.00940725
0.00940708
0.00941267
0.00940507
0.00940579
0.00941785
0.00945284
0.00960167
0.00939377
0.00886201
0.00718193
0.00901048
0.00967544
0.00993956
0.00974001
0.00958696
0.00956444
0.00955668
0.00956186
0.00955478
0.00956333
0.00958616
0.00973836
0.00993716
0.00967708
0.00901368
0.00716818
0.00915364
0.00997394
0.010188
0.00993488
0.00975205
0.00971792
0.00970196
0.00970664
0.00970018
0.00971719
0.0097518
0.00993389
0.0101914
0.00997606
0.00915739
0.00715378
0.00928857
0.0102971
0.0104045
0.0101294
0.00991445
0.00986773
0.00984292
0.00984702
0.00984129
0.00986741
0.00991479
0.0101292
0.0104088
0.0102999
0.00929289
0.00714166
0.00941481
0.010659
0.0106227
0.0103237
0.0100741
0.0100138
0.00997956
0.00998298
0.00997809
0.010014
0.0100751
0.0103242
0.0106281
0.010663
0.00941972
0.00713464
0.00953563
0.0110778
0.0108427
0.0105174
0.0102311
0.0101562
0.0101119
0.0101145
0.0101106
0.0101568
0.0102328
0.0105188
0.0108493
0.0110834
0.00954112
0.00713513
0.00965664
0.0115694
0.0110645
0.0107107
0.0103854
0.010295
0.01024
0.0102418
0.010239
0.0102962
0.0103879
0.010713
0.0110724
0.0115772
0.00966268
0.00714526
0.00977782
0.0121299
0.0112878
0.0109034
0.0105373
0.0104305
0.0103645
0.0103652
0.0103637
0.0104323
0.0105406
0.0109067
0.0112969
0.0121399
0.00978438
0.00716692
0.00989938
0.0126945
0.0115111
0.0110957
0.0106872
0.0105634
0.010486
0.0104856
0.0104855
0.0105659
0.0106914
0.0111001
0.0115213
0.0127059
0.00990642
0.00720167
0.0100216
0.0130539
0.0117331
0.0112872
0.0108356
0.0106943
0.0106053
0.0106037
0.0106052
0.0106975
0.0108408
0.0112927
0.0117442
0.0130631
0.0100291
0.00725083
0.010145
0.0132799
0.0119533
0.0114777
0.0109826
0.0108233
0.0107227
0.0107198
0.0107228
0.0108273
0.0109887
0.0114843
0.0119651
0.0132897
0.0101529
0.0073155
0.0102701
0.0134995
0.012172
0.0116669
0.0111282
0.0109505
0.010838
0.0108338
0.0108385
0.0109551
0.0111351
0.0116745
0.0121844
0.0135099
0.0102784
0.00739663
0.0103977
0.013712
0.0123906
0.0118546
0.0112727
0.0110763
0.010952
0.0109463
0.0109528
0.0110817
0.0112806
0.0118634
0.0124036
0.0137229
0.0104064
0.00749498
0.0105289
0.0139169
0.0126091
0.0120412
0.0114166
0.0112015
0.0110653
0.0110581
0.0110666
0.0112075
0.0114254
0.0120512
0.0126227
0.0139283
0.0105379
0.00761107
0.0106647
0.014114
0.0128275
0.0122271
0.0115607
0.0113268
0.0111791
0.0111702
0.0111808
0.0113337
0.0115706
0.0122383
0.0128418
0.0141258
0.010674
0.00774507
0.0108062
0.0143034
0.0130461
0.0124132
0.0117054
0.0114529
0.0112939
0.0112834
0.011296
0.0114607
0.0117163
0.0124256
0.0130611
0.0143156
0.0108158
0.00789688
0.0109547
0.0144852
0.0132655
0.0126008
0.011858
0.011588
0.0114177
0.0114056
0.0114204
0.0115968
0.0118703
0.0126146
0.0132811
0.0144977
0.0109645
0.00806661
0.0111114
0.0146596
0.0134859
0.0127947
0.0120222
0.0117358
0.0115555
0.0115417
0.0115589
0.0117457
0.0120358
0.0128098
0.0135023
0.0146723
0.0111213
0.00825497
0.0112775
0.0148265
0.0137082
0.0129962
0.0121997
0.0118986
0.0117097
0.0116941
0.0117138
0.0119097
0.0122147
0.0130126
0.0137252
0.0148394
0.0112875
0.0084633
0.0114544
0.0149855
0.0139318
0.0132059
0.0123924
0.0120789
0.011883
0.0118657
0.0118877
0.0120911
0.0124087
0.0132233
0.0139494
0.0149985
0.0114644
0.00869364
0.0116433
0.0151358
0.0141573
0.0134233
0.0126009
0.0122781
0.0120773
0.0120584
0.0120827
0.0122913
0.0126184
0.0134415
0.0141751
0.0151486
0.0116533
0.00894851
0.0118456
0.0152762
0.0143812
0.0136462
0.0128242
0.0124954
0.012292
0.0122717
0.0122981
0.0125095
0.0128426
0.0136648
0.0143988
0.0152888
0.0118554
0.00923032
0.0120621
0.0154063
0.0145994
0.0138711
0.0130601
0.0127291
0.0125256
0.0125041
0.0125321
0.0127439
0.0130791
0.0138897
0.0146167
0.0154185
0.0120718
0.00954127
0.0122937
0.0155254
0.014807
0.0140937
0.0133058
0.0129771
0.0127763
0.0127539
0.0127832
0.0129923
0.0133251
0.0141117
0.0148237
0.0155371
0.012303
0.00988313
0.0125405
0.0156333
0.0150002
0.0143065
0.0135562
0.0132354
0.0130407
0.0130178
0.0130479
0.0132507
0.0135754
0.0143239
0.015016
0.0156443
0.0125493
0.010257
0.0128017
0.0157295
0.0151759
0.0145072
0.0138048
0.0134975
0.013313
0.0132902
0.0133203
0.0135126
0.0138234
0.0145238
0.0151907
0.0157398
0.01281
0.0106629
0.0130762
0.0158138
0.0153315
0.0146932
0.0140454
0.0137567
0.0135858
0.0135636
0.0135929
0.0137712
0.0140633
0.0147092
0.0153452
0.0158232
0.0130838
0.0110995
0.0133619
0.0158857
0.0154651
0.0148624
0.0142732
0.0140071
0.0138524
0.0138316
0.0138594
0.0140208
0.0142898
0.0148777
0.0154775
0.0158942
0.0133687
0.0115638
0.0136557
0.015945
0.0155752
0.015011
0.0144814
0.014244
0.0141075
0.0140885
0.0141142
0.0142569
0.0144969
0.0150248
0.0155864
0.0159523
0.0136616
0.0120505
0.013954
0.0159911
0.015661
0.0151362
0.0146677
0.014462
0.0143468
0.01433
0.014353
0.0144739
0.014682
0.0151488
0.0156711
0.0159973
0.0139589
0.0125518
0.0142521
0.0160236
0.0157224
0.0152372
0.0148303
0.0146565
0.0145639
0.0145503
0.0145698
0.0146677
0.0148435
0.0152487
0.0157312
0.0160286
0.0142559
0.0130581
0.0145444
0.0160417
0.0157593
0.0153136
0.0149675
0.0148258
0.0147556
0.0147452
0.0147611
0.0148361
0.0149797
0.0153241
0.015767
0.0160456
0.0145471
0.0135587
0.0148247
0.0160458
0.0157727
0.0153657
0.0150792
0.0149692
0.0149204
0.0149133
0.0149256
0.0149788
0.0150905
0.0153755
0.0157794
0.0160484
0.0148262
0.0140431
0.0150873
0.0160345
0.0157636
0.0153942
0.0151647
0.0150861
0.0150578
0.0150541
0.0150627
0.015095
0.0151753
0.0154033
0.0157694
0.0160359
0.0150877
1.10747e-08
1.45667e-08
1.74997e-08
1.66529e-08
1.63351e-08
1.64237e-08
1.63584e-08
1.63629e-08
1.63404e-08
1.63697e-08
1.63665e-08
1.64349e-08
1.63431e-08
1.66612e-08
1.7519e-08
1.45875e-08
1.61176e-08
2.30652e-08
2.77869e-08
2.62418e-08
2.57783e-08
2.5927e-08
2.58332e-08
2.58457e-08
2.581e-08
2.58542e-08
2.58424e-08
2.59398e-08
2.57853e-08
2.62525e-08
2.78162e-08
2.31014e-08
1.21008e-07
1.99276e-07
2.44033e-07
2.43509e-07
2.36943e-07
2.37967e-07
2.36776e-07
2.36685e-07
2.36363e-07
2.3682e-07
2.36946e-07
2.38205e-07
2.37139e-07
2.43745e-07
2.44475e-07
1.99734e-07
8.11461e-07
1.34003e-06
1.63804e-06
1.66455e-06
1.61607e-06
1.62167e-06
1.61294e-06
1.61179e-06
1.60966e-06
1.61281e-06
1.61427e-06
1.62352e-06
1.61769e-06
1.66641e-06
1.64128e-06
1.34324e-06
3.39701e-06
5.51955e-06
6.69843e-06
6.87935e-06
6.67686e-06
6.69501e-06
6.65843e-06
6.65237e-06
6.64393e-06
6.65667e-06
6.66411e-06
6.70291e-06
6.68397e-06
6.88736e-06
6.71184e-06
5.53264e-06
1.02735e-05
1.63437e-05
1.96195e-05
2.03173e-05
1.97312e-05
1.97709e-05
1.96647e-05
1.9644e-05
1.96206e-05
1.96565e-05
1.96813e-05
1.97941e-05
1.97524e-05
2.03409e-05
1.96582e-05
1.63813e-05
2.47513e-05
3.8479e-05
4.55622e-05
4.75231e-05
4.62061e-05
4.62712e-05
4.60326e-05
4.59802e-05
4.59298e-05
4.60084e-05
4.60703e-05
4.63236e-05
4.62548e-05
4.7577e-05
4.5649e-05
3.85635e-05
5.04668e-05
7.66299e-05
8.93119e-05
9.37713e-05
9.13128e-05
9.14011e-05
9.0959e-05
9.08532e-05
9.07629e-05
9.0906e-05
9.10295e-05
9.1499e-05
9.1405e-05
9.38732e-05
8.94739e-05
7.67887e-05
9.06863e-05
0.000134466
0.00015402
0.000162742
0.000158758
0.000158874
0.00015817
0.000157993
0.000157852
0.000158078
0.000158284
0.000159032
0.000158909
0.000162909
0.000154282
0.000134726
0.000147822
0.000213933
0.000240573
0.000255851
0.000250072
0.000250249
0.000249261
0.000249007
0.000248811
0.000249132
0.000249424
0.000250478
0.000250291
0.000256095
0.000240955
0.000214316
0.000223288
0.000315199
0.000347766
0.000372421
0.000364739
0.000365075
0.000363827
0.000363518
0.000363267
0.000363684
0.000364041
0.000365376
0.000365029
0.000372747
0.000348277
0.000315716
0.000317656
0.000437101