/*--------------------------------*- C++ -*----------------------------------*\
| =========                 |                                                 |
| \\      /  F ield         | OpenFOAM: The Open Source CFD Toolbox           |
|  \\    /   O peration     | Version:  v1912                                 |
|   \\  /    A nd           | Website:  www.openfoam.com                      |
|    \\/     M anipulation  |                                                 |
\*---------------------------------------------------------------------------*/
FoamFile
{
    version     2.0;
    format      ascii;
    class       volScalarField;
    location    "10";
    object      alphat;
}
// * * * * * * * * * * * * * * * * * * * * * * * * * * * * * * * * * * * * * //

dimensions      [1 -1 -1 0 0 0 0];


internalField   nonuniform List<scalar> 
34128
(
2.13352e-09
2.09726e-09
2.04016e-09
1.96179e-09
1.89294e-09
1.87314e-09
1.83867e-09
1.82706e-09
1.91373e-09
2.04993e-09
2.16791e-09
2.18877e-09
2.52976e-09
2.50891e-09
2.46233e-09
2.3555e-09
2.24759e-09
2.22385e-09
2.20182e-09
2.18876e-09
2.26416e-09
2.39542e-09
2.51724e-09
2.55048e-09
1.22826e-08
1.25213e-08
1.26137e-08
1.18812e-08
1.09608e-08
1.08422e-08
1.10219e-08
1.09733e-08
1.09258e-08
1.11035e-08
1.14216e-08
1.17132e-08
7.86689e-08
8.06919e-08
8.17265e-08
7.67551e-08
7.03408e-08
6.95645e-08
7.11079e-08
7.08424e-08
6.99676e-08
7.04569e-08
7.2116e-08
7.41578e-08
3.36105e-07
3.45334e-07
3.50318e-07
3.29004e-07
3.01217e-07
2.9778e-07
3.04755e-07
3.03763e-07
2.99367e-07
3.00684e-07
3.07328e-07
3.1614e-07
1.05065e-06
1.08076e-06
1.09804e-06
1.0322e-06
9.45008e-07
9.33728e-07
9.56313e-07
9.53631e-07
9.38071e-07
9.40073e-07
9.59505e-07
9.86846e-07
2.62411e-06
2.70199e-06
2.75029e-06
2.59016e-06
2.37276e-06
2.34291e-06
2.4012e-06
2.39546e-06
2.35108e-06
2.34981e-06
2.39394e-06
2.46078e-06
5.52565e-06
5.69393e-06
5.80824e-06
5.48513e-06
5.03106e-06
4.96416e-06
5.09078e-06
5.08036e-06
4.97312e-06
4.95492e-06
5.03609e-06
5.17173e-06
1.01574e-05
1.04714e-05
1.07063e-05
1.01467e-05
9.32469e-06
9.19372e-06
9.43281e-06
9.41592e-06
9.1907e-06
9.12604e-06
9.25e-06
9.48616e-06
1.67147e-05
1.72336e-05
1.76607e-05
1.68065e-05
1.5484e-05
1.52548e-05
1.56565e-05
1.56311e-05
1.52127e-05
1.50538e-05
1.52128e-05
1.55743e-05
2.51139e-05
2.58896e-05
2.65885e-05
2.54143e-05
2.34835e-05
2.31185e-05
2.37303e-05
2.3694e-05
2.29951e-05
2.26802e-05
2.28504e-05
2.33466e-05
3.50122e-05
3.6081e-05
3.71275e-05
3.56473e-05
3.30447e-05
3.25068e-05
3.33649e-05
3.33154e-05
3.22493e-05
3.17122e-05
3.18568e-05
3.24763e-05
4.4784e-05
4.60543e-05
4.74407e-05
4.59617e-05
4.30074e-05
4.23524e-05
4.3436e-05
4.33704e-05
4.18689e-05
4.09569e-05
4.08427e-05
4.14026e-05
5.37076e-05
5.52224e-05
5.69462e-05
5.53219e-05
5.1852e-05
5.10043e-05
5.22787e-05
5.22068e-05
5.03433e-05
4.91972e-05
4.90135e-05
4.96086e-05
6.27582e-05
6.45226e-05
6.6612e-05
6.48841e-05
6.09069e-05
5.98373e-05
6.12897e-05
6.1212e-05
5.89625e-05
5.75703e-05
5.73159e-05
5.79301e-05
7.18066e-05
7.38208e-05
7.63022e-05
7.45223e-05
7.00596e-05
6.8742e-05
7.03541e-05
7.02691e-05
6.76112e-05
6.59618e-05
6.56349e-05
6.625e-05
8.07289e-05
8.29881e-05
8.58852e-05
8.41123e-05
7.91977e-05
7.76102e-05
7.93588e-05
7.92633e-05
7.61768e-05
7.42614e-05
7.38603e-05
7.44568e-05
8.94203e-05
9.19152e-05
9.52483e-05
9.35469e-05
8.8225e-05
8.63514e-05
8.82102e-05
8.80986e-05
8.45645e-05
8.2376e-05
8.18986e-05
8.24568e-05
9.78e-05
0.000100518
0.000104305
0.000102743
9.70675e-05
9.48973e-05
9.68383e-05
9.67026e-05
9.27013e-05
9.02332e-05
8.96776e-05
9.01781e-05
0.00010582
0.000108745
0.000113003
0.00011165
0.000105683
0.00010321
0.000105206
0.000105035
0.000100543
9.77881e-05
9.71524e-05
9.75772e-05
0.000113475
0.00011659
0.00012134
0.000120269
0.000114074
0.000111296
0.000113321
0.0001131
0.000108082
0.000105031
0.000104315
0.000104649
0.000120814
0.000124097
0.000129365
0.000128658
0.000122305
0.000119221
0.000121251
0.000120959
0.000115363
0.000111999
0.000111203
0.000111435
0.000127931
0.000131352
0.000137172
0.000136927
0.000130502
0.000127113
0.000129128
0.000128732
0.000122481
0.000118775
0.000117896
0.00011802
0.000134943
0.000138457
0.000144859
0.000145205
0.00013883
0.000135151
0.000137124
0.000136575
0.000129569
0.000125472
0.0001245
0.000124513
0.000141948
0.000145481
0.000152483
0.000153584
0.000147451
0.000143523
0.000145415
0.000144644
0.000136766
0.000132207
0.000131112
0.000131014
0.000148976
0.00015242
0.000160001
0.000162066
0.000156464
0.000152378
0.000154112
0.000153038
0.000144174
0.000139056
0.000137776
0.000137568
0.000155934
0.000159159
0.00016724
0.000170508
0.000165845
0.000161729
0.000163206
0.000161743
0.000151809
0.000146017
0.000144445
0.000144125
0.000162573
0.000165434
0.000173863
0.000178562
0.000175333
0.000171391
0.000172485
0.000170562
0.000159553
0.000152966
0.000150951
0.00015051
0.000168415
0.000170795
0.000179328
0.000185568
0.000184297
0.000180793
0.000181361
0.000178954
0.00016707
0.000159614
0.000156961
0.000156382
0.000172761
0.00017465
0.000182992
0.00019063
0.000191783
0.000189002
0.000188909
0.00018606
0.000173736
0.000165449
0.000161953
0.000161205
0.000175068
0.000176679
0.000184705
0.000193136
0.000196865
0.000195103
0.000194209
0.000190996
0.000178802
0.000169829
0.000165373
0.000164409
0.000175761
0.000177193
0.000184782
0.000193711
0.000199174
0.000198568
0.000196806
0.000193357
0.00018175
0.000172354
0.00016725
0.000166069
0.000174904
0.000176223
0.00018325
0.000192436
0.00019921
0.00019935
0.000197091
0.000193544
0.000182583
0.00017318
0.000167711
0.000166305
0.000172581
0.000173859
0.000180239
0.000189407
0.000197206
0.000198
0.000195353
0.000191796
0.000181658
0.000172488
0.00016682
0.000165191
0.000168973
0.000170267
0.000175959
0.000184818
0.000193307
0.000194665
0.000191725
0.000188242
0.000179103
0.000170388
0.000164693
0.000162857
0.000164364
0.00016571
0.000170692
0.000178975
0.000187755
0.000189551
0.000186431
0.0001831
0.000175089
0.000167039
0.000161518
0.000159503
0.000159134
0.000160525
0.000164817
0.000172279
0.000180923
0.000182997
0.000179824
0.000176708
0.000169879
0.000162682
0.00015754
0.000155411
0.000153738
0.000155101
0.000158743
0.000165212
0.000173307
0.000175484
0.00017239
0.000169524
0.000163837
0.000157638
0.000153076
0.00015093
0.00014869
0.000149855
0.000152896
0.00015831
0.000165506
0.000167617
0.000164725
0.000162108
0.000157432
0.000152305
0.000148482
0.000146462
0.000144539
0.000145226
0.000147722
0.000152135
0.000158189
0.000160092
0.000157498
0.000155095
0.000151213
0.000147146
0.000144138
0.000142448
0.000141869
0.000141697
0.0001437
0.000147268
0.000152066
0.00015366
0.00015143
0.000149172
0.000145793
0.000142677
0.000140478
0.000139374
0.000141312
0.000139781
0.000141335
0.000144314
0.000147874
0.00014911
0.000147291
0.00014506
0.000141841
0.000139466
0.000137979
0.000137767
0.000143588
0.000140059
0.000141192
0.000143934
0.000146416
0.000147316
0.00014591
0.000143531
0.000140084
0.000138145
0.00013717
0.000138222
0.000149598
0.000143232
0.000143953
0.000146914
0.000148619
0.000149261
0.000148198
0.000145455
0.00014135
0.000139445
0.000138675
0.000141459
0.000160588
0.000150233
0.000150533
0.000154298
0.000155618
0.000156117
0.00015531
0.000151919
0.000146648
0.000144277
0.000143289
0.000148427
0.000178424
0.000162404
0.000162249
0.000167613
0.000169034
0.000169554
0.000168899
0.000164443
0.000157343
0.000153872
0.000152101
0.000160484
0.000206014
0.000181788
0.00018112
0.000189256
0.000191419
0.000192208
0.000191549
0.000185345
0.000175449
0.000170031
0.000166721
0.000179697
0.000247778
0.000211508
0.000210263
0.000223083
0.000226941
0.000228415
0.000227482
0.000218331
0.000204119
0.000195532
0.000189649
0.000209282
0.000308059
0.000255044
0.000253549
0.000274365
0.000282197
0.000285237
0.000283352
0.000269206
0.000248222
0.00023456
0.000224678
0.00025336
0.000395018
0.000317454
0.000315831
0.000347482
0.000364618
0.000370519
0.000366409
0.000343985
0.000312557
0.000290995
0.000274758
0.000310883
0.00049068
0.000388055
0.000377942
0.000419315
0.00045175
0.000453575
0.000450273
0.000439356
0.000405638
0.000363696
0.000325059
0.00037094
0.000594629
0.000469536
0.000456418
0.000508976
0.000550534
0.000552733
0.000548865
0.000537202
0.000497163
0.000439774
0.000389263
0.000447465
0.000715291
0.000567779
0.000551271
0.000615081
0.000666379
0.000668906
0.000664609
0.000653355
0.000607429
0.000533335
0.000469922
0.000539883
0.000853424
0.000681969
0.000661571
0.000737754
0.000799648
0.000802591
0.000797976
0.000787807
0.00073649
0.000642915
0.000565806
0.000647315
0.00100905
0.000812951
0.000788157
0.000877536
0.000950337
0.000953799
0.000949063
0.000940639
0.000884409
0.000768533
0.000676498
0.000770611
0.00118099
0.00096104
0.000931365
0.00103384
0.00111712
0.00112124
0.00111671
0.00111064
0.00105012
0.000910293
0.000802749
0.000910147
0.00136679
0.00112542
0.00109042
0.00120471
0.00129727
0.00130225
0.00129841
0.00129517
0.00123106
0.00106724
0.000944537
0.00106527
0.00156281
0.00130401
0.00126329
0.00138688
0.00148677
0.00149299
0.00149057
0.00149023
0.00142331
0.00123722
0.00110079
0.00123417
0.00176457
0.00149354
0.00144677
0.00157598
0.00168079
0.00168895
0.00168856
0.00169093
0.00162194
0.001417
0.0012693
0.00141392
0.00196718
0.00168978
0.00163669
0.00176704
0.00187416
0.00188523
0.00188737
0.00189192
0.00182153
0.00160247
0.00144688
0.00160067
0.00216583
0.00188798
0.00182839
0.00195501
0.00206202
0.00207704
0.00208207
0.00208801
0.00201678
0.00178913
0.00162959
0.00179003
0.00235618
0.00208334
0.00201715
0.00213536
0.00224021
0.00226019
0.00226828
0.00227463
0.00220301
0.00197245
0.00181309
0.00197745
0.00253467
0.00227144
0.00219868
0.00230439
0.00240567
0.00243135
0.00244245
0.00244817
0.00237652
0.00214834
0.00199313
0.00215867
0.0026987
0.0024486
0.00236948
0.00245954
0.00255661
0.00258819
0.00260199
0.00260616
0.0025348
0.00231342
0.00216581
0.00233
0.00284665
0.00261207
0.00252697
0.00259938
0.00269202
0.0027293
0.00274532
0.00274726
0.00267649
0.00246519
0.00232794
0.00248857
0.00297781
0.00276008
0.00266959
0.00272351
0.00281169
0.00285414
0.00287173
0.0028712
0.00280102
0.00260209
0.00247716
0.00263239
0.00309225
0.00289176
0.00279671
0.0028325
0.00291606
0.00296284
0.00298127
0.00297865
0.00290799
0.00272344
0.00261195
0.00276036
0.00319069
0.00300701
0.00290849
0.00292771
0.00300604
0.00305605
0.00307457
0.00306975
0.00299848
0.00282931
0.00273166
0.0028722
0.00327401
0.0031063
0.00300564
0.00301041
0.00308279
0.00313477
0.00315266
0.00314527
0.00307402
0.00292035
0.00283633
0.00296829
0.00334284
0.00319052
0.00308921
0.00308172
0.00314764
0.00320021
0.0032168
0.00320641
0.00313622
0.00299764
0.00292651
0.00304954
0.00339965
0.00326116
0.00316048
0.00314286
0.00320197
0.00325369
0.00326839
0.0032552
0.00318701
0.00306245
0.00300325
0.00311722
0.00344567
0.00332035
0.00322077
0.00319512
0.0032471
0.00329653
0.00330888
0.00329332
0.0032281
0.00311619
0.00306778
0.0031728
0.0034821
0.00337021
0.00327138
0.00323972
0.00328429
0.00333
0.0033396
0.0033222
0.00326068
0.00316021
0.00312144
0.00321786
0.0035101
0.00341027
0.00331397
0.00327774
0.00331464
0.00335529
0.00336182
0.0033432
0.00328595
0.00319582
0.00316569
0.00325392
0.00353066
0.00344187
0.00334997
0.00331007
0.00333912
0.00337355
0.00337664
0.00335753
0.00330504
0.00322424
0.00320185
0.00328238
0.0035446
0.00346613
0.00338033
0.00333735
0.00335859
0.00338583
0.003385
0.00336623
0.00331891
0.00324656
0.00323099
0.0033045
0.00355257
0.00348379
0.00340418
0.00336005
0.0033738
0.00339205
0.00338763
0.00337014
0.00332827
0.00326376
0.00325421
0.00332128
0.003555
0.00349531
0.00342232
0.00337845
0.0033842
0.00339317
0.00338512
0.00336995
0.00333361
0.00327662
0.00327222
0.00333346
0.00355204
0.0035009
0.00343484
0.00339269
0.00338999
0.0033892
0.00337773
0.00336597
0.00333515
0.00328564
0.00328543
0.00334143
2.29801e-09
2.27545e-09
2.22559e-09
2.12187e-09
2.0182e-09
1.99465e-09
1.97404e-09
1.96606e-09
2.0509e-09
2.19211e-09
2.32054e-09
2.34696e-09
2.60966e-09
2.60862e-09
2.5844e-09
2.45708e-09
2.30256e-09
2.26246e-09
2.25766e-09
2.25172e-09
2.31662e-09
2.44983e-09
2.58163e-09
2.61155e-09
1.0945e-08
1.13309e-08
1.17391e-08
1.10549e-08
9.83109e-09
9.45359e-09
9.72666e-09
9.75316e-09
9.52957e-09
9.6577e-09
9.98982e-09
1.01176e-08
6.78609e-08
7.08578e-08
7.41737e-08
6.97413e-08
6.13261e-08
5.86655e-08
6.07924e-08
6.10466e-08
5.88865e-08
5.89942e-08
6.0713e-08
6.15268e-08
2.88225e-07
3.01439e-07
3.16261e-07
2.97613e-07
2.61495e-07
2.49901e-07
2.5921e-07
2.60391e-07
2.50436e-07
2.50153e-07
2.57112e-07
2.60615e-07
8.98193e-07
9.39938e-07
9.87659e-07
9.31176e-07
8.1908e-07
7.82381e-07
8.11592e-07
8.15417e-07
7.82598e-07
7.79935e-07
8.00693e-07
8.11555e-07
2.23654e-06
2.34097e-06
2.46368e-06
2.32941e-06
2.05352e-06
1.96084e-06
2.03362e-06
2.04322e-06
1.95653e-06
1.94491e-06
1.99349e-06
2.01973e-06
4.69404e-06
4.91246e-06
5.17825e-06
4.91449e-06
4.34644e-06
4.14953e-06
4.30154e-06
4.32125e-06
4.12761e-06
4.09139e-06
4.18489e-06
4.23667e-06
8.59912e-06
8.9942e-06
9.49514e-06
9.05222e-06
8.03927e-06
7.67518e-06
7.95052e-06
7.98461e-06
7.60742e-06
7.51815e-06
7.67114e-06
7.75706e-06
1.41024e-05
1.47361e-05
1.55767e-05
1.49247e-05
1.33199e-05
1.27196e-05
1.31626e-05
1.32134e-05
1.25589e-05
1.23753e-05
1.25938e-05
1.2716e-05
2.11204e-05
2.20396e-05
2.33188e-05
2.24609e-05
2.01561e-05
1.9256e-05
1.99012e-05
1.99673e-05
1.89378e-05
1.86106e-05
1.88891e-05
1.90402e-05
2.93558e-05
3.05822e-05
3.23751e-05
3.13517e-05
2.83008e-05
2.70536e-05
2.79174e-05
2.7993e-05
2.65025e-05
2.59827e-05
2.63047e-05
2.64678e-05
3.73349e-05
3.87733e-05
4.09433e-05
3.99973e-05
3.65862e-05
3.50701e-05
3.60906e-05
3.61677e-05
3.42398e-05
3.34341e-05
3.36202e-05
3.36754e-05
4.47153e-05
4.63688e-05
4.89513e-05
4.79924e-05
4.40952e-05
4.22803e-05
4.34242e-05
4.34901e-05
4.11532e-05
4.01647e-05
4.03713e-05
4.04052e-05
5.21873e-05
5.40321e-05
5.7026e-05
5.61081e-05
5.17851e-05
4.96738e-05
5.0909e-05
5.09484e-05
4.81893e-05
4.7015e-05
4.72481e-05
4.7258e-05
5.96406e-05
6.16446e-05
6.50392e-05
6.4222e-05
5.95551e-05
5.71611e-05
5.84501e-05
5.84435e-05
5.52539e-05
5.38918e-05
5.41552e-05
5.41383e-05
6.69727e-05
6.9096e-05
7.28711e-05
7.2217e-05
6.73068e-05
6.46561e-05
6.59576e-05
6.58814e-05
6.22576e-05
6.07074e-05
6.10024e-05
6.09564e-05
7.40979e-05
7.62944e-05
8.04207e-05
7.99926e-05
7.49568e-05
7.20874e-05
7.33578e-05
7.31844e-05
6.91258e-05
6.73882e-05
6.77133e-05
6.76369e-05
8.09517e-05
8.31698e-05
8.76101e-05
8.7471e-05
8.24414e-05
7.94024e-05
8.05972e-05
8.02947e-05
7.58024e-05
7.38778e-05
7.42292e-05
7.4122e-05
8.74969e-05
8.96795e-05
9.43913e-05
9.46052e-05
8.97262e-05
8.65759e-05
8.76503e-05
8.71817e-05
8.22548e-05
8.01418e-05
8.05129e-05
8.0377e-05
9.3733e-05
9.58157e-05
0.000100753
0.00010139
9.68185e-05
9.36228e-05
9.4531e-05
9.38524e-05
8.84834e-05
8.61757e-05
8.65564e-05
8.63974e-05
9.97028e-05
0.00010161
0.000106727
0.000107868
0.000103779
0.000100611
0.000101304
0.000100362
9.45307e-05
9.20123e-05
9.23868e-05
9.22153e-05
0.000105489
0.00010713
0.000112376
0.000114122
0.000110722
0.000107666
0.000108084
0.000106812
0.000100485
9.77246e-05
9.80648e-05
9.78977e-05
0.000111192
0.000112463
0.00011778
0.000120256
0.00011779
0.000114947
0.000115013
0.000113337
0.000106469
0.000103414
0.000103672
0.000103531
0.000116898
0.000117687
0.000123003
0.000126353
0.000125117
0.000122607
0.000122228
0.000120061
0.000112612
0.000109189
0.000109285
0.000109196
0.000122631
0.000122837
0.00012807
0.000132438
0.00013277
0.000130735
0.000129806
0.000127057
0.000119016
0.000115128
0.000114947
0.000114929
0.000128326
0.000127876
0.00013293
0.00013844
0.000140696
0.000139317
0.00013772
0.000134298
0.000125704
0.000121247
0.000120636
0.000120696
0.000133797
0.000132677
0.00013744
0.000144152
0.000148667
0.000148132
0.000145751
0.000141586
0.000132583
0.00012747
0.000126251
0.000126369
0.000138698
0.000137003
0.000141337
0.000149172
0.000156093
0.000156576
0.000153322
0.000148446
0.000139354
0.000133589
0.000131599
0.000131705
0.000142524
0.00014049
0.000144242
0.000152917
0.000162126
0.000163755
0.0001596
0.000154139
0.000145461
0.000139228
0.000136385
0.000136327
0.000144877
0.000142832
0.000146044
0.000154981
0.000166034
0.000168843
0.000163838
0.000157976
0.000150252
0.000143891
0.000140212
0.000139806
0.000146079
0.000144196
0.000146906
0.000155776
0.000167827
0.000171486
0.000165902
0.00015984
0.000153348
0.000147165
0.000142837
0.000142058
0.000146158
0.000144569
0.000146802
0.000155348
0.000167916
0.000172106
0.000166217
0.000160081
0.000154546
0.000148833
0.000144324
0.000143191
0.00014518
0.000143991
0.000145775
0.000153767
0.000166417
0.00017094
0.000164913
0.000158824
0.000154257
0.000149203
0.000144744
0.00014326
0.000143302
0.000142575
0.000143945
0.000151186
0.000163482
0.000168134
0.000162135
0.000156205
0.000152618
0.000148391
0.000144169
0.000142355
0.000140776
0.000140483
0.000141501
0.000147846
0.000159381
0.000163955
0.000158147
0.00015247
0.000149813
0.000146543
0.000142725
0.000140642
0.000137942
0.000137937
0.000138655
0.000144071
0.000154511
0.000158816
0.000153347
0.000147992
0.000146139
0.000143879
0.000140603
0.00013836
0.000135216
0.000135219
0.000135688
0.00014025
0.000149383
0.000153263
0.000148251
0.00014326
0.000142017
0.000140712
0.000138038
0.000135813
0.000133075
0.000132675
0.000132942
0.000136832
0.000144599
0.000147944
0.000143463
0.00013886
0.000137983
0.000137442
0.000135332
0.000133372
0.000132049
0.000130713
0.000130808
0.000134311
0.000140818
0.000143574
0.000139652
0.000135452
0.000134675
0.000134552
0.000132858
0.000131461
0.000132726
0.000129772
0.000129707
0.000133234
0.00013875
0.000140908
0.000137527
0.000133754
0.000132816
0.000132606
0.000131023
0.00013055
0.000135783
0.00013036
0.000130127
0.000134218
0.000139157
0.000140747
0.000137841
0.000134559
0.000133223
0.000132251
0.000130293
0.000131173
0.000142066
0.000133084
0.000132659
0.000138003
0.000142903
0.000143961
0.000141461
0.00013879
0.000136842
0.00013425
0.000131217
0.000133971
0.000152735
0.00013872
0.000138061
0.000145552
0.000151095
0.000151674
0.000149544
0.000147637
0.000144864
0.000139554
0.000134483
0.000139764
0.000169516
0.000148332
0.000147379
0.000158245
0.000165379
0.000165564
0.000163771
0.000162826
0.000158954
0.000149444
0.000140999
0.000149685
0.000195117
0.000163478
0.000162155
0.000178215
0.000188382
0.000188308
0.000186822
0.00018713
0.000181713
0.000165807
0.000152056
0.000165419
0.000233686
0.000186552
0.000184778
0.000208907
0.000224514
0.000224437
0.000223212
0.000225229
0.00021749
0.000191634
0.000169595
0.000189612
0.000288872
0.000221041
0.000218792
0.000255345
0.00028012
0.000280634
0.000279626
0.000284064
0.000273314
0.000231692
0.000196611
0.000226273
0.000368577
0.000269978
0.000267111
0.000322882
0.000347997
0.000341878
0.000350413
0.000372344
0.000357521
0.000290211
0.00023662
0.000278036
0.00045398
0.000337521
0.000329354
0.00039253
0.000421337
0.000414092
0.0004264
0.00047081
0.000466885
0.000361878
0.000284222
0.000328935
0.000550815
0.000406948
0.000396092
0.000476438
0.000512082
0.000503901
0.000520568
0.000579976
0.000579777
0.000441017
0.000337993
0.000395528
0.000663773
0.000494186
0.000480288
0.000576547
0.000618343
0.00060956
0.000631239
0.000707379
0.000711387
0.000538922
0.000408058
0.000478919
0.000793704
0.000598177
0.000580919
0.000692325
0.000740678
0.000731843
0.000759253
0.00085354
0.000861508
0.000653843
0.00049515
0.000577871
0.000941135
0.000718852
0.000697781
0.000824646
0.000879761
0.000871537
0.000905211
0.00101821
0.00102937
0.000786187
0.000598014
0.000692787
0.00110546
0.000857129
0.00083181
0.000973466
0.00103516
0.0010283
0.00106852
0.0011996
0.00121274
0.000936077
0.000717256
0.000824695
0.00128477
0.00101298
0.00098303
0.00113749
0.00120517
0.00120047
0.0012472
0.0013944
0.00140799
0.00110227
0.000853563
0.000973689
0.00147592
0.00118508
0.00115019
0.00131409
0.00138679
0.00138511
0.00143796
0.00159801
0.00161038
0.00128208
0.00100656
0.00113868
0.00167478
0.00137074
0.00133065
0.00149948
0.001576
0.00157821
0.00163627
0.00180512
0.00181457
0.00147148
0.00117462
0.00131732
0.00187659
0.00156602
0.00152053
0.00168907
0.00176814
0.00177496
0.00183722
0.00201021
0.00201522
0.00166565
0.0013549
0.0015061
0.00207648
0.00176612
0.00171502
0.00187795
0.00195845
0.00197043
0.00203583
0.00220815
0.00220753
0.00185945
0.00154347
0.00170066
0.00226986
0.00196589
0.00190898
0.00206143
0.00214249
0.00216014
0.00222751
0.00239461
0.00238754
0.00204802
0.00173575
0.0018962
0.00245286
0.00216034
0.00209744
0.0022355
0.00231652
0.00234026
0.00240843
0.00256627
0.00255237
0.00222712
0.00192695
0.00208798
0.00262245
0.00234517
0.00227615
0.00239707
0.00247767
0.00250784
0.00257565
0.00272095
0.00270021
0.00239347
0.00211251
0.00227171
0.00277659
0.00251699
0.00244186
0.00254415
0.00262381
0.00266083
0.00272723
0.00285747
0.00283026
0.00254485
0.00228851
0.00244383
0.00291418
0.00267354
0.00259247
0.00267579
0.00275404
0.00279809
0.00286212
0.00297554
0.00294264
0.00268005
0.00245189
0.00260169
0.00303492
0.00281364
0.00272702
0.00279192
0.00286837
0.00291925
0.00298007
0.00307559
0.00303849
0.00279875
0.00260053
0.00274357
0.00313917
0.00293702
0.00284549
0.00289296
0.00296744
0.00302455
0.00308145
0.00315851
0.00312001
0.0029014
0.0027333
0.00286864
0.00322782
0.00304421
0.00294861
0.00297941
0.00305233
0.0031147
0.00316714
0.00322693
0.00318824
0.00298899
0.00284985
0.00297687
0.00330246
0.00313617
0.00303765
0.00305264
0.00312439
0.00319076
0.0032383
0.0032831
0.00324416
0.00306292
0.00295058
0.00306886
0.00336517
0.00321429
0.00311407
0.00311484
0.00318507
0.00325397
0.0032963
0.00332871
0.00328912
0.0031248
0.00303642
0.0031457
0.00341629
0.00327958
0.00317942
0.00316808
0.00323584
0.00330564
0.00334257
0.00336433
0.00332417
0.00317634
0.00310856
0.00320882
0.00345764
0.00333273
0.00323513
0.00321397
0.00327809
0.00334707
0.0033785
0.00339107
0.00335035
0.00321914
0.00316849
0.00325982
0.00348958
0.00337481
0.00328245
0.00325373
0.00331304
0.00337946
0.00340542
0.00341028
0.00336935
0.0032546
0.00321777
0.00330038
0.00351371
0.00340968
0.00332195
0.00328824
0.00334168
0.00340383
0.00342451
0.00342318
0.00338264
0.00328382
0.00325778
0.0033321
0.00353108
0.00343871
0.00335428
0.00331811
0.00336468
0.00342103
0.00343678
0.0034308
0.00339155
0.00330763
0.00328987
0.00335648
0.00354239
0.00346129
0.00338042
0.00334361
0.00338239
0.00343177
0.00344306
0.00343401
0.00339721
0.00332671
0.00331533
0.00337478
0.00354812
0.00347791
0.00340308
0.00336475
0.00339498
0.00343773
0.00344398
0.00343344
0.00340054
0.00334151
0.00333494
0.00338798
0.00354862
0.0034889
0.0034215
0.00338127
0.00340353
0.003438
0.00344003
0.00342955
0.00340209
0.00335237
0.00334937
0.00339681
0.00354402
0.00349418
0.00343449
0.00339279
0.00340715
0.00343251
0.00343127
0.00342261
0.00340178
0.00335949
0.00335899
0.00340165
2.31636e-09
2.29294e-09
2.25224e-09
2.15297e-09
2.04459e-09
2.01646e-09
1.99858e-09
1.99268e-09
2.07189e-09
2.20925e-09
2.33826e-09
2.36336e-09
2.63057e-09
2.61885e-09
2.60019e-09
2.48837e-09
2.3447e-09
2.303e-09
2.29319e-09
2.28591e-09
2.34547e-09
2.47567e-09
2.61223e-09
2.64661e-09
1.10328e-08
1.12198e-08
1.15739e-08
1.11185e-08
1.0196e-08
9.86993e-09
9.99512e-09
9.95769e-09
9.72802e-09
9.86364e-09
1.02785e-08
1.05189e-08
6.84051e-08
6.99245e-08
7.2766e-08
6.99926e-08
6.38476e-08
6.16145e-08
6.26385e-08
6.24033e-08
6.02338e-08
6.04102e-08
6.27196e-08
6.43761e-08
2.90553e-07
2.97239e-07
3.09809e-07
2.98344e-07
2.72277e-07
2.62703e-07
2.67214e-07
2.66216e-07
2.5627e-07
2.56254e-07
2.65684e-07
2.72894e-07
9.05558e-07
9.26447e-07
9.66417e-07
9.32314e-07
8.52419e-07
8.22674e-07
8.36847e-07
8.33662e-07
8.01043e-07
7.99067e-07
8.2719e-07
8.49817e-07
2.25532e-06
2.30666e-06
2.40797e-06
2.32899e-06
2.13546e-06
2.06199e-06
2.09727e-06
2.08888e-06
2.00326e-06
1.99292e-06
2.05872e-06
2.11473e-06
4.73487e-06
4.8396e-06
5.05556e-06
4.90613e-06
4.51556e-06
4.3634e-06
4.43686e-06
4.41765e-06
4.22785e-06
4.19336e-06
4.32015e-06
4.43533e-06
8.67758e-06
8.86103e-06
9.26092e-06
9.02258e-06
8.34295e-06
8.06956e-06
8.2018e-06
8.16261e-06
7.79603e-06
7.70815e-06
7.91611e-06
8.11987e-06
1.42394e-05
1.45229e-05
1.51814e-05
1.48528e-05
1.38069e-05
1.33699e-05
1.35808e-05
1.35085e-05
1.28781e-05
1.26941e-05
1.29921e-05
1.331e-05
2.13418e-05
2.17375e-05
2.27202e-05
2.23203e-05
2.08679e-05
2.02342e-05
2.05375e-05
2.04156e-05
1.94337e-05
1.91024e-05
1.94842e-05
1.993e-05
2.96925e-05
3.02008e-05
3.15517e-05
3.1116e-05
2.92652e-05
2.84178e-05
2.88173e-05
2.86275e-05
2.72204e-05
2.66914e-05
2.71365e-05
2.77084e-05
3.78235e-05
3.84787e-05
4.01051e-05
3.97607e-05
3.77624e-05
3.67804e-05
3.72354e-05
3.69687e-05
3.5178e-05
3.44245e-05
3.47935e-05
3.5321e-05
4.53651e-05
4.61045e-05
4.80067e-05
4.7692e-05
4.54721e-05
4.43413e-05
4.48356e-05
4.44836e-05
4.23336e-05
4.14086e-05
4.18056e-05
4.23983e-05
5.3028e-05
5.38357e-05
5.60038e-05
5.57455e-05
5.33551e-05
5.20936e-05
5.26078e-05
5.21538e-05
4.96401e-05
4.85378e-05
4.89546e-05
4.96075e-05
6.07033e-05
6.15618e-05
6.39822e-05
6.3809e-05
6.13084e-05
5.99409e-05
6.04538e-05
5.98795e-05
5.70024e-05
5.5718e-05
5.6142e-05
5.68468e-05
6.82883e-05
6.91792e-05
7.18357e-05
7.1777e-05
6.92324e-05
6.77894e-05
6.82789e-05
6.75651e-05
6.43292e-05
6.28589e-05
6.32736e-05
6.402e-05
7.56966e-05
7.66007e-05
7.94757e-05
7.95622e-05
7.70444e-05
7.55598e-05
7.60035e-05
7.51306e-05
7.15439e-05
6.98838e-05
7.0269e-05
7.10451e-05
8.2862e-05
8.37595e-05
8.68353e-05
8.71003e-05
8.4683e-05
8.31924e-05
8.35672e-05
8.25161e-05
7.85882e-05
7.67331e-05
7.70646e-05
7.78585e-05
8.97456e-05
9.0615e-05
9.38748e-05
9.43581e-05
9.21175e-05
9.06556e-05
9.09371e-05
8.96885e-05
8.54281e-05
8.33694e-05
8.36191e-05
8.44201e-05
9.63449e-05
9.71613e-05
0.000100591
0.000101343
9.93604e-05
9.79592e-05
9.81203e-05
9.66541e-05
9.2065e-05
8.97863e-05
8.9921e-05
9.07214e-05
0.000102701
0.000103433
0.000107024
0.000108111
0.000106479
0.000105166
0.000105175
0.000103469
9.85459e-05
9.60168e-05
9.59947e-05
9.67922e-05
0.000108895
0.000109502
0.00011325
0.000114761
0.000113592
0.000112394
0.000112211
0.000110238
0.000104967
0.000102136
0.0001019
0.000102699
0.000115024
0.000115459
0.000119364
0.000121411
0.000120851
0.000119795
0.000119366
0.000117097
0.000111462
0.000108248
0.00010772
0.00010853
0.000121167
0.000121382
0.000125442
0.000128158
0.000128385
0.000127503
0.000126764
0.000124176
0.000118165
0.000114463
0.000113536
0.000114366
0.000127343
0.000127296
0.000131501
0.000135038
0.000136254
0.000135583
0.00013446
0.000131544
0.000125172
0.000120857
0.000119396
0.000120246
0.000133471
0.000133145
0.000137475
0.000141972
0.000144396
0.000143976
0.000142388
0.000139151
0.000132485
0.00012744
0.000125281
0.000126134
0.000139339
0.000138772
0.000143191
0.000148732
0.000152545
0.000152407
0.000150289
0.000146776
0.000139963
0.000134113
0.000131097
0.000131894
0.00014457
0.000143896
0.000148334
0.000154856
0.000160105
0.000160264
0.000157623
0.000153908
0.000147202
0.000140628
0.000136643
0.000137269
0.000148626
0.000148088
0.000152444
0.000159678
0.000166235
0.000166695
0.000163588
0.000159775
0.000153512
0.000146538
0.000141591
0.000141863
0.000151091
0.000150908
0.000155107
0.000162673
0.000170206
0.000170935
0.000167469
0.000163674
0.000158226
0.000151272
0.000145512
0.000145219
0.000152303
0.00015248
0.000156521
0.00016422
0.000172124
0.000172965
0.000169322
0.000165568
0.000160945
0.00015441
0.000148111
0.000147289
0.000152296
0.000152856
0.000156712
0.000164378
0.00017236
0.000173226
0.000169506
0.000165826
0.000161854
0.000155851
0.000149432
0.000148171
0.000151149
0.000152098
0.00015574
0.000163193
0.000171015
0.000171839
0.000168128
0.000164569
0.000161231
0.000155898
0.000149582
0.000147931
0.000149034
0.000150348
0.000153743
0.000160819
0.000168247
0.000168966
0.000165347
0.00016195
0.000159219
0.000154677
0.000148665
0.000146678
0.000146226
0.000147793
0.000150958
0.000157506
0.000164333
0.000164883
0.00016143
0.000158241
0.000156051
0.000152363
0.000146836
0.000144611
0.000143087
0.000144695
0.000147608
0.000153601
0.000159667
0.000159987
0.000156765
0.000153838
0.00015209
0.00014922
0.000144324
0.000141982
0.000140052
0.000141385
0.000144049
0.000149535
0.000154746
0.000154777
0.000151837
0.000149251
0.00014783
0.000145611
0.000141374
0.00013912
0.000137615
0.000138266
0.000140694
0.000145803
0.000150139
0.00014982
0.000147209
0.000145079
0.000143872
0.000141999
0.000138327
0.000136418
0.000136316
0.000135788
0.000138003
0.000142954
0.000146463
0.000145734
0.000143501
0.000141986
0.000140902
0.000138927
0.000135586
0.00013432
0.000136758
0.000134457
0.000136492
0.000141583
0.000144375
0.000143171
0.000141386
0.000140695
0.000139676
0.000137018
0.000133616
0.000133329
0.000139631
0.000134847
0.000136742
0.000142356
0.000144584
0.000142839
0.000141603
0.000142002
0.00014103
0.000136981
0.000132953
0.00013402
0.00014579
0.00013764
0.000139447
0.000146061
0.000147904
0.000145551
0.000145015
0.000146843
0.000145931
0.000139653
0.000134235
0.000137083
0.000156401
0.000143706
0.000145491
0.000153711
0.00015537
0.000152332
0.000152717
0.000156434
0.000155618
0.000146075
0.000138251
0.000143407
0.000173189
0.000154234
0.000156085
0.00016674
0.000168428
0.000164609
0.000166253
0.000172523
0.000171854
0.000157666
0.000146058
0.000154214
0.000198825
0.000170966
0.000173015
0.00018732
0.00018927
0.000184529
0.000187992
0.000197784
0.000197348
0.000176517
0.000159169
0.000171307
0.000237407
0.000196565
0.000199026
0.000218896
0.00022137
0.000215526
0.000221719
0.000236394
0.000236339
0.000205902
0.000179894
0.000197449
0.00029312
0.000234961
0.000238268
0.000266755
0.000270432
0.000263397
0.000273765
0.000294971
0.000295227
0.000250895
0.000211822
0.000236745
0.000373662
0.000290013
0.000294541
0.000332449
0.000342268
0.000334429
0.000350939
0.000380619
0.000381153
0.000316588
0.000258551
0.000292923
0.000458305
0.000359754
0.000356758
0.000398699
0.000414051
0.000406048
0.000428848
0.000489084
0.000495416
0.00039591
0.000313776
0.000348582
0.000555009
0.000435381
0.000430874