/*--------------------------------*- C++ -*----------------------------------*\
| =========                 |                                                 |
| \\      /  F ield         | OpenFOAM: The Open Source CFD Toolbox           |
|  \\    /   O peration     | Version:  v1912                                 |
|   \\  /    A nd           | Website:  www.openfoam.com                      |
|    \\/     M anipulation  |                                                 |
\*---------------------------------------------------------------------------*/
FoamFile
{
    version     2.0;
    format      ascii;
    class       volVectorField;
    location    "10";
    object      U;
}
// * * * * * * * * * * * * * * * * * * * * * * * * * * * * * * * * * * * * * //

dimensions      [0 1 -1 0 0 0 0];


internalField   nonuniform List<vector> 
34128
(
(5.05136e-06 1.30629e-07 -0.00295984)
(4.52449e-06 1.6193e-07 -0.00293475)
(5.41132e-06 1.5595e-07 -0.00289467)
(7.97064e-06 1.44922e-07 -0.00283812)
(5.3224e-06 1.34043e-07 -0.0027872)
(5.71563e-07 1.31662e-07 -0.00277244)
(-1.13865e-06 1.26617e-07 -0.00274715)
(-4.98756e-07 1.15354e-07 -0.00273862)
(7.29075e-08 1.10879e-07 -0.00280277)
(-1.58848e-06 1.40754e-07 -0.00290088)
(-5.79028e-06 1.63875e-07 -0.00298336)
(-7.99176e-06 1.35429e-07 -0.00299774)
(1.30019e-05 1.48964e-06 -0.00919647)
(1.24521e-05 1.76707e-06 -0.00912531)
(1.67441e-05 1.7343e-06 -0.0090059)
(2.52613e-05 1.65845e-06 -0.00883503)
(1.73672e-05 1.59914e-06 -0.00868259)
(2.93965e-06 1.53905e-06 -0.00863937)
(-2.19825e-06 1.48945e-06 -0.00856506)
(-8.87116e-07 1.44058e-06 -0.00854038)
(-1.01149e-06 1.4548e-06 -0.00873058)
(-7.12577e-06 1.65296e-06 -0.00902113)
(-1.82486e-05 1.7627e-06 -0.00926635)
(-2.34813e-05 1.54201e-06 -0.00931077)
(1.93968e-05 4.156e-06 -0.0157721)
(1.96402e-05 4.8655e-06 -0.0156602)
(2.8795e-05 4.79713e-06 -0.0154625)
(4.41734e-05 4.64377e-06 -0.0151735)
(3.11711e-05 4.52795e-06 -0.0149171)
(6.75997e-06 4.34413e-06 -0.0148462)
(-2.05548e-06 4.20904e-06 -0.0147255)
(-5.79984e-07 4.12675e-06 -0.0146861)
(-2.84103e-06 4.19315e-06 -0.0150001)
(-1.43794e-05 4.63827e-06 -0.0154796)
(-3.1274e-05 4.84474e-06 -0.0158863)
(-3.85112e-05 4.28828e-06 -0.0159631)
(2.47316e-05 8.16344e-06 -0.0226529)
(2.63668e-05 9.46755e-06 -0.0225071)
(4.16133e-05 9.36284e-06 -0.0222332)
(6.47491e-05 9.14762e-06 -0.0218213)
(4.69303e-05 8.99048e-06 -0.0214568)
(1.22443e-05 8.61511e-06 -0.021359)
(-6.41812e-07 8.35346e-06 -0.0211957)
(5.86206e-07 8.26008e-06 -0.0211437)
(-4.92001e-06 8.41659e-06 -0.0215779)
(-2.27166e-05 9.14368e-06 -0.0222411)
(-4.45022e-05 9.42221e-06 -0.0228076)
(-5.30297e-05 8.40389e-06 -0.0229198)
(2.95023e-05 1.3443e-05 -0.0298013)
(3.28999e-05 1.54658e-05 -0.0296298)
(5.51979e-05 1.5336e-05 -0.0292832)
(8.69436e-05 1.51143e-05 -0.0287433)
(6.47614e-05 1.49587e-05 -0.0282652)
(1.9584e-05 1.43277e-05 -0.0281407)
(2.1613e-06 1.38982e-05 -0.0279399)
(2.82891e-06 1.38266e-05 -0.0278776)
(-6.75805e-06 1.41062e-05 -0.0284272)
(-3.15602e-05 1.51031e-05 -0.029267)
(-5.76201e-05 1.5398e-05 -0.0299908)
(-6.70305e-05 1.38152e-05 -0.0301422)
(3.42108e-05 1.99406e-05 -0.0371757)
(3.95078e-05 2.2775e-05 -0.0369881)
(6.95098e-05 2.26417e-05 -0.036574)
(0.000110629 2.25046e-05 -0.0359014)
(8.46919e-05 2.24201e-05 -0.0353034)
(2.89315e-05 2.14759e-05 -0.0351518)
(6.49689e-06 2.08356e-05 -0.034919)
(6.39142e-06 2.08213e-05 -0.0348492)
(-7.89092e-06 2.125e-05 -0.0355073)
(-4.03985e-05 2.24687e-05 -0.0365153)
(-7.0365e-05 2.27022e-05 -0.0373932)
(-8.05399e-05 2.0469e-05 -0.037588)
(3.93634e-05 2.76079e-05 -0.0447313)
(4.64648e-05 3.13197e-05 -0.0445374)
(8.448e-05 3.12151e-05 -0.0440631)
(0.000135596 3.12874e-05 -0.0432546)
(0.000106653 3.13706e-05 -0.0425298)
(4.03833e-05 3.00643e-05 -0.0423498)
(1.25091e-05 2.91662e-05 -0.0420911)
(1.15171e-05 2.92422e-05 -0.0420163)
(-7.89807e-06 2.98385e-05 -0.0427745)
(-4.87911e-05 3.1203e-05 -0.0439404)
(-8.25235e-05 3.1281e-05 -0.0449687)
(-9.36085e-05 2.83235e-05 -0.045211)
(4.54632e-05 3.63951e-05 -0.0524207)
(5.40501e-05 4.10244e-05 -0.0522306)
(0.000100014 4.0989e-05 -0.0517053)
(0.000161558 4.14263e-05 -0.0507595)
(0.000130474 4.18015e-05 -0.0499015)
(5.39681e-05 4.00965e-05 -0.0496911)
(2.03239e-05 3.88895e-05 -0.0494124)
(1.84281e-05 3.90844e-05 -0.0493348)
(-6.41586e-06 3.98544e-05 -0.0501828)
(-5.63706e-05 4.12693e-05 -0.0514954)
(-9.3931e-05 4.10845e-05 -0.0526694)
(-0.000106307 3.73375e-05 -0.052963)
(5.29994e-05 4.62516e-05 -0.0601971)
(6.25434e-05 5.18145e-05 -0.0600201)
(0.000115999 5.18942e-05 -0.0594546)
(0.000188157 5.28781e-05 -0.0583729)
(0.000155884 5.36974e-05 -0.0573756)
(6.96383e-05 5.15737e-05 -0.0571321)
(3.00346e-05 5.00041e-05 -0.0568392)
(2.73084e-05 5.03403e-05 -0.0567602)
(-3.14659e-06 5.12776e-05 -0.0576864)
(-6.28413e-05 5.26334e-05 -0.0591335)
(-0.00010447 5.20671e-05 -0.060448)
(-0.000118725 4.74706e-05 -0.060796)
(6.24357e-05 5.713e-05 -0.0680166)
(7.22192e-05 6.36204e-05 -0.0678612)
(0.000132302 6.38632e-05 -0.0672678)
(0.000214974 6.55948e-05 -0.0660537)
(0.00018252 6.70374e-05 -0.0649118)
(8.72684e-05 6.44965e-05 -0.0646319)
(4.16919e-05 6.25103e-05 -0.0643303)
(3.82932e-05 6.30004e-05 -0.0642509)
(2.13822e-06 6.40925e-05 -0.0652424)
(-6.7974e-05 6.52668e-05 -0.0668115)
(-0.000114068 6.41888e-05 -0.0682608)
(-0.000130968 5.8685e-05 -0.068665)
(7.42005e-05 6.89863e-05 -0.0758417)
(8.33398e-05 7.63789e-05 -0.0757148)
(0.000148779 7.68305e-05 -0.0751067)
(0.000241541 7.95234e-05 -0.0737655)
(0.000209934 8.17944e-05 -0.0724746)
(0.000106658 7.88626e-05 -0.0721549)
(5.52995e-05 7.64091e-05 -0.0718499)
(5.14641e-05 7.70575e-05 -0.0717701)
(9.60027e-06 7.8287e-05 -0.0728131)
(-7.15963e-05 7.91473e-05 -0.0744923)
(-0.000122688 7.74152e-05 -0.0760701)
(-0.000143161 7.09446e-05 -0.076531)
(8.86785e-05 8.17755e-05 -0.083642)
(9.61485e-05 9.0029e-05 -0.0835492)
(0.000165271 9.07296e-05 -0.08294)
(0.000267349 9.46021e-05 -0.0814782)
(0.000237609 9.79308e-05 -0.0800343)
(0.000127538 9.46624e-05 -0.0796713)
(7.08132e-05 9.16977e-05 -0.0793683)
(6.68488e-05 9.25029e-05 -0.0792878)
(1.93413e-05 9.38484e-05 -0.080368)
(-7.35792e-05 9.42539e-05 -0.0821456)
(-0.000130325 9.17119e-05 -0.0838456)
(-0.00015544 8.4211e-05 -0.0843622)
(0.00010621 9.54778e-05 -0.0913971)
(0.000110868 0.000104543 -0.0913428)
(0.000181608 0.000105529 -0.0907462)
(0.00029186 0.00011079 -0.0891705)
(0.000264969 0.000115415 -0.0875693)
(0.000149578 0.00011189 -0.0871594)
(8.81451e-05 0.000108382 -0.086864)
(8.44265e-05 0.00010934 -0.0867821)
(3.14138e-05 0.000110776 -0.0878851)
(-7.38228e-05 0.000110582 -0.0897502)
(-0.000136994 0.000107067 -0.091566)
(-0.000167955 9.84693e-05 -0.0921364)
(0.000127086 0.000110057 -0.0990946)
(0.000127695 0.000119877 -0.0990821)
(0.000197603 0.000121174 -0.0985117)
(0.000314511 0.000128034 -0.0968295)
(0.000291399 0.000134217 -0.0950667)
(0.000172402 0.000130547 -0.0946065)
(0.00010717 0.000126475 -0.0943247)
(0.000104136 0.000127581 -0.0942407)
(4.58341e-05 0.000129081 -0.0953512)
(-7.22398e-05 0.000128131 -0.0972932)
(-0.000142717 0.000123458 -0.0992181)
(-0.000180867 0.000113686 -0.0998396)
(0.000151528 0.000125444 -0.106723)
(0.00014678 0.000135964 -0.106754)
(0.000213034 0.00013759 -0.106223)
(0.000334694 0.00014624 -0.104442)
(0.00031622 0.00015425 -0.102515)
(0.000195574 0.000150568 -0.102002)
(0.000127712 0.000145928 -0.10174)
(0.00012586 0.00014718 -0.101653)
(6.25786e-05 0.000148718 -0.102755)
(-6.87438e-05 0.000146853 -0.104763)
(-0.000147513 0.000140834 -0.10679)
(-0.000194326 0.000129804 -0.107458)
(0.000179669 0.000141587 -0.114268)
(0.000168213 0.000152758 -0.114344)
(0.000227641 0.000154718 -0.113864)
(0.000351761 0.000165327 -0.111995)
(0.000338702 0.000175437 -0.109903)
(0.000218592 0.000171901 -0.109332)
(0.000149532 0.000166699 -0.109096)
(0.000149419 0.000168105 -0.109005)
(8.15806e-05 0.000169659 -0.110084)
(-6.32418e-05 0.000166717 -0.112148)
(-0.000151388 0.000159161 -0.114269)
(-0.000208474 0.000146785 -0.11498)
(0.000211552 0.000158435 -0.121722)
(0.000192022 0.000170222 -0.121841)
(0.000241134 0.000172511 -0.121422)
(0.000365054 0.000185221 -0.119475)
(0.000358087 0.000197705 -0.117218)
(0.000240916 0.000194489 -0.116588)
(0.000172341 0.000188746 -0.116383)
(0.000174577 0.000190319 -0.116287)
(0.000102741 0.000191875 -0.117327)
(-5.56265e-05 0.000187697 -0.119437)
(-0.000154328 0.000178413 -0.121646)
(-0.000223436 0.000164599 -0.122395)
(0.000247122 0.000175941 -0.129075)
(0.000218165 0.000188327 -0.129235)
(0.000253198 0.000190928 -0.128887)
(0.000373916 0.000205849 -0.126872)
(0.000373616 0.000220974 -0.124453)
(0.000261971 0.000218271 -0.123761)
(0.000195802 0.000212015 -0.123593)
(0.000201047 0.00021378 -0.123491)
(0.000125933 0.000215334 -0.124477)
(-4.5771e-05 0.000209766 -0.126622)
(-0.000156296 0.00019857 -0.128912)
(-0.000239315 0.000183225 -0.129695)
(0.000286212 0.000194056 -0.13632)
(0.000246518 0.000207054 -0.136516)
(0.000263493 0.000209939 -0.136247)
(0.000377709 0.000227143 -0.134177)
(0.000384545 0.000245166 -0.1316)
(0.00028117 0.000243179 -0.130846)
(0.000219531 0.000236445 -0.130717)
(0.000228489 0.000238438 -0.130608)
(0.000151 0.000240001 -0.131525)
(-3.35247e-05 0.000232895 -0.133697)
(-0.000157225 0.00021962 -0.136062)
(-0.000256184 0.000202651 -0.136875)
(0.000328534 0.000212736 -0.14345)
(0.000276872 0.000226392 -0.143678)
(0.000271661 0.000229527 -0.143493)
(0.000375842 0.000249041 -0.141382)
(0.000390172 0.000270199 -0.138655)
(0.000297922 0.00026914 -0.137837)
(0.000243103 0.000261968 -0.137751)
(0.000256514 0.000264237 -0.137631)
(0.000177763 0.000265837 -0.138467)
(-1.87122e-05 0.00025706 -0.140655)
(-0.000157009 0.00024156 -0.143088)
(-0.000274069 0.000222872 -0.14393)
(0.000373673 0.000231938 -0.150459)
(0.000308921 0.000246339 -0.150711)
(0.000277342 0.000249689 -0.150614)
(0.000367795 0.00027149 -0.148476)
(0.000389867 0.000295992 -0.145612)
(0.000311649 0.000296078 -0.14473)
(0.000266054 0.000288506 -0.144687)
(0.000284691 0.000291111 -0.144555)
(0.000206017 0.000292801 -0.145297)
(-1.13568e-06 0.000282233 -0.147491)
(-0.000155503 0.000264392 -0.149986)
(-0.000292943 0.00024389 -0.150855)
(0.000421081 0.000251618 -0.15734)
(0.000342261 0.000266903 -0.157608)
(0.000280182 0.000270434 -0.1576)
(0.000353146 0.000294442 -0.155452)
(0.000383103 0.000322457 -0.152465)
(0.000321811 0.000323908 -0.151523)
(0.000287892 0.000315976 -0.15152)
(0.000312544 0.000318987 -0.151373)
(0.000235534 0.000320842 -0.152009)
(1.94198e-05 0.000308392 -0.1542)
(-0.000152524 0.000288128 -0.15675)
(-0.000312712 0.00026571 -0.157644)
(0.000470074 0.000271734 -0.164086)
(0.000376391 0.000288101 -0.164358)
(0.000279851 0.000291791 -0.164439)
(0.000331612 0.00031786 -0.162298)
(0.00036949 0.000349505 -0.159208)
(0.000327924 0.000352534 -0.158208)
(0.000308101 0.00034428 -0.158244)
(0.000339567 0.00034778 -0.158078)
(0.000266062 0.000349905 -0.158599)
(4.31767e-05 0.000335509 -0.160775)
(-0.000147844 0.000312783 -0.163372)
(-0.000333199 0.000288336 -0.164292)
(0.000519842 0.000292237 -0.170688)
(0.000410716 0.000309957 -0.170951)
(0.000276063 0.000313803 -0.17112)
(0.000303079 0.000341716 -0.169004)
(0.000348816 0.00037704 -0.165832)
(0.000329582 0.000381847 -0.164782)
(0.00032616 0.000373312 -0.164852)
(0.000365232 0.000377394 -0.164662)
(0.000297325 0.00037992 -0.16506)
(7.03512e-05 0.000363552 -0.16721)
(-0.000141203 0.000338375 -0.169845)
(-0.000354142 0.000311771 -0.170791)
(0.000569464 0.000313075 -0.177136)
(0.000444561 0.000332504 -0.177377)
(0.000268598 0.000336529 -0.17763)
(0.000267631 0.000365997 -0.175559)
(0.000321073 0.000404962 -0.172329)
(0.000326487 0.000411724 -0.171237)
(0.000341554 0.00040295 -0.171335)
(0.000389003 0.00040772 -0.171117)
(0.000329026 0.000410803 -0.171386)
(0.000101135 0.000392487 -0.173498)
(-0.000132313 0.000364926 -0.176159)
(-0.00037518 0.000336017 -0.177132)
(0.000617932 0.000334191 -0.18342)
(0.000477195 0.000355777 -0.183625)
(0.000257326 0.000360043 -0.183956)
(0.000225581 0.000390696 -0.181948)
(0.000286486 0.000433164 -0.178689)
(0.000318465 0.000442024 -0.177564)
(0.000353797 0.00043306 -0.177683)
(0.000410357 0.000438631 -0.177433)
(0.00036085 0.000442454 -0.17757)
(0.000135674 0.000422269 -0.179631)
(-0.000120874 0.000392455 -0.182305)
(-0.000395855 0.000361066 -0.183307)
(0.000664187 0.000355515 -0.189528)
(0.000507853 0.000379812 -0.189682)
(0.00024222 0.000384426 -0.190085)
(0.000177481 0.00041582 -0.188158)
(0.000245529 0.000461539 -0.184899)
(0.00030549 0.000472591 -0.183752)
(0.000362452 0.000463489 -0.183886)
(0.000428805 0.000469984 -0.183599)
(0.000392466 0.000474746 -0.183602)
(0.000174047 0.000452839 -0.185601)
(-0.000106584 0.000420987 -0.188273)
(-0.000415622 0.000386906 -0.189304)
(0.000707166 0.000376971 -0.195447)
(0.000535771 0.000404639 -0.195538)
(0.00022338 0.00040976 -0.196006)
(0.000124119 0.000441376 -0.194178)
(0.000198918 0.000489975 -0.190948)
(0.00028769 0.000503253 -0.18979)
(0.000367157 0.00049407 -0.189931)
(0.000443916 0.000501616 -0.189603)
(0.000423536 0.000507531 -0.189473)
(0.000216238 0.00048412 -0.191397)
(-8.91657e-05 0.000450546 -0.19405)
(-0.000433858 0.000413517 -0.195113)
(0.000745843 0.000398463 -0.201168)
(0.000560223 0.000430273 -0.201184)
(0.000201034 0.000436113 -0.201707)
(6.65022e-05 0.00046737 -0.199996)
(0.000147588 0.000518356 -0.196823)
(0.000265346 0.000533824 -0.195666)
(0.000367641 0.000524616 -0.195806)
(0.000455341 0.00053334 -0.195434)
(0.00045372 0.000540626 -0.195176)
(0.000262121 0.00051602 -0.197011)
(-6.8381e-05 0.000481147 -0.199629)
(-0.000449884 0.000440867 -0.200724)
(0.00077928 0.000419887 -0.206681)
(0.000580553 0.000456712 -0.20661)
(0.000175541 0.000463534 -0.207182)
(5.81758e-06 0.000493796 -0.205602)
(9.26533e-05 0.00054656 -0.202514)
(0.000238879 0.000564105 -0.20137)
(0.000363746 0.000554926 -0.2015)
(0.00046283 0.000564947 -0.201083)
(0.000482683 0.000573818 -0.200701)
(0.00031144 0.000548424 -0.202436)
(-4.40551e-05 0.000512793 -0.204999)
(-0.000462994 0.000468912 -0.206128)
(0.000806659 0.000441116 -0.211976)
(0.000596203 0.000483917 -0.211812)
(0.000147387 0.000492028 -0.212424)
(-5.66055e-05 0.00052063 -0.21099)
(3.5355e-05 0.000574466 -0.208013)
(0.000208826 0.000593897 -0.20689)
(0.000355427 0.000584788 -0.207005)
(0.000466244 0.000596207 -0.20654)
(0.000510104 0.000606863 -0.206041)
(0.000363795 0.000581195 -0.207664)
(-1.60946e-05 0.000545478 -0.210155)
(-0.00047248 0.000497599 -0.211317)
(0.000827303 0.000461976 -0.217045)
(0.000606733 0.000511801 -0.216782)
(0.000117179 0.000521547 -0.217426)
(-0.000119319 0.000547782 -0.216152)
(-2.29839e-05 0.000601943 -0.21331)
(0.000175815 0.000622996 -0.212219)
(0.000342762 0.000613978 -0.21231)
(0.000465562 0.000626865 -0.211799)
(0.000535669 0.000639488 -0.211191)
(0.000418638 0.000614167 -0.212691)
(1.54892e-05 0.000579155 -0.215089)
(-0.000477664 0.000526837 -0.216285)
(0.000840696 0.000482288 -0.22188)
(0.000611839 0.000540255 -0.221515)
(8.5632e-05 0.000552021 -0.222184)
(-0.000180801 0.000575155 -0.221081)
(-8.09908e-05 0.000628802 -0.218397)
(0.000140546 0.000651156 -0.217345)
(0.000325954 0.000642208 -0.217407)
(0.000460879 0.000656594 -0.216849)
(0.000559071 0.000671361 -0.216142)
(0.000475246 0.000647126 -0.21751)
(5.05577e-05 0.000613757 -0.219798)
(-0.000477932 0.000556517 -0.221025)
(0.000846514 0.000501864 -0.226471)
(0.000611371 0.000569145 -0.226006)
(5.35362e-05 0.000583339 -0.226693)
(-0.000239523 0.000602627 -0.225768)
(-0.000137294 0.000654861 -0.223264)
(0.000103771 0.000678119 -0.222259)
(0.000305336 0.00066919 -0.222285)
(0.000452407 0.00068506 -0.221683)
(0.000580002 0.000702124 -0.220889)
(0.000532721 0.000679841 -0.222116)
(8.8828e-05 0.000649201 -0.224275)
(-0.000472767 0.000586525 -0.22553)
(0.000844623 0.000520505 -0.23081)
(0.000605337 0.0005983 -0.23025)
(2.17306e-05 0.000615349 -0.230948)
(-0.000294017 0.00063005 -0.230207)
(-0.000190586 0.000679932 -0.2279)
(6.62684e-05 0.000703635 -0.226948)
(0.000281365 0.000694629 -0.226932)
(0.000440472 0.000711912 -0.226289)
(0.000598155 0.000731408 -0.225423)
(0.000589994 0.000712066 -0.226503)
(0.000129862 0.000685383 -0.228517)
(-0.00046179 0.000616729 -0.229795)
(0.000835085 0.000538003 -0.23489)
(0.000593901 0.000627517 -0.234244)
(-8.93633e-06 0.000647855 -0.234949)
(-0.000342938 0.000657248 -0.234392)
(-0.000239687 0.000703817 -0.232293)
(2.88131e-05 0.000727449 -0.231399)
(0.000254612 0.000718225 -0.231338)
(0.0004255 0.000736785 -0.230657)
(0.000613228 0.000758822 -0.229734)
(0.000645846 0.000743533 -0.230665)
(0.000173061 0.000722166 -0.23252)
(-0.000444789 0.000646982 -0.233815)
(0.000818145 0.000554154 -0.238706)
(0.000577373 0.000656566 -0.237987)
(-3.76453e-05 0.000680624 -0.238694)
(-0.000385123 0.000684027 -0.238317)
(-0.000283586 0.000726317 -0.236433)
(-7.85146e-06 0.000749312 -0.2356)
(0.000225748 0.000739673 -0.23549)
(0.000407998 0.000759307 -0.234777)
(0.000624926 0.000783968 -0.233814)
(0.000698937 0.000773949 -0.234596)
(0.000217668 0.000759378 -0.236282)
(-0.000421749 0.000677125 -0.237585)
(0.000794213 0.000568761 -0.242251)
(0.000556187 0.000685191 -0.241475)
(-6.36479e-05 0.000713391 -0.242181)
(-0.000419651 0.000710178 -0.241978)
(-0.000321484 0.000747236 -0.240311)
(-4.30307e-05 0.000768982 -0.23954)
(0.000195524 0.000758679 -0.239379)
(0.000388532 0.000779114 -0.23864)
(0.000632958 0.000806449 -0.237654)
(0.000747842 0.000803005 -0.238291)
(0.000262781 0.000796812 -0.239802)
(-0.000392866 0.000706983 -0.241104)
(0.000763839 0.000581648 -0.245523)
(0.000530878 0.000713119 -0.24471)
(-8.63066e-05 0.000745863 -0.245413)
(-0.000445878 0.000735486 -0.245372)
(-0.000352817 0.000766392 -0.243918)
(-7.60945e-05 0.000786238 -0.243208)
(0.000164747 0.000774966 -0.242995)
(0.000367695 0.000795861 -0.242238)
(0.000637053 0.00082588 -0.241246)
(0.000791101 0.00083038 -0.241744)
(0.000307374 0.000834221 -0.243078)
(-0.00035856 0.000736375 -0.244368)
(0.000727681 0.000592659 -0.24852)
(0.000502049 0.000740068 -0.247692)
(-0.00010513 0.00077773 -0.248391)
(-0.000463468 0.000759741 -0.248497)
(-0.000377267 0.000783627 -0.247247)
(-0.000106487 0.000800891 -0.246596)
(0.000134251 0.000788291 -0.246333)
(0.000346083 0.000809244 -0.245563)
(0.000636957 0.000841914 -0.24458)
(0.000827279 0.000855747 -0.244952)
(0.000350327 0.000871316 -0.246112)
(-0.000319466 0.000765124 -0.247378)
(0.000686478 0.000601561 -0.251243)
(0.000470338 0.000765714 -0.250424)
(-0.0001198 0.000808644 -0.251118)
(-0.000472402 0.000782735 -0.251352)
(-0.000394757 0.000798817 -0.250293)
(-0.000133731 0.000812791 -0.249697)
(0.000104865 0.000798458 -0.249385)
(0.000324258 0.000819012 -0.24861)
(0.000632455 0.000854254 -0.247653)
(0.000855031 0.000878786 -0.247912)
(0.00039047 0.000907773 -0.248905)
(-0.00027642 0.000793023 -0.250135)
(0.000641017 0.000608359 -0.253696)
(0.000436389 0.000789741 -0.252908)
(-0.000130188 0.000838232 -0.253598)
(-0.000472971 0.000804196 -0.25394)
(-0.000405433 0.000811797 -0.253054)
(-0.000157431 0.00082178 -0.252507)
(7.73747e-05 0.00080524 -0.252151)
(0.000302727 0.000824915 -0.251376)
(0.000623374 0.000862635 -0.250457)
(0.000873171 0.000899167 -0.250621)
(0.000426623 0.000943216 -0.25146)
(-0.000230433 0.000819803 -0.252641)
(0.00059211 0.000612948 -0.255885)
(0.000400821 0.000811898 -0.255151)
(-0.000136358 0.000866213 -0.255837)
(-0.000465741 0.000824041 -0.256266)
(-0.000409625 0.000822541 -0.25553)
(-0.00017727 0.000827779 -0.255027)
(5.24898e-05 0.000808569 -0.25463)
(0.000281908 0.000826857 -0.253862)
(0.000609611 0.000866857 -0.252993)
(0.000880741 0.000916558 -0.25308)
(0.000457648 0.000977248 -0.253781)
(-0.000182648 0.000845317 -0.254901)
(0.000540564 0.00061527 -0.257819)
(0.000364198 0.000831879 -0.257159)
(-0.000138567 0.000892231 -0.257843)
(-0.00045152 0.000842089 -0.258335)
(-0.000407814 0.000831062 -0.257727)
(-0.000193008 0.000830841 -0.25726)
(3.08085e-05 0.000808448 -0.256828)
(0.00026212 0.000824852 -0.256072)
(0.000591141 0.000866927 -0.255261)
(0.000877078 0.000930761 -0.25529)
(0.000482507 0.00100947 -0.255873)
(-0.000134294 0.000869333 -0.256922)
(0.000487172 0.000615311 -0.259509)
(0.000327017 0.000849409 -0.258941)
(-0.000137243 0.000915964 -0.259624)
(-0.000431297 0.000858194 -0.260157)
(-0.00040058 0.000837355 -0.259653)
(-0.000204472 0.000830979 -0.259214)
(1.27976e-05 0.000804887 -0.258752)
(0.000243575 0.000818945 -0.258012)
(0.000568039 0.000862858 -0.257265)
(0.000861861 0.000941533 -0.257257)
(0.00050031 0.00103941 -0.257743)
(-8.663e-05 0.00089162 -0.258711)
(0.000432708 0.000613093 -0.260969)
(0.000289696 0.000864248 -0.260506)
(-0.000132963 0.000937122 -0.261189)
(-0.000406196 0.000872244 -0.261742)
(-0.000388566 0.000841462 -0.261318)
(-0.000211563 0.000828266 -0.260899)
(-1.22769e-06 0.000797976 -0.260413)
(0.000226382 0.000809294 -0.259693)
(0.000540496 0.00085478 -0.259013)
(0.000835154 0.000948696 -0.258986)
(0.000510364 0.00106661 -0.259398)
(-4.08868e-05 0.000911953 -0.260279)
(0.000377926 0.00060866 -0.262214)
(0.000252586 0.000876193 -0.261866)
(-0.000126412 0.000955452 -0.262549)
(-0.000377411 0.000884151 -0.263103)
(-0.000372442 0.000843445 -0.262737)
(-0.000214248 0.000822815 -0.262331)
(-1.11153e-05 0.000787871 -0.261826)
(0.000210558 0.000796147 -0.261129)
(0.000508833 0.000842937 -0.260517)
(0.000797431 0.00095214 -0.260488)
(0.000512214 0.00109062 -0.260847)
(1.78245e-06 0.000930105 -0.261636)
(0.000323573 0.000602089 -0.263259)
(0.000215979 0.000885089 -0.263032)
(-0.000118345 0.000970741 -0.263715)
(-0.000346167 0.000893841 -0.264254)
(-0.000352888 0.000843366 -0.263926)
(-0.000212583 0.00081475 -0.263525)
(-1.68813e-05 0.000774759 -0.263007)
(0.000196052 0.000779814 -0.262335)
(0.000473521 0.000827652 -0.261791)
(0.000749591 0.000951812 -0.261773)
(0.000505687 0.00111103 -0.2621)
(4.03565e-05 0.000945852 -0.262794)
(0.000270375 0.000593468 -0.264124)
(0.000180129 0.000890833 -0.264017)
(-0.000109542 0.000982832 -0.2647)
(-0.000313671 0.000901256 -0.26521)
(-0.000330589 0.00084131 -0.264903)
(-0.000206733 0.000804257 -0.264502)
(-1.87133e-05 0.000758898 -0.263974)
(0.000182766 0.000760664 -0.263331)
(0.000435191 0.000809315 -0.262851)
(0.000692952 0.00094773 -0.262855)
(0.000490931 0.00112745 -0.263167)
(7.40012e-05 0.000958976 -0.263768)
(0.000219018 0.000583014 -0.264827)
(0.000145257 0.000893398 -0.264836)
(-0.000100757 0.000991633 -0.265517)
(-0.000281044 0.000906419 -0.265989)
(-0.000306245 0.000837453 -0.265689)
(-0.000196995 0.000791653 -0.265283)
(-1.69656e-05 0.000740722 -0.26475)
(0.000170561 0.000739185 -0.264136)
(0.000394597 0.000788383 -0.263717)
(0.000629193 0.000940019 -0.26375)
(0.000468431 0.00113958 -0.264061)
(0.000102138 0.000969325 -0.264572)
(0.000169963 0.000570933 -0.26539)
(0.000111495 0.000892847 -0.265506)
(-9.26204e-05 0.000997133 -0.266185)
(-0.000249124 0.000909354 -0.266613)
(-0.000280442 0.00083197 -0.266307)
(-0.000183752 0.000777234 -0.265893)
(-1.21076e-05 0.000720635 -0.26536)
(0.000159266 0.000715971 -0.264775)
(0.000352576 0.000765519 -0.264411)
(0.000560194 0.000928945 -0.264477)
(0.000438879 0.00114724 -0.264799)
(0.000124464 0.000976761 -0.265228)
(0.000123439 0.000557431 -0.265837)
(7.88948e-05 0.000889274 -0.266048)
(-8.5637e-05 0.000999375 -0.266722)
(-0.000218539 0.000910139 -0.267104)
(-0.000253604 0.000825027 -0.266786)
(-0.000167394 0.000761266 -0.266362)
(-4.6467e-06 0.000699039 -0.265831)
(0.00014868 0.00069155 -0.265274)
(0.000309805 0.000741276 -0.264959)
(0.000487706 0.000914799 -0.265058)
(0.000403124 0.00115033 -0.265398)
(0.000140918 0.000981194 -0.265753)
(7.9652e-05 0.000542717 -0.266187)
(4.75365e-05 0.000882822 -0.266478)
(-8.02021e-05 0.000998405 -0.267144)
(-0.000189833 0.000908796 -0.267482)
(-0.000226128 0.000816743 -0.267147)
(-0.000148368 0.00074401 -0.266712)
(4.91479e-06 0.000676346 -0.266187)
(0.000138657 0.000666429 -0.265659)
(0.000266862 0.000716211 -0.265386)
(0.0004134 0.000897931 -0.265515)
(0.000362274 0.00114877 -0.265873)
(0.000151647 0.000982509 -0.266163)
(3.87612e-05 0.000526975 -0.266457)
(1.74969e-05 0.00087366 -0.266813)
(-7.65585e-05 0.000994331 -0.267468)
(-0.000163366 0.000905362 -0.267763)
(-0.000198387 0.000807193 -0.267412)
(-0.000127148 0.000725672 -0.266965)
(1.60978e-05 0.000652915 -0.266448)
(0.000129118 0.000641113 -0.265949)
(0.00022439 0.00069088 -0.265713)
(0.000338929 0.000878699 -0.265866)
(0.000317518 0.0011426 -0.266241)
(0.000156985 0.000980643 -0.266477)
(8.41411e-07 0.000510372 -0.266663)
(-1.11588e-05 0.000861986 -0.267068)
(-7.48102e-05 0.000987288 -0.267709)
(-0.000139348 0.000899869 -0.267964)
(-0.000170702 0.000796419 -0.267597)
(-0.000104208 0.000706429 -0.26714)
(2.84716e-05 0.000629067 -0.266632)
(0.000120023 0.000616003 -0.266164)
(0.000182937 0.000665716 -0.265959)
(0.000265687 0.000857448 -0.266132)
(0.000270029 0.00113195 -0.266518)
(0.000157407 0.00097557 -0.26671)
(-3.41082e-05 0.000493055 -0.266815)
(-3.83719e-05 0.000848016 -0.267256)
(-7.49426e-05 0.000977432 -0.267881)
(-0.000117867 0.000892348 -0.2681)
(-0.000143345 0.000784442 -0.267718)
(-7.99987e-05 0.000686427 -0.267252)
(4.16704e-05 0.000605083 -0.266757)
(0.000111367 0.000591444 -0.266318)
(0.000142948 0.000641082 -0.266142)
(0.000194799 0.000834515 -0.266327)
(0.000220925 0.00111698 -0.266718)
(0.000153489 0.000967295 -0.266877)
(-6.61467e-05 0.000475159 -0.266927)
(-6.40933e-05 0.000831973 -0.267391)
(-7.68452e-05 0.000964933 -0.267996)
(-9.89083e-05 0.000882823 -0.268183)
(-0.000116535 0.000771257 -0.267788)
(-5.49283e-05 0.000665787 -0.267314)
(5.54007e-05 0.000581205 -0.266834)
(0.000103171 0.000567713 -0.266425)
(0.000104755 0.000617263 -0.266273)
(0.000127116 0.00081021 -0.266465)
(0.000171227 0.00109791 -0.266857)
(0.000145856 0.000955853 -0.266989)
(-9.53704e-05 0.000456791 -0.267005)
(-8.82833e-05 0.000814078 -0.267483)
(-8.0338e-05 0.000949967 -0.268065)
(-8.23855e-05 0.000871313 -0.268224)
(-9.04466e-05 0.000756842 -0.267818)
(-2.9351e-05 0.0006446 -0.267339)
(6.94408e-05 0.000557631 -0.266875)
(9.54745e-05 0.000545029 -0.266497)
(6.85912e-05 0.000594468 -0.266366)
(6.32222e-05 0.000784812 -0.26656)
(0.000121818 0.00107499 -0.266945)
(0.000135145 0.000941306 -0.267058)
(-0.000121892 0.000438044 -0.267058)
(-0.000110909 0.000794543 -0.26754)
(-8.51974e-05 0.000932708 -0.268098)
(-6.8165e-05 0.000857832 -0.268231)
(-6.52138e-05 0.00074116 -0.267816)
(-3.56534e-06 0.000622932 -0.267334)
(8.36322e-05 0.000534522 -0.266889)
(8.8333e-05 0.000523553 -0.266541)
(3.46079e-05 0.000572841 -0.26643)
(3.46879e-06 0.000758556 -0.266621)
(7.34196e-05 0.00104849 -0.266994)
(0.000121961 0.000923737 -0.267093)
(-0.000145822 0.000418986 -0.267091)
(-0.00013194 0.000773567 -0.26757)
(-9.11773e-05 0.000913328 -0.268101)
(-5.60889e-05 0.000842389 -0.268211)
(-4.09448e-05 0.000724165 -0.26779)
(2.21794e-05 0.000600827 -0.267306)
(9.78681e-05 0.000512001 -0.266882)
(8.18092e-05 0.000503398 -0.266564)
(2.89595e-06 0.00055247 -0.266471)
(-5.19745e-05 0.000731636 -0.266656)
(2.6594e-05 0.00101869 -0.267013)
(0.000106859 0.000903244 -0.267102)
(-0.000167255 0.000399671 -0.267108)
(-0.00015134 0.000751333 -0.267579)
(-9.80239e-05 0.000891992 -0.268081)
(-4.59915e-05 0.000824993 -0.268169)
(-1.7732e-05 0.000705799 -0.267743)
(4.76728e-05 0.000578317 -0.267262)
(0.00011208 0.000490162 -0.266859)
(7.59723e-05 0.000484638 -0.266573)
(-2.64894e-05 0.000533397 -0.266495)
(-0.000103065 0.000704217 -0.266672)
(-1.82391e-05 0.000985858 -0.26701)
(9.03338e-05 0.000879935 -0.267092)
(-0.000186265 0.000380139 -0.267114)
(-0.000169063 0.000728009 -0.267571)
(-0.000105484 0.000868858 -0.268044)
(-3.77105e-05 0.000805651 -0.268111)
(4.33799e-06 0.000686 -0.267682)
(7.27326e-05 0.000555416 -0.267205)
(0.000126226 0.000469068 -0.266826)
(7.0895e-05 0.000467315 -0.26657)
(-5.35092e-05 0.000515628 -0.266507)
(-0.000149837 0.000676432 -0.266674)
(-6.07732e-05 0.000950244 -0.266989)
(7.28237e-05 0.000853927 -0.267066)
(-0.0002029 0.000360416 -0.26711)
(-0.000185052 0.000703747 -0.267551)
(-0.00011331 0.000844077 -0.267993)
(-3.1091e-05 0.000784374 -0.26804)
(2.51756e-05 0.000664711 -0.267608)
(9.71934e-05 0.000532121 -0.267139)
(0.000140278 0.000448761 -0.266784)
(6.66525e-05 0.000451446 -0.266559)
(-7.81281e-05 0.000499152 -0.266511)
(-0.000192359 0.000648385 -0.266667)
(-0.000100782 0.000912098 -0.266957)
(5.47172e-05 0.000825339 -0.26703)
(-0.000217186 0.000340516 -0.267099)
(-0.000199232 0.000678689 -0.26752)
(-0.000121259 0.000817799 -0.267931)
(-2.59865e-05 0.000761184 -0.267957)
(4.46844e-05 0.000641875 -0.267525)
(0.000120898 0.000508416 -0.267066)
(0.000154217 0.000429255 -0.266738)
(6.332e-05 0.000437024 -0.266542)
(-0.000100306 0.000483941 -0.266508)
(-0.000230707 0.000620163 -0.266652)
(-0.00013809 0.000871655 -0.266917)
(3.63676e-05 0.000794288 -0.266986)
(-0.000229131 0.000320444 -0.267082)
(-0.000211518 0.000652963 -0.267483)
(-0.000129092 0.000790169 -0.267861)
(-2.2257e-05 0.000736109 -0.267867)
(6.27596e-05 0.000617442 -0.267436)
(0.000143694 0.000484276 -0.266989)
(0.000168025 0.000410549 -0.266687)
(6.0971e-05 0.000424028 -0.266522)
(-0.000119994 0.000469954 -0.266502)
(-0.000264947 0.000591838 -0.266633)
(-0.000172546 0.000829136 -0.266871)
(1.81044e-05 0.000760898 -0.266937)
(-0.000238736 0.000300194 -0.267062)
(-0.000221818 0.000626685 -0.267441)
(-0.000136578 0.000761335 -0.267785)
(-1.97669e-05 0.000709194 -0.267771)
(7.92907e-05 0.000591369 -0.267342)
(0.000165428 0.000459664 -0.26691)
(0.000181679 0.000392616 -0.266636)
(5.96735e-05 0.000412418 -0.2665)
(-0.000137138 0.00045714 -0.266493)
(-0.000295127 0.000563471 -0.266613)
(-0.000204009 0.00078475 -0.266824)
(2.44065e-07 0.000725292 -0.266884)
(-0.000246 0.000279752 -0.26704)
(-0.00023004 0.000599963 -0.267395)
(-0.000143495 0.000731445 -0.267705)
(-1.83823e-05 0.000680499 -0.267672)
(9.41656e-05 0.000563627 -0.267246)
(0.000185951 0.000434532 -0.26683)
(0.000195151 0.000375412 -0.266584)
(5.9487e-05 0.000402138 -0.266477)
(-0.000151683 0.000445445 -0.266484)
(-0.000321276 0.000535118 -0.266591)
(-0.000232335 0.000738697 -0.266776)
(-1.69036e-05 0.000687597 -0.266831)