0 	0 	0 	0
0 	-2.40873e-35 	-7.23883e-37 	1.85797e-31
5.01672e-05 	-2.09602e-06 	-1.12574e-07 	0.0173326
5.01672e-05 	-2.09602e-06 	-1.12574e-07 	0.0173326
0.000100334 	-2.89857e-06 	-6.2082e-07 	0.0333442
0.000150502 	-3.31485e-06 	-1.56588e-06 	0.048192
0.000150502 	-3.31485e-06 	-1.56588e-06 	0.048192
0.000200669 	-3.72595e-06 	-2.9705e-06 	0.0619648
0.000200669 	-3.72595e-06 	-2.9705e-06 	0.0619648
0.000250836 	-4.11467e-06 	-4.80559e-06 	0.0747443
0.000301003 	-4.43742e-06 	-7.06443e-06 	0.0865988
0.000301003 	-4.43742e-06 	-7.06443e-06 	0.0865988
0.000351171 	-4.68622e-06 	-9.74003e-06 	0.0975743
0.000401338 	-4.86287e-06 	-1.28386e-05 	0.107694
0.000451505 	-4.97325e-06 	-1.63836e-05 	0.116974
0.000451505 	-4.97325e-06 	-1.63836e-05 	0.116974
0.000501672 	-5.02559e-06 	-2.04112e-05 	0.125442
0.000551839 	-5.02905e-06 	-2.49594e-05 	0.133142
0.000551839 	-5.02905e-06 	-2.49594e-05 	0.133142
0.000602007 	-4.99242e-06 	-3.00587e-05 	0.140136
0.000602007 	-4.99242e-06 	-3.00587e-05 	0.140136
0.000652174 	-4.92333e-06 	-3.57294e-05 	0.146492
0.000652174 	-4.92333e-06 	-3.57294e-05 	0.146492
0.000702341 	-4.82787e-06 	-4.19879e-05 	0.152285
0.000702341 	-4.82787e-06 	-4.19879e-05 	0.152285
0.000752508 	-4.71074e-06 	-4.88494e-05 	0.157581
0.000802676 	-4.57521e-06 	-5.63286e-05 	0.162437
0.000852843 	-4.42188e-06 	-6.4524e-05 	0.166846
0.000852843 	-4.42188e-06 	-6.4524e-05 	0.166846
0.00090301 	-4.25615e-06 	-7.33085e-05 	0.170918
0.00090301 	-4.25615e-06 	-7.33085e-05 	0.170918
0.000953177 	-4.08037e-06 	-8.26311e-05 	0.174693
0.00100334 	-3.89649e-06 	-9.24386e-05 	0.178207
0.00100334 	-3.89649e-06 	-9.24386e-05 	0.178207
0.00105351 	-3.706e-06 	-0.000102681 	0.181491
0.00105351 	-3.706e-06 	-0.000102681 	0.181491
0.00110368 	-3.50995e-06 	-0.000113319 	0.184569
0.00115385 	-3.30816e-06 	-0.000124398 	0.187418
0.00120401 	-3.10285e-06 	-0.000135763 	0.190116
0.00120401 	-3.10285e-06 	-0.000135763 	0.190116
0.00130435 	-2.6838e-06 	-0.000159209 	0.19512
0.00130435 	-2.6838e-06 	-0.000159209 	0.19512
0.00135452 	-2.47047e-06 	-0.000171279 	0.197418
0.00135452 	-2.47047e-06 	-0.000171279 	0.197418
0.00140468 	-2.25564e-06 	-0.000183511 	0.199607
0.00145485 	-2.04001e-06 	-0.000195852 	0.201712
0.00145485 	-2.04001e-06 	-0.000195852 	0.201712
0.00150502 	-1.82387e-06 	-0.000208284 	0.20374
0.00150502 	-1.82387e-06 	-0.000208284 	0.20374
0.00155518 	-1.60773e-06 	-0.000220805 	0.205659
0.00155518 	-1.60773e-06 	-0.000220805 	0.205659
0.00160535 	-1.39178e-06 	-0.000233347 	0.207519
0.00160535 	-1.39178e-06 	-0.000233347 	0.207519
0.00165552 	-1.17599e-06 	-0.000245896 	0.209325
0.00165552 	-1.17599e-06 	-0.000245896 	0.209325
0.00170569 	-9.60367e-07 	-0.000258418 	0.211061
0.00170569 	-9.60367e-07 	-0.000258418 	0.211061
0.00175585 	-7.44745e-07 	-0.000270866 	0.212742
0.00175585 	-7.44745e-07 	-0.000270866 	0.212742
0.00180602 	-5.29112e-07 	-0.000283248 	0.214385
0.00180602 	-5.29112e-07 	-0.000283248 	0.214385
0.00185619 	-3.13438e-07 	-0.0002955 	0.215974
0.00185619 	-3.13438e-07 	-0.0002955 	0.215974
0.00190635 	-9.77512e-08 	-0.000307585 	0.217519
0.00190635 	-9.77512e-08 	-0.000307585 	0.217519
0.00195652 	1.17938e-07 	-0.000319554 	0.219035
0.00195652 	1.17938e-07 	-0.000319554 	0.219035
0.00200669 	3.33612e-07 	-0.000331281 	0.220504
0.00200669 	3.33612e-07 	-0.000331281 	0.220504
0.00205686 	5.49263e-07 	-0.000342794 	0.221941
0.00210702 	7.64897e-07 	-0.000354164 	0.223356
0.00210702 	7.64897e-07 	-0.000354164 	0.223356
0.00215719 	9.80494e-07 	-0.000365131 	0.224722
0.00220736 	1.19609e-06 	-0.00037592 	0.226071
0.00225753 	1.41167e-06 	-0.000386426 	0.227391
0.00225753 	1.41167e-06 	-0.000386426 	0.227391
0.00230769 	1.62729e-06 	-0.000396561 	0.228679
0.00230769 	1.62729e-06 	-0.000396561 	0.228679
0.00235786 	1.84292e-06 	-0.000406533 	0.229953
0.00235786 	1.84292e-06 	-0.000406533 	0.229953
0.00240803 	2.05869e-06 	-0.000415979 	0.231188
0.00240803 	2.05869e-06 	-0.000415979 	0.231188
0.00245819 	2.27455e-06 	-0.000425231 	0.232409
0.00245819 	2.27455e-06 	-0.000425231 	0.232409
0.00250836 	2.49058e-06 	-0.000434088 	0.233603
0.00250836 	2.49058e-06 	-0.000434088 	0.233603
0.00255853 	2.70687e-06 	-0.000442581 	0.234773
0.0026087 	2.92333e-06 	-0.000450816 	0.235928
0.0026087 	2.92333e-06 	-0.000450816 	0.235928
0.00265886 	3.14026e-06 	-0.000458527 	0.237051
0.00270903 	3.35729e-06 	-0.000466113 	0.238167
0.00270903 	3.35729e-06 	-0.000466113 	0.238167
0.0027592 	3.57499e-06 	-0.000473026 	0.239244
0.00280936 	3.7928e-06 	-0.00047983 	0.240315
0.00280936 	3.7928e-06 	-0.00047983 	0.240315
0.00285953 	4.01123e-06 	-0.000486051 	0.241354
0.00285953 	4.01123e-06 	-0.000486051 	0.241354
0.0029097 	4.22987e-06 	-0.000492073 	0.242382
0.0029097 	4.22987e-06 	-0.000492073 	0.242382
0.00295987 	4.44908e-06 	-0.000497596 	0.243382
0.00295987 	4.44908e-06 	-0.000497596 	0.243382
0.00301003 	4.66864e-06 	-0.00050286 	0.244369
0.0030602 	4.88879e-06 	-0.000507695 	0.245332
0.00311037 	5.10948e-06 	-0.000512243 	0.246278
0.00311037 	5.10948e-06 	-0.000512243 	0.246278
0.00316054 	5.33089e-06 	-0.000516419 	0.247203
0.00316054 	5.33089e-06 	-0.000516419 	0.247203
0.00326087 	5.77612e-06 	-0.00052387 	0.248998
0.00326087 	5.77612e-06 	-0.00052387 	0.248998
0.00331104 	5.99996e-06 	-0.000527176 	0.249868
0.0033612 	6.22478e-06 	-0.000530168 	0.250717
0.0033612 	6.22478e-06 	-0.000530168 	0.250717
0.00341137 	6.44997e-06 	-0.000532958 	0.251551
0.00341137 	6.44997e-06 	-0.000532958 	0.251551
0.00346154 	6.67572e-06 	-0.000535441 	0.252362
0.00346154 	6.67572e-06 	-0.000535441 	0.252362
0.00351171 	6.90131e-06 	-0.000537785 	0.253162
0.00356187 	7.12656e-06 	-0.000539818 	0.253936
0.00356187 	7.12656e-06 	-0.000539818 	0.253936
0.00361204 	7.35155e-06 	-0.000541777 	0.254704
0.00366221 	7.57544e-06 	-0.000543414 	0.255443
0.00366221 	7.57544e-06 	-0.000543414 	0.255443
0.00371237 	7.79931e-06 	-0.00054504 	0.256181
0.00371237 	7.79931e-06 	-0.00054504 	0.256181
0.00376254 	8.02224e-06 	-0.000546326 	0.256888
0.00376254 	8.02224e-06 	-0.000546326 	0.256888
0.00381271 	8.24517e-06 	-0.000547612 	0.257594
0.00381271 	8.24517e-06 	-0.000547612 	0.257594
0.00386288 	8.46809e-06 	-0.000548638 	0.258274
0.00391304 	8.69101e-06 	-0.000549612 	0.258949
0.00391304 	8.69101e-06 	-0.000549612 	0.258949
0.00396321 	8.91417e-06 	-0.000550421 	0.259604
0.00401338 	9.13748e-06 	-0.000551118 	0.260247
0.00401338 	9.13748e-06 	-0.000551118 	0.260247
0.00406355 	9.36085e-06 	-0.000551738 	0.260879
0.00406355 	9.36085e-06 	-0.000551738 	0.260879
0.00411371 	9.5843e-06 	-0.000552193 	0.261489
0.00411371 	9.5843e-06 	-0.000552193 	0.261489
0.00421405 	1.00308e-05 	-0.0005529 	0.262677
0.00421405 	1.00308e-05 	-0.0005529 	0.262677
0.00426421 	1.02539e-05 	-0.000553151 	0.263255
0.00426421 	1.02539e-05 	-0.000553151 	0.263255
0.00431438 	1.04763e-05 	-0.000553295 	0.263812
0.00431438 	1.04763e-05 	-0.000553295 	0.263812
0.00436455 	1.06984e-05 	-0.000553377 	0.264358
0.00436455 	1.06984e-05 	-0.000553377 	0.264358
0.00441472 	1.09202e-05 	-0.00055343 	0.264895
0.00441472 	1.09202e-05 	-0.00055343 	0.264895
0.00446488 	1.11406e-05 	-0.000553381 	0.265408
0.00446488 	1.11406e-05 	-0.000553381 	0.265408
0.00451505 	1.13611e-05 	-0.000553332 	0.265921
0.00451505 	1.13611e-05 	-0.000553332 	0.265921
0.00456522 	1.15797e-05 	-0.00055321 	0.266408
0.00456522 	1.15797e-05 	-0.00055321 	0.266408
0.00461538 	1.17977e-05 	-0.000553067 	0.266889
0.00461538 	1.17977e-05 	-0.000553067 	0.266889
0.00466555 	1.20149e-05 	-0.000552907 	0.267359
0.00471572 	1.22298e-05 	-0.000552706 	0.267807
0.00476589 	1.24448e-05 	-0.000552504 	0.268255
0.00476589 	1.24448e-05 	-0.000552504 	0.268255
0.00486622 	1.28676e-05 	-0.000552055 	0.269092
0.00486622 	1.28676e-05 	-0.000552055 	0.269092
0.00491639 	1.30777e-05 	-0.000551827 	0.269502
0.00496656 	1.32838e-05 	-0.000551602 	0.269884
0.00496656 	1.32838e-05 	-0.000551602 	0.269884
0.00501672 	1.34899e-05 	-0.000551377 	0.270266
0.00506689 	1.36927e-05 	-0.000551167 	0.270631
0.00511706 	1.3893e-05 	-0.000550969 	0.27098
0.00511706 	1.3893e-05 	-0.000550969 	0.27098
0.00521739 	1.42873e-05 	-0.000550614 	0.271652
0.00521739 	1.42873e-05 	-0.000550614 	0.271652
0.00526756 	1.44806e-05 	-0.000550462 	0.27197
0.00526756 	1.44806e-05 	-0.000550462 	0.27197
0.00531773 	1.46726e-05 	-0.00055032 	0.272282
0.00536789 	1.48577e-05 	-0.000550229 	0.272568
0.00536789 	1.48577e-05 	-0.000550229 	0.272568
0.00541806 	1.50428e-05 	-0.000550138 	0.272854
0.00546823 	1.52241e-05 	-0.000550073 	0.273127
0.00551839 	1.53995e-05 	-0.000550051 	0.273382
0.00551839 	1.53995e-05 	-0.000550051 	0.273382
0.00556856 	1.55748e-05 	-0.000550028 	0.273636
0.00556856 	1.55748e-05 	-0.000550028 	0.273636
0.0056689 	1.59072e-05 	-0.000550091 	0.274097
0.0056689 	1.59072e-05 	-0.000550091 	0.274097
0.00571906 	1.60709e-05 	-0.000550138 	0.27432
0.00576923 	1.6225e-05 	-0.000550229 	0.274523
0.00576923 	1.6225e-05 	-0.000550229 	0.274523
0.0058194 	1.63749e-05 	-0.00055034 	0.274717
0.0058194 	1.63749e-05 	-0.00055034 	0.274717
0.00591973 	1.66625e-05 	-0.000550603 	0.275082
0.00591973 	1.66625e-05 	-0.000550603 	0.275082
0.0059699 	1.67966e-05 	-0.000550766 	0.275246
0.0059699 	1.67966e-05 	-0.000550766 	0.275246
0.00602007 	1.69306e-05 	-0.00055093 	0.275411
0.00607023 	1.70506e-05 	-0.000551122 	0.275553
0.0061204 	1.7167e-05 	-0.000551321 	0.27569
0.0061204 	1.7167e-05 	-0.000551321 	0.27569
0.00617057 	1.72833e-05 	-0.000551521 	0.275827
0.00622074 	1.73847e-05 	-0.000551732 	0.275943
0.00622074 	1.73847e-05 	-0.000551732 	0.275943
0.0062709 	1.74814e-05 	-0.000551948 	0.276052
0.00632107 	1.75782e-05 	-0.000552163 	0.276162
0.00632107 	1.75782e-05 	-0.000552163 	0.276162
0.00637124 	1.76603e-05 	-0.000552375 	0.276254
0.00637124 	1.76603e-05 	-0.000552375 	0.276254
0.0064214 	1.77356e-05 	-0.000552585 	0.276337
0.0064214 	1.77356e-05 	-0.000552585 	0.276337
0.00647157 	1.78109e-05 	-0.000552795 	0.276421
0.00647157 	1.78109e-05 	-0.000552795 	0.276421
0.00652174 	1.78732e-05 	-0.000553005 	0.276491
0.00657191 	1.79247e-05 	-0.000553215 	0.276549
0.00657191 	1.79247e-05 	-0.000553215 	0.276549
0.00662207 	1.79762e-05 	-0.000553424 	0.276607
0.00667224 	1.80185e-05 	-0.00055362 	0.276656
0.00672241 	1.80435e-05 	-0.000553791 	0.27669
0.00672241 	1.80435e-05 	-0.000553791 	0.27669
0.00677258 	1.80686e-05 	-0.000553962 	0.276723
0.00682274 	1.80908e-05 	-0.000554125 	0.276754
0.00682274 	1.80908e-05 	-0.000554125 	0.276754
0.00687291 	1.80869e-05 	-0.000554212 	0.276763
0.00687291 	1.80869e-05 	-0.000554212 	0.276763
0.00692308 	1.8083e-05 	-0.000554298 	0.276772
0.00697324 	1.80791e-05 	-0.000554385 	0.276781
0.00702341 	1.80504e-05 	-0.000554421 	0.27677
0.00707358 	1.8015e-05 	-0.000554444 	0.276755
0.00707358 	1.8015e-05 	-0.000554444 	0.276755
0.00717391 	1.79314e-05 	-0.000554427 	0.276715
0.00717391 	1.79314e-05 	-0.000554427 	0.276715
0.00722408 	1.7865e-05 	-0.000554303 	0.276675
0.00722408 	1.7865e-05 	-0.000554303 	0.276675
0.00727425 	1.77987e-05 	-0.000554179 	0.276636
0.00727425 	1.77987e-05 	-0.000554179 	0.276636
0.00732441 	1.77324e-05 	-0.000554055 	0.276597
0.00732441 	1.77324e-05 	-0.000554055 	0.276597
0.00737458 	1.76381e-05 	-0.000553815 	0.276534
0.00737458 	1.76381e-05 	-0.000553815 	0.276534
0.00742475 	1.75435e-05 	-0.000553574 	0.276471
0.00747492 	1.74489e-05 	-0.000553333 	0.276408
0.00752508 	1.734e-05 	-0.000553066 	0.276333
0.00752508 	1.734e-05 	-0.000553066 	0.276333
0.00757525 	1.72168e-05 	-0.000552773 	0.276247
0.00762542 	1.70936e-05 	-0.00055248 	0.27616
0.00767559 	1.69702e-05 	-0.000552186 	0.276073
0.00767559 	1.69702e-05 	-0.000552186 	0.276073
0.00772575 	1.68187e-05 	-0.000551768 	0.275963
0.00777592 	1.66671e-05 	-0.000551349 	0.275852
0.00777592 	1.66671e-05 	-0.000551349 	0.275852
0.00782609 	1.65155e-05 	-0.00055093 	0.275742
0.00787625 	1.63477e-05 	-0.000550475 	0.275618
0.00787625 	1.63477e-05 	-0.000550475 	0.275618
0.00792642 	1.61679e-05 	-0.000549992 	0.275484
0.00797659 	1.59882e-05 	-0.000549509 	0.27535
0.00802676 	1.58025e-05 	-0.000549009 	0.275211
0.00802676 	1.58025e-05 	-0.000549009 	0.275211
0.00807692 	1.55945e-05 	-0.000548449 	0.275055
0.00807692 	1.55945e-05 	-0.000548449 	0.275055
0.00812709 	1.53865e-05 	-0.000547889 	0.274898
0.00817726 	1.51785e-05 	-0.000547328 	0.274741
0.00817726 	1.51785e-05 	-0.000547328 	0.274741
0.00822742 	1.49483e-05 	-0.000546644 	0.274564
0.00827759 	1.47155e-05 	-0.000545946 	0.274385
0.00827759 	1.47155e-05 	-0.000545946 	0.274385
0.00832776 	1.44828e-05 	-0.000545248 	0.274205
0.00832776 	1.44828e-05 	-0.000545248 	0.274205
0.00837793 	1.42363e-05 	-0.000544483 	0.274011
0.00842809 	1.39823e-05 	-0.00054368 	0.273809
0.00842809 	1.39823e-05 	-0.00054368 	0.273809
0.00847826 	1.37283e-05 	-0.000542878 	0.273607
0.00847826 	1.37283e-05 	-0.000542878 	0.273607
0.0085786 	1.3194e-05 	-0.000541123 	0.273171
0.0085786 	1.3194e-05 	-0.000541123 	0.273171
0.00862876 	1.2922e-05 	-0.000540218 	0.272946
0.00867893 	1.26451e-05 	-0.00053928 	0.272714
0.0087291 	1.2358e-05 	-0.000538272 	0.272467
0.00877926 	1.20709e-05 	-0.000537265 	0.27222
0.00882943 	1.17809e-05 	-0.000536233 	0.271968
0.0088796 	1.14814e-05 	-0.000535126 	0.271699
0.0088796 	1.14814e-05 	-0.000535126 	0.271699
0.00892977 	1.1182e-05 	-0.000534018 	0.271429
0.00892977 	1.1182e-05 	-0.000534018 	0.271429
0.00897993 	1.08805e-05 	-0.00053289 	0.271155
0.00897993 	1.08805e-05 	-0.00053289 	0.271155
0.0090301 	1.05713e-05 	-0.000531684 	0.270863
0.00908027 	1.0262e-05 	-0.000530478 	0.270571
0.00908027 	1.0262e-05 	-0.000530478 	0.270571
0.00913043 	9.95094e-06 	-0.000529249 	0.270273
0.0091806 	9.63404e-06 	-0.000527944 	0.269958
0.0091806 	9.63404e-06 	-0.000527944 	0.269958
0.00923077 	9.31713e-06 	-0.000526639 	0.269643
0.00928094 	8.99846e-06 	-0.000525304 	0.269321
0.00928094 	8.99846e-06 	-0.000525304 	0.269321
0.0093311 	8.67587e-06 	-0.0005239 	0.268983
0.00938127 	8.35328e-06 	-0.000522496 	0.268645
0.00938127 	8.35328e-06 	-0.000522496 	0.268645
0.00943144 	8.02895e-06 	-0.000521049 	0.268297
0.00943144 	8.02895e-06 	-0.000521049 	0.268297
0.00948161 	7.70238e-06 	-0.000519544 	0.267936
0.00948161 	7.70238e-06 	-0.000519544 	0.267936
0.00953177 	7.37582e-06 	-0.00051804 	0.267575
0.00953177 	7.37582e-06 	-0.00051804 	0.267575
0.00958194 	7.04774e-06 	-0.000516472 	0.267199
0.00958194 	7.04774e-06 	-0.000516472 	0.267199
0.00963211 	6.71872e-06 	-0.000514866 	0.266814
0.00968227 	6.38971e-06 	-0.000513259 	0.26643
0.00968227 	6.38971e-06 	-0.000513259 	0.26643
0.00973244 	6.05974e-06 	-0.000511562 	0.266025
0.00978261 	5.7296e-06 	-0.00050985 	0.265616
0.00978261 	5.7296e-06 	-0.00050985 	0.265616
0.00983278 	5.39946e-06 	-0.000508124 	0.265204
0.00983278 	5.39946e-06 	-0.000508124 	0.265204
0.00988294 	5.06937e-06 	-0.000506303 	0.264771
0.00993311 	4.73927e-06 	-0.000504482 	0.264338
0.00993311 	4.73927e-06 	-0.000504482 	0.264338
0.00998328 	4.40968e-06 	-0.000502609 	0.263893
0.0100334 	4.08068e-06 	-0.000500675 	0.263435
0.0100836 	3.75168e-06 	-0.00049874 	0.262977
0.0100836 	3.75168e-06 	-0.00049874 	0.262977
0.0101338 	3.42437e-06 	-0.000496708 	0.262498
0.0101839 	3.09742e-06 	-0.000494655 	0.262014
0.0101839 	3.09742e-06 	-0.000494655 	0.262014
0.0102341 	2.77117e-06 	-0.000492571 	0.261524
0.0102341 	2.77117e-06 	-0.000492571 	0.261524
0.0102843 	2.4471e-06 	-0.000490393 	0.261014
0.0103344 	2.12304e-06 	-0.000488216 	0.260504
0.0103344 	2.12304e-06 	-0.000488216 	0.260504
0.0103846 	1.80154e-06 	-0.000485945 	0.259975
0.0103846 	1.80154e-06 	-0.000485945 	0.259975
0.0104348 	1.48109e-06 	-0.000483635 	0.259438
0.0104348 	1.48109e-06 	-0.000483635 	0.259438
0.0104849 	1.16158e-06 	-0.000481296 	0.258896
0.0104849 	1.16158e-06 	-0.000481296 	0.258896
0.0105351 	8.45406e-07 	-0.000478847 	0.258331
0.0105853 	5.29233e-07 	-0.000476399 	0.257766
0.0105853 	5.29233e-07 	-0.000476399 	0.257766
0.0106856 	-9.45227e-08 	-0.00047124 	0.256587
0.0106856 	-9.45227e-08 	-0.00047124 	0.256587
0.0107358 	-4.03864e-07 	-0.000468587 	0.255982
0.010786 	-7.09798e-07 	-0.000465834 	0.255359
0.010786 	-7.09798e-07 	-0.000465834 	0.255359
0.0108361 	-1.01569e-06 	-0.000463081 	0.254736
0.0108863 	-1.31572e-06 	-0.000460164 	0.254082
0.0108863 	-1.31572e-06 	-0.000460164 	0.254082
0.0109365 	-1.61575e-06 	-0.000457246 	0.253428
0.0109365 	-1.61575e-06 	-0.000457246 	0.253428
0.0109866 	-1.91138e-06 	-0.000454209 	0.252752
0.0110368 	-2.20501e-06 	-0.000451118 	0.252066
0.0110368 	-2.20501e-06 	-0.000451118 	0.252066
0.011087 	-2.49585e-06 	-0.000447951 	0.251366
0.011087 	-2.49585e-06 	-0.000447951 	0.251366
0.0111371 	-2.78263e-06 	-0.000444673 	0.250647
0.0111873 	-3.06819e-06 	-0.00044136 	0.249921
0.0111873 	-3.06819e-06 	-0.00044136 	0.249921
0.0112375 	-3.34774e-06 	-0.00043788 	0.249167
0.0112876 	-3.62728e-06 	-0.000434399 	0.248412
0.0112876 	-3.62728e-06 	-0.000434399 	0.248412
0.0113378 	-3.89944e-06 	-0.000430703 	0.247622
0.0113378 	-3.89944e-06 	-0.000430703 	0.247622
0.011388 	-4.17137e-06 	-0.000427 	0.24683
0.0114381 	-4.43691e-06 	-0.000423095 	0.246007
0.0114381 	-4.43691e-06 	-0.000423095 	0.246007
0.0114883 	-4.70094e-06 	-0.000419142 	0.245176
0.0115385 	-4.95966e-06 	-0.000414987 	0.244314
0.0115385 	-4.95966e-06 	-0.000414987 	0.244314
0.0115886 	-5.21596e-06 	-0.000410742 	0.24344
0.0116388 	-5.46803e-06 	-0.000406291 	0.242536
0.0116388 	-5.46803e-06 	-0.000406291 	0.242536
0.011689 	-5.71729e-06 	-0.000401705 	0.241613
0.0117391 	-5.96304e-06 	-0.000396901 	0.240661
0.0117893 	-6.20597e-06 	-0.000391921 	0.239686
0.0118395 	-6.4455e-06 	-0.000386705 	0.238679
0.0118395 	-6.4455e-06 	-0.000386705 	0.238679
0.0118896 	-6.68217e-06 	-0.000381289 	0.237645
0.0119398 	-6.91489e-06 	-0.000375609 	0.236577
0.0119398 	-6.91489e-06 	-0.000375609 	0.236577
0.01199 	-7.14459e-06 	-0.000369727 	0.235481
0.0120401 	-7.36938e-06 	-0.000363545 	0.234343
0.0120401 	-7.36938e-06 	-0.000363545 	0.234343
0.0120903 	-7.59121e-06 	-0.000357184 	0.233179
0.0120903 	-7.59121e-06 	-0.000357184 	0.233179
0.0121906 	-8.02023e-06 	-0.000343627 	0.230729
0.0121906 	-8.02023e-06 	-0.000343627 	0.230729
0.0122408 	-8.22593e-06 	-0.00033637 	0.229429
0.012291 	-8.43019e-06 	-0.000329034 	0.228117
0.012291 	-8.43019e-06 	-0.000329034 	0.228117
0.0123411 	-8.62499e-06 	-0.000321213 	0.226724
0.0123913 	-8.81787e-06 	-0.0003133 	0.225314
0.0123913 	-8.81787e-06 	-0.0003133 	0.225314
0.0124415 	-9.0027e-06 	-0.000305 	0.223835
0.0124415 	-9.0027e-06 	-0.000305 	0.223835
0.0124916 	-9.1832e-06 	-0.000296507 	0.222317
0.0124916 	-9.1832e-06 	-0.000296507 	0.222317
0.0125418 	-9.35758e-06 	-0.000287743 	0.220746
0.012592 	-9.5246e-06 	-0.000278685 	0.219111
0.0126421 	-9.68801e-06 	-0.000269483 	0.217443
0.0126421 	-9.68801e-06 	-0.000269483 	0.217443
0.0126923 	-9.84042e-06 	-0.000259897 	0.215679
0.0127425 	-9.98904e-06 	-0.000250198 	0.213881
0.0127425 	-9.98904e-06 	-0.000250198 	0.213881
0.0127926 	-1.01289e-05 	-0.000240241 	0.212006
0.0128428 	-1.02609e-05 	-0.000230105 	0.210062
0.0128428 	-1.02609e-05 	-0.000230105 	0.210062
0.0129431 	-1.05022e-05 	-0.000209391 	0.205973
0.0129431 	-1.05022e-05 	-0.000209391 	0.205973
0.0129933 	-1.06107e-05 	-0.000198868 	0.20382
0.0130435 	-1.07107e-05 	-0.00018826 	0.201594
0.0130435 	-1.07107e-05 	-0.00018826 	0.201594
0.0131438 	-1.08801e-05 	-0.000166953 	0.196866
0.0131438 	-1.08801e-05 	-0.000166953 	0.196866
0.013194 	-1.09505e-05 	-0.000156323 	0.194375
0.0132441 	-1.10085e-05 	-0.000145787 	0.191773
0.0132441 	-1.10085e-05 	-0.000145787 	0.191773
0.0132943 	-1.10582e-05 	-0.000135338 	0.189096
0.0133445 	-1.10957e-05 	-0.000125038 	0.18631
0.0133445 	-1.10957e-05 	-0.000125038 	0.18631
0.0133946 	-1.11186e-05 	-0.000114976 	0.183392
0.0133946 	-1.11186e-05 	-0.000114976 	0.183392
0.0134448 	-1.11312e-05 	-0.000105106 	0.180379
0.0134448 	-1.11312e-05 	-0.000105106 	0.180379
0.013495 	-1.11323e-05 	-9.5461e-05 	0.177261
0.0135452 	-1.11144e-05 	-8.62378e-05 	0.173966
0.0135452 	-1.11144e-05 	-8.62378e-05 	0.173966
0.0135953 	-1.1084e-05 	-7.73182e-05 	0.170549
0.0135953 	-1.1084e-05 	-7.73182e-05 	0.170549
0.0136455 	-1.10404e-05 	-6.87286e-05 	0.167003
0.0136455 	-1.10404e-05 	-6.87286e-05 	0.167003
0.0136957 	-1.09802e-05 	-6.05656e-05 	0.163291
0.0136957 	-1.09802e-05 	-6.05656e-05 	0.163291
0.0137458 	-1.08993e-05 	-5.29386e-05 	0.159371
0.013796 	-1.08013e-05 	-4.5751e-05 	0.155278
0.013796 	-1.08013e-05 	-4.5751e-05 	0.155278
0.0138462 	-1.06849e-05 	-3.90322e-05 	0.150999
0.0138462 	-1.06849e-05 	-3.90322e-05 	0.150999
0.0138963 	-1.05486e-05 	-3.28119e-05 	0.146519
0.0139465 	-1.03838e-05 	-2.72765e-05 	0.14175
0.0139465 	-1.03838e-05 	-2.72765e-05 	0.14175
0.0139967 	-1.01952e-05 	-2.22858e-05 	0.136735
0.0139967 	-1.01952e-05 	-2.22858e-05 	0.136735
0.0140468 	-9.9814e-06 	-1.78388e-05 	0.13146
0.0140468 	-9.9814e-06 	-1.78388e-05 	0.13146
0.014097 	-9.74089e-06 	-1.39431e-05 	0.125903
0.0141472 	-9.47212e-06 	-1.05979e-05 	0.120042
0.0141472 	-9.47212e-06 	-1.05979e-05 	0.120042
0.0141973 	-9.17379e-06 	-7.78928e-06 	0.113851
0.0142475 	-8.8381e-06 	-5.55765e-06 	0.107229
0.0142977 	-8.46472e-06 	-3.77298e-06 	0.100195
0.0142977 	-8.46472e-06 	-3.77298e-06 	0.100195
0.0143478 	-8.04792e-06 	-2.39155e-06 	0.0927378
0.014398 	-7.58224e-06 	-1.3752e-06 	0.0848787
0.014398 	-7.58224e-06 	-1.3752e-06 	0.0848787
0.0144482 	-7.0641e-06 	-6.77593e-07 	0.0766762
0.0144983 	-6.49299e-06 	-2.42928e-07 	0.0682348
0.0144983 	-6.49299e-06 	-2.42928e-07 	0.0682348
0.0145485 	-5.87231e-06 	-8.88853e-09 	0.0597038
0.0145485 	-5.87231e-06 	-8.88853e-09 	0.0597038
0.0145987 	-5.21004e-06 	8.72406e-08 	0.051262
0.0146488 	-4.51855e-06 	1.00662e-07 	0.0430879
0.014699 	-3.81361e-06 	7.29773e-08 	0.0353273
0.014699 	-3.81361e-06 	7.29773e-08 	0.0353273
0.0147492 	-3.11442e-06 	3.05789e-08 	0.0280737
0.0147993 	-2.4484e-06 	-1.06078e-08 	0.0213704
0.0147993 	-2.4484e-06 	-1.06078e-08 	0.0213704
0.0148495 	-1.86595e-06 	-4.48773e-08 	0.0152264
0.0148495 	-1.86595e-06 	-4.48773e-08 	0.0152264
0.0148997 	-1.3911e-06 	-5.26751e-08 	0.00963156
0.0148997 	-1.3911e-06 	-5.26751e-08 	0.00963156
0.0149498 	-8.6389e-07 	-3.5486e-08 	0.00456785
0.0149498 	-8.6389e-07 	-3.5486e-08 	0.00456785
0.015 	0 	0 	0
0.015 	0 	0 	0
