0 	0 	0 	0
5.01672e-05 	-2.17681e-05 	-4.4419e-06 	0.0203381
0.000100334 	-4.35363e-05 	-8.88381e-06 	0.0406762
0.000150502 	-6.53044e-05 	-1.33257e-05 	0.0610144
0.000200669 	-8.70726e-05 	-1.77676e-05 	0.0813525
0.000250836 	-0.000108841 	-2.22095e-05 	0.101691
0.000301003 	-0.000130609 	-2.66514e-05 	0.122029
0.000351171 	-0.000150396 	-3.17996e-05 	0.14026
0.000401338 	-0.000162694 	-3.96189e-05 	0.150527
0.000451505 	-0.000174992 	-4.74381e-05 	0.160793
0.000501672 	-0.00018729 	-5.52573e-05 	0.171059
0.000551839 	-0.000199588 	-6.30765e-05 	0.181326
0.000602007 	-0.000211886 	-7.08957e-05 	0.191592
0.000652174 	-0.000224184 	-7.8715e-05 	0.201858
0.000702341 	-0.000236482 	-8.65342e-05 	0.212124
0.000752508 	-0.000246052 	-9.45816e-05 	0.220959
0.000802676 	-0.000248859 	-0.000103195 	0.226246
0.000852843 	-0.000251665 	-0.000111808 	0.231532
0.00090301 	-0.000254472 	-0.000120421 	0.236818
0.000953177 	-0.000257278 	-0.000129034 	0.242105
0.00100334 	-0.000260085 	-0.000137647 	0.247391
0.00105351 	-0.000262892 	-0.00014626 	0.252677
0.00110368 	-0.000265698 	-0.000154873 	0.257963
0.00115385 	-0.000268505 	-0.000163486 	0.26325
0.00120401 	-0.000271114 	-0.000172059 	0.26843
0.00125418 	-0.000269681 	-0.000179796 	0.271444
0.00130435 	-0.000268248 	-0.000187532 	0.274458
0.00135452 	-0.000266814 	-0.000195269 	0.277471
0.00140468 	-0.000265381 	-0.000203006 	0.280485
0.00145485 	-0.000263947 	-0.000210743 	0.283499
0.00150502 	-0.000262514 	-0.00021848 	0.286512
0.00155518 	-0.000261081 	-0.000226216 	0.289526
0.00160535 	-0.000259647 	-0.000233953 	0.29254
0.00165552 	-0.000258214 	-0.00024169 	0.295553
0.00170569 	-0.000256781 	-0.000249427 	0.298567
0.00175585 	-0.000255094 	-0.000256765 	0.301292
0.00180602 	-0.000252713 	-0.000263008 	0.303222
0.00185619 	-0.000250332 	-0.00026925 	0.305152
0.00190635 	-0.000247951 	-0.000275492 	0.307082
0.00195652 	-0.00024557 	-0.000281735 	0.309013
0.00200669 	-0.000243188 	-0.000287977 	0.310943
0.00205686 	-0.000240807 	-0.000294219 	0.312873
0.00210702 	-0.000238426 	-0.000300462 	0.314803
0.00215719 	-0.000236045 	-0.000306704 	0.316734
0.00220736 	-0.000233663 	-0.000312947 	0.318664
0.00225753 	-0.000231282 	-0.000319189 	0.320594
0.00230769 	-0.000228901 	-0.000325431 	0.322524
0.00235786 	-0.00022652 	-0.000331674 	0.324455
0.00240803 	-0.000224374 	-0.000336765 	0.325952
0.00245819 	-0.000222332 	-0.000341342 	0.327257
0.00250836 	-0.000220291 	-0.000345919 	0.328561
0.00255853 	-0.00021825 	-0.000350497 	0.329866
0.0026087 	-0.000216209 	-0.000355074 	0.331171
0.00265886 	-0.000214167 	-0.000359652 	0.332475
0.00270903 	-0.000212126 	-0.000364229 	0.33378
0.0027592 	-0.000210085 	-0.000368807 	0.335084
0.00280936 	-0.000208044 	-0.000373384 	0.336389
0.00285953 	-0.000206002 	-0.000377962 	0.337694
0.0029097 	-0.000203961 	-0.000382539 	0.338998
0.00295987 	-0.00020192 	-0.000387116 	0.340303
0.00301003 	-0.000199878 	-0.000391694 	0.341607
0.0030602 	-0.000197837 	-0.000396271 	0.342912
0.00311037 	-0.00019581 	-0.000400819 	0.344207
0.00316054 	-0.000194379 	-0.000404059 	0.345083
0.0032107 	-0.000192949 	-0.0004073 	0.34596
0.00326087 	-0.000191519 	-0.000410541 	0.346836
0.00331104 	-0.000190089 	-0.000413782 	0.347713
0.0033612 	-0.000188658 	-0.000417023 	0.348589
0.00341137 	-0.000187228 	-0.000420264 	0.349466
0.00346154 	-0.000185798 	-0.000423505 	0.350342
0.00351171 	-0.000184368 	-0.000426745 	0.351219
0.00356187 	-0.000182937 	-0.000429986 	0.352095
0.00361204 	-0.000181507 	-0.000433227 	0.352972
0.00366221 	-0.000180077 	-0.000436468 	0.353848
0.00371237 	-0.000178647 	-0.000439709 	0.354725
0.00376254 	-0.000177216 	-0.00044295 	0.355601
0.00381271 	-0.000175786 	-0.00044619 	0.356478
0.00386288 	-0.000174356 	-0.000449431 	0.357354
0.00391304 	-0.000172926 	-0.000452672 	0.358231
0.00396321 	-0.000171495 	-0.000455913 	0.359108
0.00401338 	-0.000170465 	-0.000458312 	0.359686
0.00406355 	-0.000169473 	-0.000460628 	0.360236
0.00411371 	-0.000168481 	-0.000462944 	0.360786
0.00416388 	-0.000167489 	-0.00046526 	0.361336
0.00421405 	-0.000166497 	-0.000467576 	0.361886
0.00426421 	-0.000165505 	-0.000469892 	0.362435
0.00431438 	-0.000164514 	-0.000472208 	0.362985
0.00436455 	-0.000163522 	-0.000474524 	0.363535
0.00441472 	-0.00016253 	-0.00047684 	0.364085
0.00446488 	-0.000161538 	-0.000479156 	0.364635
0.00451505 	-0.000160546 	-0.000481472 	0.365184
0.00456522 	-0.000159554 	-0.000483788 	0.365734
0.00461538 	-0.000158563 	-0.000486104 	0.366284
0.00466555 	-0.000157571 	-0.00048842 	0.366834
0.00471572 	-0.000156579 	-0.000490736 	0.367383
0.00476589 	-0.000155587 	-0.000493052 	0.367933
0.00481605 	-0.000154595 	-0.000495368 	0.368483
0.00486622 	-0.000153603 	-0.000497684 	0.369033
0.00491639 	-0.000152612 	-0.0005 	0.369583
0.00496656 	-0.00015162 	-0.000502316 	0.370132
0.00501672 	-0.000150833 	-0.000503915 	0.370433
0.00506689 	-0.000150057 	-0.000505476 	0.37072
0.00511706 	-0.000149281 	-0.000507037 	0.371008
0.00516722 	-0.000148505 	-0.000508598 	0.371295
0.00521739 	-0.000147729 	-0.000510158 	0.371582
0.00526756 	-0.000146953 	-0.000511719 	0.37187
0.00531773 	-0.000146178 	-0.00051328 	0.372157
0.00536789 	-0.000145402 	-0.000514841 	0.372444
0.00541806 	-0.000144626 	-0.000516402 	0.372732
0.00546823 	-0.00014385 	-0.000517962 	0.373019
0.00551839 	-0.000143074 	-0.000519523 	0.373306
0.00556856 	-0.000142298 	-0.000521084 	0.373594
0.00561873 	-0.000141522 	-0.000522645 	0.373881
0.0056689 	-0.000140746 	-0.000524205 	0.374168
0.00571906 	-0.000139971 	-0.000525766 	0.374456
0.00576923 	-0.000139195 	-0.000527327 	0.374743
0.0058194 	-0.000138419 	-0.000528888 	0.37503
0.00586957 	-0.000137643 	-0.000530449 	0.375318
0.00591973 	-0.000136867 	-0.000532009 	0.375605
0.0059699 	-0.000136091 	-0.00053357 	0.375892
0.00602007 	-0.000135315 	-0.000535131 	0.37618
0.00607023 	-0.000134539 	-0.000536692 	0.376467
0.0061204 	-0.000133763 	-0.000538252 	0.376754
0.00617057 	-0.000133084 	-0.000539299 	0.376895
0.00622074 	-0.000132455 	-0.000540085 	0.376962
0.0062709 	-0.000131825 	-0.000540871 	0.377029
0.00632107 	-0.000131195 	-0.000541657 	0.377096
0.00637124 	-0.000130565 	-0.000542443 	0.377164
0.0064214 	-0.000129935 	-0.000543229 	0.377231
0.00647157 	-0.000129305 	-0.000544015 	0.377298
0.00652174 	-0.000128675 	-0.000544801 	0.377365
0.00657191 	-0.000128045 	-0.000545587 	0.377432
0.00662207 	-0.000127415 	-0.000546373 	0.377499
0.00667224 	-0.000126785 	-0.000547159 	0.377566
0.00672241 	-0.000126156 	-0.000547945 	0.377633
0.00677258 	-0.000125526 	-0.000548731 	0.3777
0.00682274 	-0.000124896 	-0.000549517 	0.377767
0.00687291 	-0.000124266 	-0.000550303 	0.377834
0.00692308 	-0.000123636 	-0.000551089 	0.377901
0.00697324 	-0.000123006 	-0.000551875 	0.377968
0.00702341 	-0.000122376 	-0.000552661 	0.378035
0.00707358 	-0.000121746 	-0.000553447 	0.378102
0.00712375 	-0.000121116 	-0.000554233 	0.378169
0.00717391 	-0.000120487 	-0.000555019 	0.378236
0.00722408 	-0.000119857 	-0.000555805 	0.378303
0.00727425 	-0.000119227 	-0.000556591 	0.37837
0.00732441 	-0.000118597 	-0.000557377 	0.378437
0.00737458 	-0.000117967 	-0.000558163 	0.378504
0.00742475 	-0.000117337 	-0.000558949 	0.378572
0.00747492 	-0.000116707 	-0.000559735 	0.378639
0.00752508 	-0.000116135 	-0.000560137 	0.378607
0.00757525 	-0.000115619 	-0.000560155 	0.378475
0.00762542 	-0.000115104 	-0.000560173 	0.378344
0.00767559 	-0.000114589 	-0.00056019 	0.378213
0.00772575 	-0.000114074 	-0.000560208 	0.378082
0.00777592 	-0.000113559 	-0.000560226 	0.377951
0.00782609 	-0.000113044 	-0.000560244 	0.37782
0.00787625 	-0.000112528 	-0.000560262 	0.377689
0.00792642 	-0.000112013 	-0.000560279 	0.377558
0.00797659 	-0.000111498 	-0.000560297 	0.377426
0.00802676 	-0.000110983 	-0.000560315 	0.377295
0.00807692 	-0.000110468 	-0.000560333 	0.377164
0.00812709 	-0.000109953 	-0.000560351 	0.377033
0.00817726 	-0.000109437 	-0.000560368 	0.376902
0.00822742 	-0.000108922 	-0.000560386 	0.376771
0.00827759 	-0.000108407 	-0.000560404 	0.37664
0.00832776 	-0.000107892 	-0.000560422 	0.376509
0.00837793 	-0.000107377 	-0.000560439 	0.376377
0.00842809 	-0.000106861 	-0.000560457 	0.376246
0.00847826 	-0.000106346 	-0.000560475 	0.376115
0.00852843 	-0.000105831 	-0.000560493 	0.375984
0.0085786 	-0.000105316 	-0.000560511 	0.375853
0.00862876 	-0.000104801 	-0.000560528 	0.375722
0.00867893 	-0.000104286 	-0.000560546 	0.375591
0.0087291 	-0.00010377 	-0.000560564 	0.375459
0.00877926 	-0.000103255 	-0.000560582 	0.375328
0.00882943 	-0.00010274 	-0.0005606 	0.375197
0.0088796 	-0.000102278 	-0.000560301 	0.374985
0.00892977 	-0.000101922 	-0.00055938 	0.374614
0.00897993 	-0.000101566 	-0.000558459 	0.374244
0.0090301 	-0.00010121 	-0.000557537 	0.373873
0.00908027 	-0.000100854 	-0.000556616 	0.373502
0.00913043 	-0.000100498 	-0.000555694 	0.373131
0.0091806 	-0.000100142 	-0.000554773 	0.37276
0.00923077 	-9.97862e-05 	-0.000553852 	0.372389
0.00928094 	-9.94302e-05 	-0.00055293 	0.372018
0.0093311 	-9.90742e-05 	-0.000552009 	0.371647
0.00938127 	-9.87182e-05 	-0.000551087 	0.371276
0.00943144 	-9.83621e-05 	-0.000550166 	0.370905
0.00948161 	-9.80061e-05 	-0.000549245 	0.370534
0.00953177 	-9.76501e-05 	-0.000548323 	0.370163
0.00958194 	-9.7294e-05 	-0.000547402 	0.369792
0.00963211 	-9.6938e-05 	-0.00054648 	0.369421
0.00968227 	-9.6582e-05 	-0.000545559 	0.369051
0.00973244 	-9.62259e-05 	-0.000544638 	0.36868
0.00978261 	-9.58699e-05 	-0.000543716 	0.368309
0.00983278 	-9.55139e-05 	-0.000542795 	0.367938
0.00988294 	-9.51578e-05 	-0.000541873 	0.367567
0.00993311 	-9.48018e-05 	-0.000540952 	0.367196
0.00998328 	-9.44458e-05 	-0.000540031 	0.366825
0.0100334 	-9.41072e-05 	-0.000539053 	0.36644
0.0100836 	-9.40941e-05 	-0.000537031 	0.365785
0.0101338 	-9.4081e-05 	-0.000535009 	0.365131
0.0101839 	-9.40679e-05 	-0.000532987 	0.364476
0.0102341 	-9.40548e-05 	-0.000530965 	0.363822
0.0102843 	-9.40417e-05 	-0.000528942 	0.363168
0.0103344 	-9.40286e-05 	-0.00052692 	0.362513
0.0103846 	-9.40155e-05 	-0.000524898 	0.361859
0.0104348 	-9.40024e-05 	-0.000522876 	0.361205
0.0104849 	-9.39893e-05 	-0.000520854 	0.36055
0.0105351 	-9.39762e-05 	-0.000518831 	0.359896
0.0105853 	-9.39631e-05 	-0.000516809 	0.359241
0.0106355 	-9.395e-05 	-0.000514787 	0.358587
0.0106856 	-9.39369e-05 	-0.000512765 	0.357933
0.0107358 	-9.39239e-05 	-0.000510743 	0.357278
0.010786 	-9.39108e-05 	-0.00050872 	0.356624
0.0108361 	-9.38977e-05 	-0.000506698 	0.35597
0.0108863 	-9.38846e-05 	-0.000504676 	0.355315
0.0109365 	-9.38715e-05 	-0.000502654 	0.354661
0.0109866 	-9.38584e-05 	-0.000500632 	0.354006
0.0110368 	-9.39001e-05 	-0.000498467 	0.353319
0.011087 	-9.4501e-05 	-0.000494852 	0.352298
0.0111371 	-9.5102e-05 	-0.000491236 	0.351277
0.0111873 	-9.57029e-05 	-0.000487621 	0.350255
0.0112375 	-9.63038e-05 	-0.000484006 	0.349234
0.0112876 	-9.69048e-05 	-0.00048039 	0.348212
0.0113378 	-9.75057e-05 	-0.000476775 	0.347191
0.011388 	-9.81066e-05 	-0.00047316 	0.34617
0.0114381 	-9.87075e-05 	-0.000469544 	0.345148
0.0114883 	-9.93085e-05 	-0.000465929 	0.344127
0.0115385 	-9.99094e-05 	-0.000462314 	0.343106
0.0115886 	-0.00010051 	-0.000458698 	0.342084
0.0116388 	-0.000101111 	-0.000455083 	0.341063
0.011689 	-0.000101712 	-0.000451468 	0.340042
0.0117391 	-0.000102313 	-0.000447852 	0.33902
0.0117893 	-0.000102914 	-0.000444237 	0.337999
0.0118395 	-0.000103515 	-0.000440621 	0.336978
0.0118896 	-0.000104116 	-0.000437006 	0.335956
0.0119398 	-0.000105585 	-0.000430904 	0.334398
0.01199 	-0.000107074 	-0.000424744 	0.332828
0.0120401 	-0.000108564 	-0.000418584 	0.331257
0.0120903 	-0.000110053 	-0.000412424 	0.329687
0.0121405 	-0.000111542 	-0.000406264 	0.328117
0.0121906 	-0.000113032 	-0.000400103 	0.326546
0.0122408 	-0.000114521 	-0.000393943 	0.324976
0.012291 	-0.00011601 	-0.000387783 	0.323405
0.0123411 	-0.0001175 	-0.000381623 	0.321835
0.0123913 	-0.000118989 	-0.000375463 	0.320264
0.0124415 	-0.000120478 	-0.000369303 	0.318694
0.0124916 	-0.000121968 	-0.000363143 	0.317123
0.0125418 	-0.000123457 	-0.000356983 	0.315553
0.012592 	-0.000124946 	-0.000350823 	0.313983
0.0126421 	-0.000126685 	-0.000343701 	0.312128
0.0126923 	-0.000128984 	-0.000334421 	0.309637
0.0127425 	-0.000131283 	-0.000325141 	0.307146
0.0127926 	-0.000133583 	-0.000315861 	0.304655
0.0128428 	-0.000135882 	-0.000306581 	0.302164
0.012893 	-0.000138181 	-0.000297301 	0.299673
0.0129431 	-0.00014048 	-0.000288021 	0.297182
0.0129933 	-0.000142779 	-0.000278741 	0.294691
0.0130435 	-0.000145078 	-0.000269461 	0.2922
0.0130936 	-0.000147377 	-0.000260182 	0.289709
0.0131438 	-0.000149676 	-0.000250902 	0.287218
0.013194 	-0.000151975 	-0.000241622 	0.284727
0.0132441 	-0.000154275 	-0.000232342 	0.282236
0.0132943 	-0.000156272 	-0.000221469 	0.278533
0.0133445 	-0.000158161 	-0.000210017 	0.274389
0.0133946 	-0.000160049 	-0.000198566 	0.270244
0.0134448 	-0.000161938 	-0.000187114 	0.2661
0.013495 	-0.000163826 	-0.000175662 	0.261956
0.0135452 	-0.000165714 	-0.00016421 	0.257812
0.0135953 	-0.000167603 	-0.000152759 	0.253668
0.0136455 	-0.000169491 	-0.000141307 	0.249524
0.0136957 	-0.000171379 	-0.000129855 	0.245379
0.0137458 	-0.000173268 	-0.000118404 	0.241235
0.013796 	-0.000175156 	-0.000106952 	0.237091
0.0138462 	-0.000173163 	-9.71123e-05 	0.229653
0.0138963 	-0.00017098 	-8.73512e-05 	0.222055
0.0139465 	-0.000168797 	-7.75901e-05 	0.214457
0.0139967 	-0.000166615 	-6.7829e-05 	0.206859
0.0140468 	-0.000164432 	-5.80679e-05 	0.199261
0.014097 	-0.00016225 	-4.83068e-05 	0.191663
0.0141472 	-0.000160067 	-3.85457e-05 	0.184065
0.0141973 	-0.000157885 	-2.87846e-05 	0.176467
0.0142475 	-0.000155702 	-1.90235e-05 	0.168869
0.0142977 	-0.000148293 	-1.39028e-05 	0.158324
0.0143478 	-0.000138776 	-1.06536e-05 	0.14659
0.014398 	-0.00012926 	-7.40438e-06 	0.134857
0.0144482 	-0.000119743 	-4.15517e-06 	0.123123
0.0144983 	-0.000110226 	-9.05957e-07 	0.111389
0.0145485 	-0.000100709 	2.34326e-06 	0.0996559
0.0145987 	-9.11923e-05 	5.59247e-06 	0.0879224
0.0146488 	-8.16755e-05 	8.84168e-06 	0.0761889
0.014699 	-7.04051e-05 	8.41237e-06 	0.0651478
0.0147492 	-5.86709e-05 	7.01031e-06 	0.0542898
0.0147993 	-4.69367e-05 	5.60825e-06 	0.0434319
0.0148495 	-3.52025e-05 	4.20619e-06 	0.0325739
0.0148997 	-2.34684e-05 	2.80412e-06 	0.0217159
0.0149498 	-1.17342e-05 	1.40206e-06 	0.010858
0.015 	0 	0 	0
