0 	0 	0 	0
0 	-1.91111e-35 	-8.54842e-37 	1.85723e-31
5.01672e-05 	-1.63762e-06 	-1.26485e-07 	0.017326
5.01672e-05 	-1.63762e-06 	-1.26485e-07 	0.017326
0.000100334 	-2.07077e-06 	-6.62387e-07 	0.0333339
0.000150502 	-2.20771e-06 	-1.64615e-06 	0.0481796
0.000150502 	-2.20771e-06 	-1.64615e-06 	0.0481796
0.000200669 	-2.4121e-06 	-3.09451e-06 	0.0619514
0.000200669 	-2.4121e-06 	-3.09451e-06 	0.0619514
0.000250836 	-2.6523e-06 	-4.97463e-06 	0.0747306
0.000301003 	-2.87225e-06 	-7.27609e-06 	0.0865853
0.000301003 	-2.87225e-06 	-7.27609e-06 	0.0865853
0.000351171 	-3.05371e-06 	-9.98968e-06 	0.097561
0.000401338 	-3.191e-06 	-1.31204e-05 	0.107681
0.000451505 	-3.28427e-06 	-1.66907e-05 	0.11696
0.000451505 	-3.28427e-06 	-1.66907e-05 	0.11696
0.000501672 	-3.33696e-06 	-2.07361e-05 	0.125427
0.000551839 	-3.35408e-06 	-2.52943e-05 	0.133125
0.000551839 	-3.35408e-06 	-2.52943e-05 	0.133125
0.000602007 	-3.34089e-06 	-3.03953e-05 	0.140117
0.000602007 	-3.34089e-06 	-3.03953e-05 	0.140117
0.000652174 	-3.30216e-06 	-3.60593e-05 	0.146472
0.000652174 	-3.30216e-06 	-3.60593e-05 	0.146472
0.000702341 	-3.24175e-06 	-4.23019e-05 	0.152262
0.000702341 	-3.24175e-06 	-4.23019e-05 	0.152262
0.000752508 	-3.1627e-06 	-4.91372e-05 	0.157556
0.000802676 	-3.0671e-06 	-5.65781e-05 	0.162411
0.000852843 	-2.95477e-06 	-6.47193e-05 	0.166818
0.000852843 	-2.95477e-06 	-6.47193e-05 	0.166818
0.00090301 	-2.83032e-06 	-7.34346e-05 	0.170889
0.00090301 	-2.83032e-06 	-7.34346e-05 	0.170889
0.000953177 	-2.69581e-06 	-8.2674e-05 	0.174662
0.00100334 	-2.55295e-06 	-9.23858e-05 	0.178175
0.00100334 	-2.55295e-06 	-9.23858e-05 	0.178175
0.00105351 	-2.4031e-06 	-0.00010252 	0.181459
0.00105351 	-2.4031e-06 	-0.00010252 	0.181459
0.00110368 	-2.24721e-06 	-0.000113041 	0.184536
0.00115385 	-2.08495e-06 	-0.00012399 	0.187384
0.00120401 	-1.91871e-06 	-0.000135214 	0.190083
0.00120401 	-1.91871e-06 	-0.000135214 	0.190083
0.00130435 	-1.57662e-06 	-0.000158356 	0.195086
0.00130435 	-1.57662e-06 	-0.000158356 	0.195086
0.00135452 	-1.40115e-06 	-0.000170259 	0.197385
0.00135452 	-1.40115e-06 	-0.000170259 	0.197385
0.00140468 	-1.2239e-06 	-0.000182316 	0.199574
0.00145485 	-1.04565e-06 	-0.000194476 	0.201679
0.00145485 	-1.04565e-06 	-0.000194476 	0.201679
0.00150502 	-8.66726e-07 	-0.000206721 	0.203707
0.00150502 	-8.66726e-07 	-0.000206721 	0.203707
0.00155518 	-6.87682e-07 	-0.000219046 	0.205627
0.00155518 	-6.87682e-07 	-0.000219046 	0.205627
0.00160535 	-5.08867e-07 	-0.000231387 	0.207487
0.00160535 	-5.08867e-07 	-0.000231387 	0.207487
0.00165552 	-3.30263e-07 	-0.000243731 	0.209295
0.00165552 	-3.30263e-07 	-0.000243731 	0.209295
0.00170569 	-1.51964e-07 	-0.000256042 	0.211031
0.00170569 	-1.51964e-07 	-0.000256042 	0.211031
0.00175585 	2.61491e-08 	-0.000268275 	0.212712
0.00175585 	2.61491e-08 	-0.000268275 	0.212712
0.00180602 	2.04129e-07 	-0.000280437 	0.214356
0.00180602 	2.04129e-07 	-0.000280437 	0.214356
0.00185619 	3.81903e-07 	-0.000292466 	0.215947
0.00185619 	3.81903e-07 	-0.000292466 	0.215947
0.00190635 	5.59419e-07 	-0.000304324 	0.217492
0.00190635 	5.59419e-07 	-0.000304324 	0.217492
0.00195652 	7.36752e-07 	-0.000316064 	0.219009
0.00195652 	7.36752e-07 	-0.000316064 	0.219009
0.00200669 	9.13715e-07 	-0.000327558 	0.220479
0.00200669 	9.13715e-07 	-0.000327558 	0.220479
0.00205686 	1.09037e-06 	-0.000338836 	0.221917
0.00210702 	1.26682e-06 	-0.000349971 	0.223334
0.00210702 	1.26682e-06 	-0.000349971 	0.223334
0.00215719 	1.44274e-06 	-0.000360699 	0.224701
0.00220736 	1.61846e-06 	-0.00037125 	0.226051
0.00225753 	1.79387e-06 	-0.000381518 	0.227372
0.00225753 	1.79387e-06 	-0.000381518 	0.227372
0.00230769 	1.96895e-06 	-0.000391414 	0.228661
0.00230769 	1.96895e-06 	-0.000391414 	0.228661
0.00235786 	2.1439e-06 	-0.000401148 	0.229936
0.00235786 	2.1439e-06 	-0.000401148 	0.229936
0.00240803 	2.31854e-06 	-0.000410358 	0.231172
0.00240803 	2.31854e-06 	-0.000410358 	0.231172
0.00245819 	2.49313e-06 	-0.000419374 	0.232394
0.00245819 	2.49313e-06 	-0.000419374 	0.232394
0.00250836 	2.66763e-06 	-0.000427999 	0.233588
0.00250836 	2.66763e-06 	-0.000427999 	0.233588
0.00255853 	2.84217e-06 	-0.000436263 	0.23476
0.0026087 	3.01675e-06 	-0.000444272 	0.235915
0.0026087 	3.01675e-06 	-0.000444272 	0.235915
0.00265886 	3.19158e-06 	-0.000451763 	0.237039
0.00270903 	3.36647e-06 	-0.000459131 	0.238155
0.00270903 	3.36647e-06 	-0.000459131 	0.238155
0.0027592 	3.54189e-06 	-0.000465838 	0.239233
0.00280936 	3.71741e-06 	-0.000472436 	0.240304
0.00280936 	3.71741e-06 	-0.000472436 	0.240304
0.00285953 	3.89352e-06 	-0.000478463 	0.241343
0.00285953 	3.89352e-06 	-0.000478463 	0.241343
0.0029097 	4.06989e-06 	-0.000484295 	0.242372
0.0029097 	4.06989e-06 	-0.000484295 	0.242372
0.00295987 	4.2469e-06 	-0.000489638 	0.243373
0.00295987 	4.2469e-06 	-0.000489638 	0.243373
0.00301003 	4.42438e-06 	-0.000494727 	0.244359
0.0030602 	4.60262e-06 	-0.000499395 	0.245322
0.00311037 	4.7816e-06 	-0.000503783 	0.246269
0.00311037 	4.7816e-06 	-0.000503783 	0.246269
0.00316054 	4.96155e-06 	-0.000507804 	0.247194
0.00316054 	4.96155e-06 	-0.000507804 	0.247194
0.00326087 	5.32488e-06 	-0.000514965 	0.248988
0.00326087 	5.32488e-06 	-0.000514965 	0.248988
0.00331104 	5.50843e-06 	-0.000518134 	0.249858
0.0033612 	5.69352e-06 	-0.000520997 	0.250707
0.0033612 	5.69352e-06 	-0.000520997 	0.250707
0.00341137 	5.87954e-06 	-0.000523662 	0.251541
0.00341137 	5.87954e-06 	-0.000523662 	0.251541
0.00346154 	6.06698e-06 	-0.00052603 	0.252352
0.00346154 	6.06698e-06 	-0.00052603 	0.252352
0.00351171 	6.25477e-06 	-0.000528262 	0.253151
0.00356187 	6.44335e-06 	-0.000530196 	0.253925
0.00356187 	6.44335e-06 	-0.000530196 	0.253925
0.00361204 	6.63198e-06 	-0.000532057 	0.254692
0.00366221 	6.82084e-06 	-0.000533611 	0.25543
0.00366221 	6.82084e-06 	-0.000533611 	0.25543
0.00371237 	7.00973e-06 	-0.000535154 	0.256167
0.00371237 	7.00973e-06 	-0.000535154 	0.256167
0.00376254 	7.19928e-06 	-0.000536375 	0.256873
0.00376254 	7.19928e-06 	-0.000536375 	0.256873
0.00381271 	7.38884e-06 	-0.000537597 	0.257578
0.00381271 	7.38884e-06 	-0.000537597 	0.257578
0.00386288 	7.57989e-06 	-0.000538575 	0.258257
0.00391304 	7.77125e-06 	-0.000539503 	0.25893
0.00391304 	7.77125e-06 	-0.000539503 	0.25893
0.00396321 	7.96406e-06 	-0.000540279 	0.259584
0.00401338 	8.15787e-06 	-0.00054095 	0.260225
0.00401338 	8.15787e-06 	-0.00054095 	0.260225
0.00406355 	8.35242e-06 	-0.000541551 	0.260856
0.00406355 	8.35242e-06 	-0.000541551 	0.260856
0.00411371 	8.54858e-06 	-0.000541999 	0.261465
0.00411371 	8.54858e-06 	-0.000541999 	0.261465
0.00421405 	8.94282e-06 	-0.000542711 	0.262651
0.00421405 	8.94282e-06 	-0.000542711 	0.262651
0.00426421 	9.14092e-06 	-0.000542973 	0.263227
0.00426421 	9.14092e-06 	-0.000542973 	0.263227
0.00431438 	9.33993e-06 	-0.00054314 	0.263783
0.00431438 	9.33993e-06 	-0.00054314 	0.263783
0.00436455 	9.53949e-06 	-0.000543252 	0.264327
0.00436455 	9.53949e-06 	-0.000543252 	0.264327
0.00441472 	9.73925e-06 	-0.000543339 	0.264864
0.00441472 	9.73925e-06 	-0.000543339 	0.264864
0.00446488 	9.93974e-06 	-0.000543338 	0.265375
0.00446488 	9.93974e-06 	-0.000543338 	0.265375
0.00451505 	1.01402e-05 	-0.000543336 	0.265887
0.00451505 	1.01402e-05 	-0.000543336 	0.265887
0.00456522 	1.0341e-05 	-0.000543275 	0.266373
0.00456522 	1.0341e-05 	-0.000543275 	0.266373
0.00461538 	1.05418e-05 	-0.000543196 	0.266852
0.00461538 	1.05418e-05 	-0.000543196 	0.266852
0.00466555 	1.07425e-05 	-0.000543105 	0.267322
0.00471572 	1.0943e-05 	-0.000542983 	0.267768
0.00476589 	1.11434e-05 	-0.000542861 	0.268214
0.00476589 	1.11434e-05 	-0.000542861 	0.268214
0.00486622 	1.15427e-05 	-0.000542598 	0.26905
0.00486622 	1.15427e-05 	-0.000542598 	0.26905
0.00491639 	1.17418e-05 	-0.000542469 	0.269458
0.00496656 	1.19396e-05 	-0.000542353 	0.269839
0.00496656 	1.19396e-05 	-0.000542353 	0.269839
0.00501672 	1.21374e-05 	-0.000542237 	0.270221
0.00506689 	1.23337e-05 	-0.000542144 	0.270584
0.00511706 	1.25288e-05 	-0.000542069 	0.270933
0.00511706 	1.25288e-05 	-0.000542069 	0.270933
0.00521739 	1.29161e-05 	-0.000541972 	0.271603
0.00521739 	1.29161e-05 	-0.000541972 	0.271603
0.00526756 	1.31077e-05 	-0.000541957 	0.271919
0.00526756 	1.31077e-05 	-0.000541957 	0.271919
0.00531773 	1.32987e-05 	-0.000541953 	0.272231
0.00536789 	1.34857e-05 	-0.000542011 	0.272516
0.00536789 	1.34857e-05 	-0.000542011 	0.272516
0.00541806 	1.36727e-05 	-0.000542069 	0.272801
0.00546823 	1.38574e-05 	-0.000542157 	0.273074
0.00551839 	1.40384e-05 	-0.000542295 	0.273328
0.00551839 	1.40384e-05 	-0.000542295 	0.273328
0.00556856 	1.42194e-05 	-0.000542433 	0.273581
0.00556856 	1.42194e-05 	-0.000542433 	0.273581
0.0056689 	1.45691e-05 	-0.000542833 	0.27404
0.0056689 	1.45691e-05 	-0.000542833 	0.27404
0.00571906 	1.47423e-05 	-0.000543051 	0.274263
0.00576923 	1.49087e-05 	-0.00054332 	0.274466
0.00576923 	1.49087e-05 	-0.00054332 	0.274466
0.0058194 	1.50721e-05 	-0.000543611 	0.274659
0.0058194 	1.50721e-05 	-0.000543611 	0.274659
0.00591973 	1.53898e-05 	-0.000544242 	0.275023
0.00591973 	1.53898e-05 	-0.000544242 	0.275023
0.0059699 	1.55413e-05 	-0.000544594 	0.275187
0.0059699 	1.55413e-05 	-0.000544594 	0.275187
0.00602007 	1.56929e-05 	-0.000544947 	0.275351
0.00607023 	1.58337e-05 	-0.000545334 	0.275493
0.0061204 	1.59716e-05 	-0.000545731 	0.27563
0.0061204 	1.59716e-05 	-0.000545731 	0.27563
0.00617057 	1.61096e-05 	-0.000546128 	0.275766
0.00622074 	1.62356e-05 	-0.000546542 	0.275882
0.00622074 	1.62356e-05 	-0.000546542 	0.275882
0.0062709 	1.63581e-05 	-0.000546961 	0.275991
0.00632107 	1.64805e-05 	-0.000547381 	0.276101
0.00632107 	1.64805e-05 	-0.000547381 	0.276101
0.00637124 	1.6591e-05 	-0.000547801 	0.276192
0.00637124 	1.6591e-05 	-0.000547801 	0.276192
0.0064214 	1.66958e-05 	-0.000548222 	0.276276
0.0064214 	1.66958e-05 	-0.000548222 	0.276276
0.00647157 	1.68007e-05 	-0.000548642 	0.276359
0.00647157 	1.68007e-05 	-0.000548642 	0.276359
0.00652174 	1.68946e-05 	-0.000549065 	0.276429
0.00657191 	1.69793e-05 	-0.00054949 	0.276487
0.00657191 	1.69793e-05 	-0.00054949 	0.276487
0.00662207 	1.7064e-05 	-0.000549915 	0.276545
0.00667224 	1.71406e-05 	-0.000550328 	0.276594
0.00672241 	1.72021e-05 	-0.000550719 	0.276627
0.00672241 	1.72021e-05 	-0.000550719 	0.276627
0.00677258 	1.72636e-05 	-0.00055111 	0.276661
0.00682274 	1.73225e-05 	-0.000551493 	0.276691
0.00682274 	1.73225e-05 	-0.000551493 	0.276691
0.00687291 	1.73577e-05 	-0.000551803 	0.2767
0.00687291 	1.73577e-05 	-0.000551803 	0.2767
0.00692308 	1.73928e-05 	-0.000552113 	0.276709
0.00697324 	1.7428e-05 	-0.000552422 	0.276718
0.00702341 	1.74399e-05 	-0.000552683 	0.276708
0.00707358 	1.74455e-05 	-0.00055293 	0.276692
0.00707358 	1.74455e-05 	-0.00055293 	0.276692
0.00717391 	1.74443e-05 	-0.000553362 	0.276651
0.00717391 	1.74443e-05 	-0.000553362 	0.276651
0.00722408 	1.742e-05 	-0.000553462 	0.276612
0.00722408 	1.742e-05 	-0.000553462 	0.276612
0.00727425 	1.73958e-05 	-0.000553562 	0.276573
0.00727425 	1.73958e-05 	-0.000553562 	0.276573
0.00732441 	1.73716e-05 	-0.000553662 	0.276533
0.00732441 	1.73716e-05 	-0.000553662 	0.276533
0.00737458 	1.73196e-05 	-0.000553641 	0.27647
0.00737458 	1.73196e-05 	-0.000553641 	0.27647
0.00742475 	1.72673e-05 	-0.00055362 	0.276407
0.00747492 	1.72151e-05 	-0.000553599 	0.276344
0.00752508 	1.71486e-05 	-0.000553548 	0.276269
0.00752508 	1.71486e-05 	-0.000553548 	0.276269
0.00757525 	1.70679e-05 	-0.000553468 	0.276182
0.00762542 	1.69872e-05 	-0.000553387 	0.276095
0.00767559 	1.69063e-05 	-0.000553306 	0.276008
0.00767559 	1.69063e-05 	-0.000553306 	0.276008
0.00772575 	1.67976e-05 	-0.000553091 	0.275898
0.00777592 	1.66888e-05 	-0.000552877 	0.275787
0.00777592 	1.66888e-05 	-0.000552877 	0.275787
0.00782609 	1.65801e-05 	-0.000552662 	0.275676
0.00787625 	1.64554e-05 	-0.000552403 	0.275552
0.00787625 	1.64554e-05 	-0.000552403 	0.275552
0.00792642 	1.63191e-05 	-0.000552112 	0.275418
0.00797659 	1.61827e-05 	-0.000551821 	0.275284
0.00802676 	1.60407e-05 	-0.00055151 	0.275145
0.00802676 	1.60407e-05 	-0.00055151 	0.275145
0.00807692 	1.58773e-05 	-0.000551127 	0.274988
0.00807692 	1.58773e-05 	-0.000551127 	0.274988
0.00812709 	1.57139e-05 	-0.000550744 	0.274831
0.00817726 	1.55504e-05 	-0.000550361 	0.274674
0.00817726 	1.55504e-05 	-0.000550361 	0.274674
0.00822742 	1.53661e-05 	-0.000549841 	0.274496
0.00827759 	1.51795e-05 	-0.000549306 	0.274317
0.00827759 	1.51795e-05 	-0.000549306 	0.274317
0.00832776 	1.49929e-05 	-0.000548771 	0.274137
0.00832776 	1.49929e-05 	-0.000548771 	0.274137
0.00837793 	1.47937e-05 	-0.000548158 	0.273943
0.00842809 	1.45876e-05 	-0.000547502 	0.27374
0.00842809 	1.45876e-05 	-0.000547502 	0.27374
0.00847826 	1.43815e-05 	-0.000546846 	0.273538
0.00847826 	1.43815e-05 	-0.000546846 	0.273538
0.0085786 	1.39458e-05 	-0.000545359 	0.273101
0.0085786 	1.39458e-05 	-0.000545359 	0.273101
0.00862876 	1.37235e-05 	-0.000544584 	0.272876
0.00867893 	1.3497e-05 	-0.00054377 	0.272644
0.0087291 	1.32615e-05 	-0.000542875 	0.272397
0.00877926 	1.30259e-05 	-0.000541979 	0.27215
0.00882943 	1.27879e-05 	-0.000541057 	0.271897
0.0088796 	1.25417e-05 	-0.000540044 	0.271628
0.0088796 	1.25417e-05 	-0.000540044 	0.271628
0.00892977 	1.22955e-05 	-0.000539032 	0.271358
0.00892977 	1.22955e-05 	-0.000539032 	0.271358
0.00897993 	1.20475e-05 	-0.000537996 	0.271084
0.00897993 	1.20475e-05 	-0.000537996 	0.271084
0.0090301 	1.17929e-05 	-0.000536867 	0.270791
0.00908027 	1.15382e-05 	-0.000535738 	0.270499
0.00908027 	1.15382e-05 	-0.000535738 	0.270499
0.00913043 	1.12821e-05 	-0.000534583 	0.270201
0.0091806 	1.1021e-05 	-0.000533338 	0.269886
0.0091806 	1.1021e-05 	-0.000533338 	0.269886
0.00923077 	1.07598e-05 	-0.000532094 	0.269571
0.00928094 	1.04972e-05 	-0.000530814 	0.269249
0.00928094 	1.04972e-05 	-0.000530814 	0.269249
0.0093311 	1.02312e-05 	-0.000529454 	0.268911
0.00938127 	9.96517e-06 	-0.000528094 	0.268573
0.00938127 	9.96517e-06 	-0.000528094 	0.268573
0.00943144 	9.69765e-06 	-0.000526682 	0.268225
0.00943144 	9.69765e-06 	-0.000526682 	0.268225
0.00948161 	9.4282e-06 	-0.000525205 	0.267864
0.00948161 	9.4282e-06 	-0.000525205 	0.267864
0.00953177 	9.15874e-06 	-0.000523728 	0.267503
0.00953177 	9.15874e-06 	-0.000523728 	0.267503
0.00958194 	8.88788e-06 	-0.000522178 	0.267127
0.00958194 	8.88788e-06 	-0.000522178 	0.267127
0.00963211 	8.61616e-06 	-0.000520582 	0.266742
0.00968227 	8.34443e-06 	-0.000518987 	0.266357
0.00968227 	8.34443e-06 	-0.000518987 	0.266357
0.00973244 	8.07163e-06 	-0.000517289 	0.265952
0.00978261 	7.79863e-06 	-0.000515572 	0.265544
0.00978261 	7.79863e-06 	-0.000515572 	0.265544
0.00983278 	7.52559e-06 	-0.000513841 	0.265132
0.00983278 	7.52559e-06 	-0.000513841 	0.265132
0.00988294 	7.25218e-06 	-0.000512001 	0.264699
0.00993311 	6.97876e-06 	-0.000510161 	0.264266
0.00993311 	6.97876e-06 	-0.000510161 	0.264266
0.00998328 	6.70549e-06 	-0.000508263 	0.263821
0.0100334 	6.43237e-06 	-0.000506296 	0.263363
0.0100836 	6.15925e-06 	-0.000504328 	0.262905
0.0100836 	6.15925e-06 	-0.000504328 	0.262905
0.0101338 	5.88687e-06 	-0.000502252 	0.262426
0.0101839 	5.61464e-06 	-0.000500153 	0.261943
0.0101839 	5.61464e-06 	-0.000500153 	0.261943
0.0102341 	5.34274e-06 	-0.000498021 	0.261453
0.0102341 	5.34274e-06 	-0.000498021 	0.261453
0.0102843 	5.07189e-06 	-0.000495784 	0.260943
0.0103344 	4.80104e-06 	-0.000493548 	0.260434
0.0103344 	4.80104e-06 	-0.000493548 	0.260434
0.0103846 	4.53146e-06 	-0.000491211 	0.259905
0.0103846 	4.53146e-06 	-0.000491211 	0.259905
0.0104348 	4.2624e-06 	-0.000488831 	0.259368
0.0104348 	4.2624e-06 	-0.000488831 	0.259368
0.0104849 	3.99381e-06 	-0.000486419 	0.258826
0.0104849 	3.99381e-06 	-0.000486419 	0.258826
0.0105351 	3.72688e-06 	-0.00048389 	0.258262
0.0105853 	3.45996e-06 	-0.000481361 	0.257697
0.0105853 	3.45996e-06 	-0.000481361 	0.257697
0.0106856 	2.93038e-06 	-0.000476025 	0.256518
0.0106856 	2.93038e-06 	-0.000476025 	0.256518
0.0107358 	2.66684e-06 	-0.000473278 	0.255914
0.010786 	2.40499e-06 	-0.000470428 	0.255292
0.010786 	2.40499e-06 	-0.000470428 	0.255292
0.0108361 	2.14315e-06 	-0.000467576 	0.254669
0.0108863 	1.88418e-06 	-0.000464554 	0.254016
0.0108863 	1.88418e-06 	-0.000464554 	0.254016
0.0109365 	1.6252e-06 	-0.000461531 	0.253362
0.0109365 	1.6252e-06 	-0.000461531 	0.253362
0.0109866 	1.36836e-06 	-0.000458385 	0.252687
0.0110368 	1.11248e-06 	-0.000455182 	0.252001
0.0110368 	1.11248e-06 	-0.000455182 	0.252001
0.011087 	8.5794e-07 	-0.000451901 	0.251302
0.011087 	8.5794e-07 	-0.000451901 	0.251302
0.0111371 	6.05344e-07 	-0.000448506 	0.250584
0.0111873 	3.53328e-07 	-0.000445076 	0.249859
0.0111873 	3.53328e-07 	-0.000445076 	0.249859
0.0112375 	1.04159e-07 	-0.000441473 	0.249105
0.0112876 	-1.4501e-07 	-0.00043787 	0.248351
0.0112876 	-1.4501e-07 	-0.00043787 	0.248351
0.0113378 	-3.90723e-07 	-0.000434048 	0.247562
0.0113378 	-3.90723e-07 	-0.000434048 	0.247562
0.011388 	-6.36331e-07 	-0.000430219 	0.246772
0.0114381 	-8.79041e-07 	-0.000426185 	0.245949
0.0114381 	-8.79041e-07 	-0.000426185 	0.245949
0.0114883 	-1.12107e-06 	-0.000422102 	0.245119
0.0115385 	-1.36095e-06 	-0.000417818 	0.244259
0.0115385 	-1.36095e-06 	-0.000417818 	0.244259
0.0115886 	-1.59985e-06 	-0.000413441 	0.243385
0.0116388 	-1.83743e-06 	-0.00040886 	0.242483
0.0116388 	-1.83743e-06 	-0.00040886 	0.242483
0.011689 	-2.07414e-06 	-0.000404143 	0.241561
0.0117391 	-2.31015e-06 	-0.00039921 	0.240611
0.0117893 	-2.5456e-06 	-0.000394101 	0.239637
0.0118395 	-2.78054e-06 	-0.000388757 	0.238632
0.0118395 	-2.78054e-06 	-0.000388757 	0.238632
0.0118896 	-3.01507e-06 	-0.000383213 	0.2376
0.0119398 	-3.24888e-06 	-0.000377406 	0.236533
0.0119398 	-3.24888e-06 	-0.000377406 	0.236533
0.01199 	-3.48215e-06 	-0.000371397 	0.235439
0.0120401 	-3.71434e-06 	-0.000365089 	0.234303
0.0120401 	-3.71434e-06 	-0.000365089 	0.234303
0.0120903 	-3.94588e-06 	-0.000358601 	0.233141
0.0120903 	-3.94588e-06 	-0.000358601 	0.233141
0.0121906 	-4.40559e-06 	-0.000344795 	0.230696
0.0121906 	-4.40559e-06 	-0.000344795 	0.230696
0.0122408 	-4.63346e-06 	-0.000337414 	0.229398
0.012291 	-4.86099e-06 	-0.000329957 	0.228089
0.012291 	-4.86099e-06 	-0.000329957 	0.228089
0.0123411 	-5.08642e-06 	-0.000322015 	0.226698
0.0123913 	-5.31141e-06 	-0.000313982 	0.225291
0.0123913 	-5.31141e-06 	-0.000313982 	0.225291
0.0124415 	-5.53458e-06 	-0.000305564 	0.223814
0.0124415 	-5.53458e-06 	-0.000305564 	0.223814
0.0124916 	-5.75673e-06 	-0.000296955 	0.222299
0.0124916 	-5.75673e-06 	-0.000296955 	0.222299
0.0125418 	-5.97744e-06 	-0.000288076 	0.220731
0.012592 	-6.1963e-06 	-0.000278907 	0.219098
0.0126421 	-6.41423e-06 	-0.000269594 	0.217433
0.0126421 	-6.41423e-06 	-0.000269594 	0.217433
0.0126923 	-6.62913e-06 	-0.000259901 	0.215672
0.0127425 	-6.84289e-06 	-0.000250097 	0.213878
0.0127425 	-6.84289e-06 	-0.000250097 	0.213878
0.0127926 	-7.05396e-06 	-0.000240039 	0.212005
0.0128428 	-7.26237e-06 	-0.000229804 	0.210064
0.0128428 	-7.26237e-06 	-0.000229804 	0.210064
0.0129431 	-7.67086e-06 	-0.000208902 	0.205981
0.0129431 	-7.67086e-06 	-0.000208902 	0.205981
0.0129933 	-7.87022e-06 	-0.00019829 	0.203832
0.0130435 	-8.06598e-06 	-0.000187596 	0.201609
0.0130435 	-8.06598e-06 	-0.000187596 	0.201609
0.0131438 	-8.44257e-06 	-0.000166132 	0.196888
0.0131438 	-8.44257e-06 	-0.000166132 	0.196888
0.013194 	-8.62332e-06 	-0.000155431 	0.1944
0.0132441 	-8.79685e-06 	-0.000144829 	0.191801
0.0132441 	-8.79685e-06 	-0.000144829 	0.191801
0.0132943 	-8.96515e-06 	-0.000134318 	0.189127
0.0133445 	-9.12563e-06 	-0.000123963 	0.186344
0.0133445 	-9.12563e-06 	-0.000123963 	0.186344
0.0133946 	-9.27585e-06 	-0.000113852 	0.18343
0.0133946 	-9.27585e-06 	-0.000113852 	0.18343
0.0134448 	-9.41833e-06 	-0.000103938 	0.180421
0.0134448 	-9.41833e-06 	-0.000103938 	0.180421
0.013495 	-9.55201e-06 	-9.42547e-05 	0.177306
0.0135452 	-9.67003e-06 	-8.50026e-05 	0.174014
0.0135452 	-9.67003e-06 	-8.50026e-05 	0.174014
0.0135953 	-9.77711e-06 	-7.60603e-05 	0.170602
0.0135953 	-9.77711e-06 	-7.60603e-05 	0.170602
0.0136455 	-9.87225e-06 	-6.74543e-05 	0.167059
0.0136455 	-9.87225e-06 	-6.74543e-05 	0.167059
0.0136957 	-9.95187e-06 	-5.92829e-05 	0.163351
0.0136957 	-9.95187e-06 	-5.92829e-05 	0.163351
0.0137458 	-1.00111e-05 	-5.16568e-05 	0.159434
0.013796 	-1.00525e-05 	-4.44773e-05 	0.155344
0.013796 	-1.00525e-05 	-4.44773e-05 	0.155344
0.0138462 	-1.00742e-05 	-3.77741e-05 	0.151069
0.0138462 	-1.00742e-05 	-3.77741e-05 	0.151069
0.0138963 	-1.00739e-05 	-3.15773e-05 	0.146593
0.0139465 	-1.00408e-05 	-2.60757e-05 	0.141827
0.0139465 	-1.00408e-05 	-2.60757e-05 	0.141827
0.0139967 	-9.97884e-06 	-2.11269e-05 	0.136815
0.0139967 	-9.97884e-06 	-2.11269e-05 	0.136815
0.0140468 	-9.88574e-06 	-1.67297e-05 	0.131542
0.0140468 	-9.88574e-06 	-1.67297e-05 	0.131542
0.014097 	-9.75849e-06 	-1.28913e-05 	0.125988
0.0141472 	-9.59411e-06 	-9.6108e-06 	0.120129
0.0141472 	-9.59411e-06 	-9.6108e-06 	0.120129
0.0141973 	-9.38973e-06 	-6.8735e-06 	0.113938
0.0142475 	-9.13403e-06 	-4.71977e-06 	0.107317
0.0142977 	-8.82713e-06 	-3.01733e-06 	0.100281
0.0142977 	-8.82713e-06 	-3.01733e-06 	0.100281
0.0143478 	-8.46203e-06 	-1.72106e-06 	0.0928221
0.014398 	-8.03194e-06 	-7.91194e-07 	0.0849588
0.014398 	-8.03194e-06 	-7.91194e-07 	0.0849588
0.0144482 	-7.53235e-06 	-1.79609e-07 	0.0767499
0.0144983 	-6.96226e-06 	1.71501e-07 	0.0682999
0.0144983 	-6.96226e-06 	1.71501e-07 	0.0682999
0.0145485 	-6.32544e-06 	3.26565e-07 	0.0597586
0.0145485 	-6.32544e-06 	3.26565e-07 	0.0597586
0.0145987 	-5.63122e-06 	3.50294e-07 	0.0513053
0.0146488 	-4.89439e-06 	2.99544e-07 	0.0431197
0.014699 	-4.13415e-06 	2.17034e-07 	0.0353486
0.014699 	-4.13415e-06 	2.17034e-07 	0.0353486
0.0147492 	-3.37374e-06 	1.2949e-07 	0.0280861
0.0147993 	-2.64459e-06 	5.24845e-08 	0.0213762
0.0147993 	-2.64459e-06 	5.24845e-08 	0.0213762
0.0148495 	-2.00024e-06 	-8.84763e-09 	0.0152278
0.0148495 	-2.00024e-06 	-8.84763e-09 	0.0152278
0.0148997 	-1.46833e-06 	-3.59362e-08 	0.00963065
0.0148997 	-1.46833e-06 	-3.59362e-08 	0.00963065
0.0149498 	-8.95357e-07 	-3.03223e-08 	0.00456648
0.0149498 	-8.95357e-07 	-3.03223e-08 	0.00456648
0.015 	0 	0 	0
0.015 	0 	0 	0
