0 	0 	0 	0
0 	3.7668e-36 	-2.57475e-36 	1.8593e-31
5.01672e-05 	2.97208e-07 	-2.83436e-07 	0.0173425
5.01672e-05 	2.97208e-07 	-2.83436e-07 	0.0173425
0.000100334 	1.73746e-07 	-9.42462e-07 	0.0333453
0.000150502 	-2.201e-08 	-2.0302e-06 	0.0481833
0.000150502 	-2.201e-08 	-2.0302e-06 	0.0481833
0.000200669 	-1.74433e-07 	-3.54325e-06 	0.0619463
0.000200669 	-1.74433e-07 	-3.54325e-06 	0.0619463
0.000250836 	-3.07454e-07 	-5.48029e-06 	0.0747145
0.000301003 	-4.41091e-07 	-7.82863e-06 	0.086557
0.000301003 	-4.41091e-07 	-7.82863e-06 	0.086557
0.000351171 	-5.79691e-07 	-1.05826e-05 	0.097521
0.000401338 	-7.23826e-07 	-1.37474e-05 	0.107631
0.000451505 	-8.71669e-07 	-1.73454e-05 	0.116903
0.000451505 	-8.71669e-07 	-1.73454e-05 	0.116903
0.000501672 	-1.01943e-06 	-2.14128e-05 	0.125365
0.000551839 	-1.16242e-06 	-2.59885e-05 	0.133062
0.000551839 	-1.16242e-06 	-2.59885e-05 	0.133062
0.000602007 	-1.29613e-06 	-3.11031e-05 	0.140054
0.000602007 	-1.29613e-06 	-3.11031e-05 	0.140054
0.000652174 	-1.41708e-06 	-3.67782e-05 	0.14641
0.000652174 	-1.41708e-06 	-3.67782e-05 	0.14641
0.000702341 	-1.52303e-06 	-4.30318e-05 	0.152202
0.000702341 	-1.52303e-06 	-4.30318e-05 	0.152202
0.000752508 	-1.61286e-06 	-4.98805e-05 	0.1575
0.000802676 	-1.68605e-06 	-5.73401e-05 	0.162357
0.000852843 	-1.74016e-06 	-6.55102e-05 	0.166767
0.000852843 	-1.74016e-06 	-6.55102e-05 	0.166767
0.00090301 	-1.77847e-06 	-7.42657e-05 	0.170841
0.00090301 	-1.77847e-06 	-7.42657e-05 	0.170841
0.000953177 	-1.80186e-06 	-8.3556e-05 	0.174618
0.00100334 	-1.81131e-06 	-9.33286e-05 	0.178133
0.00100334 	-1.81131e-06 	-9.33286e-05 	0.178133
0.00105351 	-1.80783e-06 	-0.000103533 	0.181419
0.00105351 	-1.80783e-06 	-0.000103533 	0.181419
0.00110368 	-1.79212e-06 	-0.000114131 	0.184497
0.00115385 	-1.76231e-06 	-0.000125167 	0.187348
0.00120401 	-1.72297e-06 	-0.000136485 	0.190047
0.00120401 	-1.72297e-06 	-0.000136485 	0.190047
0.00130435 	-1.61916e-06 	-0.000159835 	0.195052
0.00130435 	-1.61916e-06 	-0.000159835 	0.195052
0.00135452 	-1.554e-06 	-0.000171854 	0.197351
0.00135452 	-1.554e-06 	-0.000171854 	0.197351
0.00140468 	-1.4815e-06 	-0.000184035 	0.199541
0.00145485 	-1.40324e-06 	-0.000196324 	0.201646
0.00145485 	-1.40324e-06 	-0.000196324 	0.201646
0.00150502 	-1.31962e-06 	-0.000208704 	0.203674
0.00150502 	-1.31962e-06 	-0.000208704 	0.203674
0.00155518 	-1.22808e-06 	-0.000221174 	0.205593
0.00155518 	-1.22808e-06 	-0.000221174 	0.205593
0.00160535 	-1.13196e-06 	-0.000233666 	0.207453
0.00160535 	-1.13196e-06 	-0.000233666 	0.207453
0.00165552 	-1.03179e-06 	-0.000246165 	0.20926
0.00165552 	-1.03179e-06 	-0.000246165 	0.20926
0.00170569 	-9.26163e-07 	-0.000258638 	0.210996
0.00170569 	-9.26163e-07 	-0.000258638 	0.210996
0.00175585 	-8.16236e-07 	-0.00027104 	0.212676
0.00175585 	-8.16236e-07 	-0.00027104 	0.212676
0.00180602 	-7.03361e-07 	-0.000283376 	0.214319
0.00180602 	-7.03361e-07 	-0.000283376 	0.214319
0.00185619 	-5.86279e-07 	-0.000295585 	0.215908
0.00185619 	-5.86279e-07 	-0.000295585 	0.215908
0.00190635 	-4.65532e-07 	-0.00030763 	0.217452
0.00190635 	-4.65532e-07 	-0.00030763 	0.217452
0.00195652 	-3.42493e-07 	-0.000319559 	0.218968
0.00195652 	-3.42493e-07 	-0.000319559 	0.218968
0.00200669 	-2.15482e-07 	-0.000331249 	0.220437
0.00200669 	-2.15482e-07 	-0.000331249 	0.220437
0.00205686 	-8.5685e-08 	-0.000342728 	0.221873
0.00210702 	4.59598e-08 	-0.000354067 	0.223288
0.00210702 	4.59598e-08 	-0.000354067 	0.223288
0.00215719 	1.81964e-07 	-0.000365005 	0.224654
0.00220736 	3.19602e-07 	-0.000375769 	0.226003
0.00225753 	4.5986e-07 	-0.000386251 	0.227323
0.00225753 	4.5986e-07 	-0.000386251 	0.227323
0.00230769 	6.03132e-07 	-0.000396367 	0.228611
0.00230769 	6.03132e-07 	-0.000396367 	0.228611
0.00235786 	7.47704e-07 	-0.000406321 	0.229885
0.00235786 	7.47704e-07 	-0.000406321 	0.229885
0.00240803 	8.96129e-07 	-0.000415754 	0.231119
0.00240803 	8.96129e-07 	-0.000415754 	0.231119
0.00245819 	1.04586e-06 	-0.000424995 	0.23234
0.00245819 	1.04586e-06 	-0.000424995 	0.23234
0.00250836 	1.19824e-06 	-0.000433844 	0.233534
0.00250836 	1.19824e-06 	-0.000433844 	0.233534
0.00255853 	1.35291e-06 	-0.000442333 	0.234705
0.0026087 	1.5092e-06 	-0.000450566 	0.235859
0.0026087 	1.5092e-06 	-0.000450566 	0.235859
0.00265886 	1.66864e-06 	-0.00045828 	0.236983
0.00270903 	1.82882e-06 	-0.000465869 	0.238098
0.00270903 	1.82882e-06 	-0.000465869 	0.238098
0.0027592 	1.99294e-06 	-0.000472791 	0.239176
0.00280936 	2.1577e-06 	-0.000479605 	0.240247
0.00280936 	2.1577e-06 	-0.000479605 	0.240247
0.00285953 	2.32589e-06 	-0.00048584 	0.241286
0.00285953 	2.32589e-06 	-0.00048584 	0.241286
0.0029097 	2.49528e-06 	-0.000491877 	0.242315
0.0029097 	2.49528e-06 	-0.000491877 	0.242315
0.00295987 	2.66771e-06 	-0.000497419 	0.243316
0.00295987 	2.66771e-06 	-0.000497419 	0.243316
0.00301003 	2.84181e-06 	-0.000502703 	0.244303
0.0030602 	3.01868e-06 	-0.000507562 	0.245266
0.00311037 	3.19753e-06 	-0.000512135 	0.246213
0.00311037 	3.19753e-06 	-0.000512135 	0.246213
0.00316054 	3.37897e-06 	-0.000516337 	0.247138
0.00316054 	3.37897e-06 	-0.000516337 	0.247138
0.00326087 	3.74865e-06 	-0.000523847 	0.248934
0.00326087 	3.74865e-06 	-0.000523847 	0.248934
0.00331104 	3.93693e-06 	-0.000527184 	0.249804
0.0033612 	4.1279e-06 	-0.000530209 	0.250654
0.0033612 	4.1279e-06 	-0.000530209 	0.250654
0.00341137 	4.32104e-06 	-0.000533033 	0.251488
0.00341137 	4.32104e-06 	-0.000533033 	0.251488
0.00346154 	4.51747e-06 	-0.000535553 	0.2523
0.00346154 	4.51747e-06 	-0.000535553 	0.2523
0.00351171 	4.71585e-06 	-0.000537933 	0.2531
0.00356187 	4.91855e-06 	-0.000540008 	0.253874
0.00356187 	4.91855e-06 	-0.000540008 	0.253874
0.00361204 	5.12253e-06 	-0.000542008 	0.254642
0.00366221 	5.33195e-06 	-0.000543691 	0.255381
0.00366221 	5.33195e-06 	-0.000543691 	0.255381
0.00371237 	5.54156e-06 	-0.000545363 	0.25612
0.00371237 	5.54156e-06 	-0.000545363 	0.25612
0.00376254 	5.75744e-06 	-0.000546701 	0.256827
0.00376254 	5.75744e-06 	-0.000546701 	0.256827
0.00381271 	5.97332e-06 	-0.000548038 	0.257533
0.00381271 	5.97332e-06 	-0.000548038 	0.257533
0.00386288 	6.19398e-06 	-0.00054912 	0.258213
0.00391304 	6.41561e-06 	-0.000550149 	0.258888
0.00391304 	6.41561e-06 	-0.000550149 	0.258888
0.00396321 	6.64023e-06 	-0.000551018 	0.259544
0.00401338 	6.86692e-06 	-0.000551776 	0.260186
0.00401338 	6.86692e-06 	-0.000551776 	0.260186
0.00406355 	7.095e-06 	-0.000552459 	0.260818
0.00406355 	7.095e-06 	-0.000552459 	0.260818
0.00411371 	7.32614e-06 	-0.00055298 	0.261428
0.00411371 	7.32614e-06 	-0.00055298 	0.261428
0.00421405 	7.79224e-06 	-0.000553824 	0.262617
0.00421405 	7.79224e-06 	-0.000553824 	0.262617
0.00426421 	8.02722e-06 	-0.000554146 	0.263194
0.00426421 	8.02722e-06 	-0.000554146 	0.263194
0.00431438 	8.26416e-06 	-0.000554364 	0.263752
0.00431438 	8.26416e-06 	-0.000554364 	0.263752
0.00436455 	8.50225e-06 	-0.000554522 	0.264297
0.00436455 	8.50225e-06 	-0.000554522 	0.264297
0.00441472 	8.74086e-06 	-0.000554652 	0.264835
0.00441472 	8.74086e-06 	-0.000554652 	0.264835
0.00446488 	8.98124e-06 	-0.000554684 	0.265348
0.00446488 	8.98124e-06 	-0.000554684 	0.265348
0.00451505 	9.22162e-06 	-0.000554717 	0.26586
0.00451505 	9.22162e-06 	-0.000554717 	0.26586
0.00456522 	9.46305e-06 	-0.000554679 	0.266347
0.00456522 	9.46305e-06 	-0.000554679 	0.266347
0.00461538 	9.70478e-06 	-0.000554622 	0.266828
0.00461538 	9.70478e-06 	-0.000554622 	0.266828
0.00466555 	9.9466e-06 	-0.00055455 	0.267298
0.00471572 	1.01887e-05 	-0.000554438 	0.267745
0.00476589 	1.04307e-05 	-0.000554327 	0.268193
0.00476589 	1.04307e-05 	-0.000554327 	0.268193
0.00486622 	1.09135e-05 	-0.000554065 	0.26903
0.00486622 	1.09135e-05 	-0.000554065 	0.26903
0.00491639 	1.11545e-05 	-0.000553933 	0.269439
0.00496656 	1.1394e-05 	-0.000553807 	0.269821
0.00496656 	1.1394e-05 	-0.000553807 	0.269821
0.00501672 	1.16335e-05 	-0.00055368 	0.270203
0.00506689 	1.18713e-05 	-0.000553571 	0.270567
0.00511706 	1.21078e-05 	-0.000553476 	0.270917
0.00511706 	1.21078e-05 	-0.000553476 	0.270917
0.00521739 	1.2577e-05 	-0.000553328 	0.271588
0.00521739 	1.2577e-05 	-0.000553328 	0.271588
0.00526756 	1.28092e-05 	-0.000553283 	0.271905
0.00526756 	1.28092e-05 	-0.000553283 	0.271905
0.00531773 	1.30406e-05 	-0.000553247 	0.272217
0.00536789 	1.32674e-05 	-0.000553264 	0.272503
0.00536789 	1.32674e-05 	-0.000553264 	0.272503
0.00541806 	1.34942e-05 	-0.000553281 	0.272788
0.00546823 	1.37184e-05 	-0.000553324 	0.273062
0.00551839 	1.39384e-05 	-0.000553411 	0.273315
0.00551839 	1.39384e-05 	-0.000553411 	0.273315
0.00556856 	1.41585e-05 	-0.000553497 	0.273569
0.00556856 	1.41585e-05 	-0.000553497 	0.273569
0.0056689 	1.4586e-05 	-0.00055378 	0.274029
0.0056689 	1.4586e-05 	-0.00055378 	0.274029
0.00571906 	1.4798e-05 	-0.000553937 	0.274252
0.00576923 	1.50035e-05 	-0.000554138 	0.274455
0.00576923 	1.50035e-05 	-0.000554138 	0.274455
0.0058194 	1.5206e-05 	-0.000554359 	0.274648
0.0058194 	1.5206e-05 	-0.000554359 	0.274648
0.00591973 	1.56025e-05 	-0.000554841 	0.275012
0.00591973 	1.56025e-05 	-0.000554841 	0.275012
0.0059699 	1.57938e-05 	-0.000555114 	0.275177
0.0059699 	1.57938e-05 	-0.000555114 	0.275177
0.00602007 	1.59852e-05 	-0.000555387 	0.275341
0.00607023 	1.61661e-05 	-0.000555688 	0.275483
0.0061204 	1.63444e-05 	-0.000555996 	0.275619
0.0061204 	1.63444e-05 	-0.000555996 	0.275619
0.00617057 	1.65227e-05 	-0.000556304 	0.275756
0.00622074 	1.66895e-05 	-0.000556623 	0.275872
0.00622074 	1.66895e-05 	-0.000556623 	0.275872
0.0062709 	1.68529e-05 	-0.000556945 	0.275981
0.00632107 	1.70162e-05 	-0.000557268 	0.27609
0.00632107 	1.70162e-05 	-0.000557268 	0.27609
0.00637124 	1.7168e-05 	-0.000557587 	0.276182
0.00637124 	1.7168e-05 	-0.000557587 	0.276182
0.0064214 	1.73144e-05 	-0.000557904 	0.276265
0.0064214 	1.73144e-05 	-0.000557904 	0.276265
0.00647157 	1.74608e-05 	-0.000558221 	0.276348
0.00647157 	1.74608e-05 	-0.000558221 	0.276348
0.00652174 	1.75967e-05 	-0.000558518 	0.276418
0.00657191 	1.77239e-05 	-0.000558799 	0.276476
0.00657191 	1.77239e-05 	-0.000558799 	0.276476
0.00662207 	1.7851e-05 	-0.000559079 	0.276534
0.00667224 	1.79704e-05 	-0.000559344 	0.276583
0.00672241 	1.80757e-05 	-0.000559578 	0.276616
0.00672241 	1.80757e-05 	-0.000559578 	0.276616
0.00677258 	1.81809e-05 	-0.000559812 	0.276649
0.00682274 	1.82837e-05 	-0.000560041 	0.27668
0.00682274 	1.82837e-05 	-0.000560041 	0.27668
0.00687291 	1.8364e-05 	-0.000560225 	0.276689
0.00687291 	1.8364e-05 	-0.000560225 	0.276689
0.00692308 	1.84444e-05 	-0.000560409 	0.276698
0.00697324 	1.85248e-05 	-0.000560593 	0.276707
0.00702341 	1.85831e-05 	-0.000560712 	0.276696
0.00707358 	1.86355e-05 	-0.000560814 	0.276681
0.00707358 	1.86355e-05 	-0.000560814 	0.276681
0.00717391 	1.87271e-05 	-0.000560992 	0.276641
0.00717391 	1.87271e-05 	-0.000560992 	0.276641
0.00722408 	1.87479e-05 	-0.00056103 	0.276602
0.00722408 	1.87479e-05 	-0.00056103 	0.276602
0.00727425 	1.87686e-05 	-0.000561067 	0.276563
0.00727425 	1.87686e-05 	-0.000561067 	0.276563
0.00732441 	1.87894e-05 	-0.000561105 	0.276523
0.00732441 	1.87894e-05 	-0.000561105 	0.276523
0.00737458 	1.87753e-05 	-0.00056105 	0.276461
0.00737458 	1.87753e-05 	-0.00056105 	0.276461
0.00742475 	1.87608e-05 	-0.000560994 	0.276398
0.00747492 	1.87464e-05 	-0.000560938 	0.276335
0.00752508 	1.87141e-05 	-0.000560815 	0.276261
0.00752508 	1.87141e-05 	-0.000560815 	0.276261
0.00757525 	1.86639e-05 	-0.000560625 	0.276174
0.00762542 	1.86136e-05 	-0.000560434 	0.276088
0.00767559 	1.85631e-05 	-0.000560243 	0.276001
0.00767559 	1.85631e-05 	-0.000560243 	0.276001
0.00772575 	1.84784e-05 	-0.000559941 	0.275891
0.00777592 	1.83936e-05 	-0.00055964 	0.275781
0.00777592 	1.83936e-05 	-0.00055964 	0.275781
0.00782609 	1.83089e-05 	-0.000559339 	0.275671
0.00787625 	1.82065e-05 	-0.000558957 	0.275547
0.00787625 	1.82065e-05 	-0.000558957 	0.275547
0.00792642 	1.80914e-05 	-0.000558516 	0.275413
0.00797659 	1.79762e-05 	-0.000558075 	0.27528
0.00802676 	1.78557e-05 	-0.000557606 	0.275142
0.00802676 	1.78557e-05 	-0.000557606 	0.275142
0.00807692 	1.77147e-05 	-0.00055703 	0.274986
0.00807692 	1.77147e-05 	-0.00055703 	0.274986
0.00812709 	1.75738e-05 	-0.000556455 	0.274829
0.00817726 	1.74328e-05 	-0.000555879 	0.274673
0.00817726 	1.74328e-05 	-0.000555879 	0.274673
0.00822742 	1.72717e-05 	-0.000555208 	0.274497
0.00827759 	1.71083e-05 	-0.000554526 	0.274318
0.00827759 	1.71083e-05 	-0.000554526 	0.274318
0.00832776 	1.69449e-05 	-0.000553844 	0.274139
0.00832776 	1.69449e-05 	-0.000553844 	0.274139
0.00837793 	1.67691e-05 	-0.000553085 	0.273945
0.00842809 	1.65865e-05 	-0.000552285 	0.273744
0.00842809 	1.65865e-05 	-0.000552285 	0.273744
0.00847826 	1.64039e-05 	-0.000551485 	0.273543
0.00847826 	1.64039e-05 	-0.000551485 	0.273543
0.0085786 	1.60153e-05 	-0.000549715 	0.273107
0.0085786 	1.60153e-05 	-0.000549715 	0.273107
0.00862876 	1.58167e-05 	-0.000548798 	0.272883
0.00867893 	1.56138e-05 	-0.000547846 	0.272652
0.0087291 	1.54017e-05 	-0.000546816 	0.272406
0.00877926 	1.51897e-05 	-0.000545785 	0.27216
0.00882943 	1.49751e-05 	-0.000544729 	0.271908
0.0088796 	1.47523e-05 	-0.000543586 	0.271639
0.0088796 	1.47523e-05 	-0.000543586 	0.271639
0.00892977 	1.45294e-05 	-0.000542443 	0.27137
0.00892977 	1.45294e-05 	-0.000542443 	0.27137
0.00897993 	1.43048e-05 	-0.000541278 	0.271097
0.00897993 	1.43048e-05 	-0.000541278 	0.271097
0.0090301 	1.40733e-05 	-0.000540024 	0.270805
0.00908027 	1.38417e-05 	-0.00053877 	0.270514
0.00908027 	1.38417e-05 	-0.00053877 	0.270514
0.00913043 	1.36087e-05 	-0.00053749 	0.270217
0.0091806 	1.33705e-05 	-0.000536125 	0.269903
0.0091806 	1.33705e-05 	-0.000536125 	0.269903
0.00923077 	1.31323e-05 	-0.00053476 	0.269589
0.00928094 	1.28925e-05 	-0.00053336 	0.269267
0.00928094 	1.28925e-05 	-0.00053336 	0.269267
0.0093311 	1.26493e-05 	-0.000531884 	0.26893
0.00938127 	1.24061e-05 	-0.000530407 	0.268593
0.00938127 	1.24061e-05 	-0.000530407 	0.268593
0.00943144 	1.21614e-05 	-0.000528882 	0.268245
0.00943144 	1.21614e-05 	-0.000528882 	0.268245
0.00948161 	1.19146e-05 	-0.000527293 	0.267885
0.00948161 	1.19146e-05 	-0.000527293 	0.267885
0.00953177 	1.16679e-05 	-0.000525705 	0.267524
0.00953177 	1.16679e-05 	-0.000525705 	0.267524
0.00958194 	1.14197e-05 	-0.000524046 	0.267149
0.00958194 	1.14197e-05 	-0.000524046 	0.267149
0.00963211 	1.11707e-05 	-0.000522343 	0.266765
0.00968227 	1.09217e-05 	-0.000520641 	0.266381
0.00968227 	1.09217e-05 	-0.000520641 	0.266381
0.00973244 	1.06716e-05 	-0.000518841 	0.265976
0.00978261 	1.04214e-05 	-0.000517023 	0.265568
0.00978261 	1.04214e-05 	-0.000517023 	0.265568
0.00983278 	1.01711e-05 	-0.00051519 	0.265157
0.00983278 	1.01711e-05 	-0.00051519 	0.265157
0.00988294 	9.92058e-06 	-0.000513253 	0.264724
0.00993311 	9.67004e-06 	-0.000511316 	0.264292
0.00993311 	9.67004e-06 	-0.000511316 	0.264292
0.00998328 	9.41973e-06 	-0.000509323 	0.263848
0.0100334 	9.1697e-06 	-0.000507264 	0.26339
0.0100836 	8.91966e-06 	-0.000505204 	0.262933
0.0100836 	8.91966e-06 	-0.000505204 	0.262933
0.0101338 	8.67059e-06 	-0.000503039 	0.262454
0.0101839 	8.42172e-06 	-0.000500853 	0.261971
0.0101839 	8.42172e-06 	-0.000500853 	0.261971
0.0102341 	8.17329e-06 	-0.000498633 	0.261481
0.0102341 	8.17329e-06 	-0.000498633 	0.261481
0.0102843 	7.92618e-06 	-0.000496314 	0.260972
0.0103344 	7.67908e-06 	-0.000493994 	0.260462
0.0103344 	7.67908e-06 	-0.000493994 	0.260462
0.0103846 	7.43358e-06 	-0.000491576 	0.259934
0.0103846 	7.43358e-06 	-0.000491576 	0.259934
0.0104348 	7.18874e-06 	-0.000489117 	0.259397
0.0104348 	7.18874e-06 	-0.000489117 	0.259397
0.0104849 	6.94449e-06 	-0.000486627 	0.258855
0.0104849 	6.94449e-06 	-0.000486627 	0.258855
0.0105351 	6.70236e-06 	-0.000484022 	0.258291
0.0105853 	6.46023e-06 	-0.000481417 	0.257726
0.0105853 	6.46023e-06 	-0.000481417 	0.257726
0.0106856 	5.98143e-06 	-0.000475936 	0.256547
0.0106856 	5.98143e-06 	-0.000475936 	0.256547
0.0107358 	5.74363e-06 	-0.000473118 	0.255943
0.010786 	5.50799e-06 	-0.000470197 	0.255321
0.010786 	5.50799e-06 	-0.000470197 	0.255321
0.0108361 	5.27238e-06 	-0.000467276 	0.254698
0.0108863 	5.04044e-06 	-0.000464185 	0.254044
0.0108863 	5.04044e-06 	-0.000464185 	0.254044
0.0109365 	4.80849e-06 	-0.000461095 	0.25339
0.0109365 	4.80849e-06 	-0.000461095 	0.25339
0.0109866 	4.57928e-06 	-0.000457882 	0.252715
0.0110368 	4.3513e-06 	-0.000454613 	0.252029
0.0110368 	4.3513e-06 	-0.000454613 	0.252029
0.011087 	4.12505e-06 	-0.000451268 	0.251329
0.011087 	4.12505e-06 	-0.000451268 	0.251329
0.0111371 	3.9013e-06 	-0.000447811 	0.25061
0.0111873 	3.67832e-06 	-0.000444319 	0.249884
0.0111873 	3.67832e-06 	-0.000444319 	0.249884
0.0112375 	3.4591e-06 	-0.000440658 	0.24913
0.0112876 	3.23988e-06 	-0.000436997 	0.248375
0.0112876 	3.23988e-06 	-0.000436997 	0.248375
0.0113378 	3.02535e-06 	-0.000433122 	0.247585
0.0113378 	3.02535e-06 	-0.000433122 	0.247585
0.011388 	2.81098e-06 	-0.00042924 	0.246794
0.0114381 	2.60071e-06 	-0.000425157 	0.24597
0.0114381 	2.60071e-06 	-0.000425157 	0.24597
0.0114883 	2.3914e-06 	-0.000421026 	0.24514
0.0115385 	2.18575e-06 	-0.000416696 	0.244279
0.0115385 	2.18575e-06 	-0.000416696 	0.244279
0.0115886 	1.98175e-06 	-0.000412276 	0.243404
0.0116388 	1.78108e-06 	-0.000407652 	0.2425
0.0116388 	1.78108e-06 	-0.000407652 	0.2425
0.011689 	1.5826e-06 	-0.000402893 	0.241578
0.0117391 	1.38712e-06 	-0.000397918 	0.240625
0.0117893 	1.19406e-06 	-0.000392769 	0.23965
0.0118395 	1.00369e-06 	-0.000387384 	0.238643
0.0118395 	1.00369e-06 	-0.000387384 	0.238643
0.0118896 	8.15587e-07 	-0.0003818 	0.237609
0.0119398 	6.30021e-07 	-0.000375954 	0.23654
0.0119398 	6.30021e-07 	-0.000375954 	0.23654
0.01199 	4.46402e-07 	-0.000369907 	0.235443
0.0120401 	2.65374e-07 	-0.000363562 	0.234305
0.0120401 	2.65374e-07 	-0.000363562 	0.234305
0.0120903 	8.59103e-08 	-0.000357037 	0.233141
0.0120903 	8.59103e-08 	-0.000357037 	0.233141
0.0121906 	-2.66128e-07 	-0.000343161 	0.230689
0.0121906 	-2.66128e-07 	-0.000343161 	0.230689
0.0122408 	-4.38248e-07 	-0.000335746 	0.229389
0.012291 	-6.0974e-07 	-0.000328255 	0.228076
0.012291 	-6.0974e-07 	-0.000328255 	0.228076
0.0123411 	-7.77333e-07 	-0.000320281 	0.226682
0.0123913 	-9.44187e-07 	-0.000312217 	0.225271
0.0123913 	-9.44187e-07 	-0.000312217 	0.225271
0.0124415 	-1.10793e-06 	-0.00030377 	0.223791
0.0124415 	-1.10793e-06 	-0.00030377 	0.223791
0.0124916 	-1.2701e-06 	-0.000295133 	0.222273
0.0124916 	-1.2701e-06 	-0.000295133 	0.222273
0.0125418 	-1.43005e-06 	-0.000286229 	0.220701
0.012592 	-1.58747e-06 	-0.000277037 	0.219065
0.0126421 	-1.74363e-06 	-0.000267702 	0.217397
0.0126421 	-1.74363e-06 	-0.000267702 	0.217397
0.0126923 	-1.89617e-06 	-0.000257993 	0.215632
0.0127425 	-2.04748e-06 	-0.000248175 	0.213834
0.0127425 	-2.04748e-06 	-0.000248175 	0.213834
0.0127926 	-2.19596e-06 	-0.000238107 	0.211959
0.0128428 	-2.34196e-06 	-0.000227867 	0.210014
0.0128428 	-2.34196e-06 	-0.000227867 	0.210014
0.0129431 	-2.62667e-06 	-0.000206969 	0.205924
0.0129431 	-2.62667e-06 	-0.000206969 	0.205924
0.0129933 	-2.76512e-06 	-0.000196366 	0.203772
0.0130435 	-2.90084e-06 	-0.000185686 	0.201545
0.0130435 	-2.90084e-06 	-0.000185686 	0.201545
0.0131438 	-3.16195e-06 	-0.000164268 	0.196817
0.0131438 	-3.16195e-06 	-0.000164268 	0.196817
0.013194 	-3.28757e-06 	-0.000153596 	0.194326
0.0132441 	-3.40877e-06 	-0.00014303 	0.191724
0.0132441 	-3.40877e-06 	-0.00014303 	0.191724
0.0132943 	-3.52687e-06 	-0.000132557 	0.189046
0.0133445 	-3.64044e-06 	-0.000122245 	0.186259
0.0133445 	-3.64044e-06 	-0.000122245 	0.186259
0.0133946 	-3.74829e-06 	-0.000112182 	0.183341
0.0133946 	-3.74829e-06 	-0.000112182 	0.183341
0.0134448 	-3.85191e-06 	-0.000102319 	0.180328
0.0134448 	-3.85191e-06 	-0.000102319 	0.180328
0.013495 	-3.95077e-06 	-9.26894e-05 	0.17721
0.0135452 	-4.04119e-06 	-8.34949e-05 	0.173914
0.0135452 	-4.04119e-06 	-8.34949e-05 	0.173914
0.0135953 	-4.12567e-06 	-7.46119e-05 	0.170497
0.0135953 	-4.12567e-06 	-7.46119e-05 	0.170497
0.0136455 	-4.2037e-06 	-6.60671e-05 	0.16695
0.0136455 	-4.2037e-06 	-6.60671e-05 	0.16695
0.0136957 	-4.27342e-06 	-5.79585e-05 	0.163237
0.0136957 	-4.27342e-06 	-5.79585e-05 	0.163237
0.0137458 	-4.33262e-06 	-5.03974e-05 	0.159315
0.013796 	-4.38307e-06 	-4.32845e-05 	0.155221
0.013796 	-4.38307e-06 	-4.32845e-05 	0.155221
0.0138462 	-4.42397e-06 	-3.66493e-05 	0.15094
0.0138462 	-4.42397e-06 	-3.66493e-05 	0.15094
0.0138963 	-4.4544e-06 	-3.05214e-05 	0.146459
0.0139465 	-4.46932e-06 	-2.50894e-05 	0.141689
0.0139465 	-4.46932e-06 	-2.50894e-05 	0.141689
0.0139967 	-4.47065e-06 	-2.02103e-05 	0.136673
0.0139967 	-4.47065e-06 	-2.02103e-05 	0.136673
0.0140468 	-4.45733e-06 	-1.58826e-05 	0.131397
0.0140468 	-4.45733e-06 	-1.58826e-05 	0.131397
0.014097 	-4.42772e-06 	-1.21138e-05 	0.12584
0.0141472 	-4.37992e-06 	-8.90292e-06 	0.119979
0.0141472 	-4.37992e-06 	-8.90292e-06 	0.119979
0.0141973 	-4.31165e-06 	-6.2353e-06 	0.113787
0.0142475 	-4.21662e-06 	-4.15181e-06 	0.107166
0.0142977 	-4.09652e-06 	-2.52197e-06 	0.100132
0.0142977 	-4.09652e-06 	-2.52197e-06 	0.100132
0.0143478 	-3.95072e-06 	-1.301e-06 	0.0926785
0.014398 	-3.77909e-06 	-4.48399e-07 	0.0848243
0.014398 	-3.77909e-06 	-4.48399e-07 	0.0848243
0.0144482 	-3.58199e-06 	8.61233e-08 	0.0766288
0.0144983 	-3.36026e-06 	3.6367e-07 	0.0681967
0.0144983 	-3.36026e-06 	3.6367e-07 	0.0681967
0.0145485 	-3.11537e-06 	4.52414e-07 	0.0596766
0.0145485 	-3.11537e-06 	4.52414e-07 	0.0596766
0.0145987 	-2.84908e-06 	4.21208e-07 	0.0512461
0.0146488 	-2.563e-06 	3.31238e-07 	0.0430825
0.014699 	-2.25794e-06 	2.28737e-07 	0.0353302
0.014699 	-2.25794e-06 	2.28737e-07 	0.0353302
0.0147492 	-1.93287e-06 	1.41828e-07 	0.0280818
0.0147993 	-1.58219e-06 	8.14988e-08 	0.0213808
0.0147993 	-1.58219e-06 	8.14988e-08 	0.0213808
0.0148495 	-1.18739e-06 	4.89353e-08 	0.0152368
0.0148495 	-1.18739e-06 	4.89353e-08 	0.0152368
0.0148997 	-7.34846e-07 	3.03985e-08 	0.00964151
0.0148997 	-7.34846e-07 	3.03985e-08 	0.00964151
0.0149498 	-2.92331e-07 	1.6945e-08 	0.00457656
0.0149498 	-2.92331e-07 	1.6945e-08 	0.00457656
0.015 	0 	0 	0
0.015 	0 	0 	0
