/*--------------------------------*- C++ -*----------------------------------*\
| =========                 |                                                 |
| \\      /  F ield         | OpenFOAM: The Open Source CFD Toolbox           |
|  \\    /   O peration     | Version:  v1906                                 |
|   \\  /    A nd           | Web:      www.OpenFOAM.com                      |
|    \\/     M anipulation  |                                                 |
\*---------------------------------------------------------------------------*/
FoamFile
{
    version     2.0;
    format      ascii;
    class       volScalarField;
    location    "38.8";
    object      alphat;
}
// * * * * * * * * * * * * * * * * * * * * * * * * * * * * * * * * * * * * * //

dimensions      [1 -1 -1 0 0 0 0];


internalField   nonuniform List<scalar> 
2000
(
3.32552e-06
2.12081e-05
4.86775e-05
6.36833e-05
6.57761e-05
6.65992e-05
6.57755e-05
6.36877e-05
4.86919e-05
2.12305e-05
1.12757e-05
0.000435278
0.000685631
0.000791881
0.000810406
0.000816905
0.00081039
0.000791884
0.000685693
0.000435451
8.23477e-05
0.00188734
0.00208916
0.00222391
0.00225433
0.00226807
0.0022543
0.00222387
0.00208921
0.0018875
0.00068853
0.00333976
0.00363894
0.00385437
0.00390488
0.00392735
0.00390482
0.00385429
0.0036391
0.00333997
0.00243899
0.00505323
0.00542646
0.00565614
0.00572629
0.00575844
0.00572619
0.00565603
0.00542671
0.00505361
0.00479336
0.00726233
0.00763467
0.00769372
0.00777423
0.00781368
0.00777406
0.00769348
0.0076348
0.00726269
0.0078062
0.01045
0.00946765
0.00945675
0.00957099
0.00962475
0.0095707
0.00945624
0.00946739
0.0104501
0.0115445
0.0139942
0.0113769
0.0110462
0.0111406
0.0111961
0.0111402
0.0110455
0.0113762
0.0139933
0.016233
0.0167446
0.0136058
0.0131385
0.0132579
0.0133077
0.0132577
0.0131381
0.0136051
0.0167436
0.0210416
0.0188414
0.0165588
0.0165548
0.0167594
0.0167983
0.0167596
0.0165552
0.016559
0.0188405
1.38894e-05
6.61256e-05
9.75523e-05
0.000111173
0.000118552
0.000120981
0.000118557
0.000111184
9.75789e-05
6.61538e-05
5.73272e-05
0.000824539
0.000985025
0.00106232
0.00111539
0.00113024
0.00111541
0.00106237
0.000985161
0.000824705
0.000602752
0.00302175
0.00306637
0.00315266
0.00324228
0.00326956
0.00324233
0.00315276
0.00306649
0.00302181
0.00244047
0.00505276
0.00533069
0.00552938
0.00565589
0.00570092
0.00565599
0.00552957
0.00533091
0.00505299
0.0043763
0.00687505
0.00773313
0.00805165
0.00821595
0.00827904
0.00821612
0.00805194
0.00773357
0.00687559
0.0063509
0.00889215
0.0105092
0.0108651
0.0110578
0.0111333
0.0110581
0.0108655
0.0105098
0.00889298
0.00826029
0.0114146
0.0137094
0.0141006
0.0143281
0.0144082
0.0143284
0.0141011
0.0137102
0.0114156
0.010195
0.0143788
0.0172933
0.0176368
0.0179173
0.0179825
0.0179178
0.0176377
0.0172945
0.01438
0.0127086
0.016238
0.0194791
0.0200435
0.0203164
0.0203725
0.0203171
0.0200445
0.01948
0.0162388
0.013026
0.0166761
0.0193018
0.0197068
0.0198917
0.0199333
0.0198923
0.0197075
0.0193022
0.0166766
1.07927e-05
7.44376e-05
9.46504e-05
0.000100138
0.000103567
0.000104217
0.000103569
0.000100142
9.46639e-05
7.44713e-05
0.000256345
0.00077797
0.000836639
0.000845158
0.000856527
0.000857921
0.000856519
0.000845158
0.000836688
0.000778131
0.00228912
0.00282774
0.00255959
0.00255305
0.00257698
0.0025832
0.00257696
0.00255302
0.0025596
0.00282769
0.00514302
0.00506312
0.00444873
0.00444556
0.00449114
0.00450647
0.00449111
0.00444549
0.00444869
0.00506299
0.00747736
0.00690615
0.0062129
0.00622162
0.00629223
0.00631994
0.00629217
0.00622148
0.00621284
0.00690613
0.00952856
0.00876728
0.00803161
0.00798314
0.00806733
0.00810824
0.00806719
0.00798286
0.0080315
0.00876736
0.0116042
0.0112235
0.00978462
0.00967375
0.00974404
0.00979457
0.00974372
0.00967315
0.00978412
0.0112236
0.0140356
0.0145731
0.0114941
0.0110501
0.0111276
0.0111852
0.0111272
0.0110493
0.0114932
0.0145733
0.0173629
0.0171095
0.0136428
0.0130649
0.0131619
0.0132183
0.0131616
0.0130644
0.013642
0.0171084
0.0210284
0.018857
0.0164131
0.016308
0.016521
0.0165752
0.0165212
0.0163083
0.0164133
0.0188562
5.52838e-05
9.0059e-05
0.000104431
0.000114974
0.000122815
0.000125259
0.000122818
0.000114982
0.00010445
9.00891e-05
0.000703907
0.000921088
0.000986154
0.00104634
0.00109441
0.00110873
0.00109442
0.00104638
0.000986246
0.000921255
0.00331138
0.00336314
0.00316141
0.0032
0.00328421
0.00330813
0.00328424
0.00320008
0.00316144
0.00336322
0.00650537
0.00624118
0.00586722
0.00588784
0.00600972
0.0060488
0.00600982
0.00588802
0.0058672
0.00624113
0.00922297
0.00878923
0.00851141
0.00858618
0.00874769
0.00880602
0.00874788
0.00858647
0.0085115
0.00878932
0.0108662
0.0106366
0.0111005
0.0112945
0.0114988
0.0115745
0.0114991
0.0112949
0.0111008
0.0106371
0.0118875
0.0124919
0.0139832
0.0143941
0.0146467
0.0147363
0.014647
0.0143946
0.0139839
0.0124929
0.0126588
0.014815
0.0174682
0.0180537
0.0182545
0.0183191
0.018255
0.0180545
0.0174693
0.0148165
0.0130122
0.0166127
0.0197677
0.0203396
0.0205426
0.0205958
0.0205433
0.0203406
0.0197686
0.016614
0.0122269
0.0167246
0.0193368
0.0197855
0.0199304
0.0199621
0.0199309
0.0197863
0.0193371
0.0167253
3.0738e-05
8.40139e-05
9.90463e-05
0.000101048
0.000102907
0.000102837
0.000102905
0.000101049
9.9053e-05
8.40445e-05
0.00041576
0.000732273
0.000826617
0.000830403
0.000838565
0.000837967
0.000838542
0.000830388
0.00082664
0.000732447
0.00271184
0.00254981
0.00249132
0.00248146
0.0024948
0.00249525
0.00249475
0.00248141
0.00249132
0.00254993
0.00622106
0.00501794
0.00456756
0.00449141
0.00451039
0.00451205
0.00451031
0.00449129
0.00456745
0.00501789
0.00984287
0.00763774
0.00669338
0.00652745
0.00655582
0.00656467
0.0065557
0.00652724
0.0066931
0.0076374
0.0126332
0.0102801
0.00852053
0.00839715
0.00843107
0.00846064
0.00843087
0.00839676
0.00852021
0.0102796
0.0147163
0.0128635
0.0102015
0.00990105
0.00993103
0.00996914
0.00993072
0.00990041
0.0102008
0.0128629
0.0168556
0.015508
0.0118249
0.0112147
0.0112379
0.0112799
0.0112375
0.0112139
0.0118239
0.015507
0.0196764
0.017698
0.0137572
0.0130266
0.0130784
0.0131209
0.0130781
0.013026
0.0137564
0.017697
0.0217306
0.0190657
0.016324
0.0161581
0.0163625
0.016407
0.0163626
0.0161583
0.0163241
0.019065
0.000100294
9.53873e-05
0.000105123
0.000113784
0.000120626
0.000122879
0.000120628
0.00011379
0.000105136
9.54097e-05
0.00106171
0.000923013
0.000974594
0.00103513
0.00108445
0.00110056
0.00108445
0.00103516
0.000974665
0.000923109
0.00397666
0.00323121
0.00310189
0.00316545
0.00325006
0.00327842
0.00325009
0.00316551
0.00310191
0.0032311
0.0076155
0.00632865
0.00583513
0.00584616
0.00595991
0.00599726
0.00595999
0.00584629
0.00583503
0.00632834
0.0106337
0.00932867
0.00869534
0.00865933
0.00879873
0.00884464
0.00879888
0.00865955
0.00869522
0.00932851
0.0125928
0.0117475
0.0114893
0.0115173
0.0116878
0.0117463
0.011688
0.0115176
0.0114894
0.0117478
0.0134551
0.0138183
0.0144865
0.0147039
0.0149098
0.0149807
0.01491
0.0147043
0.0144869
0.013819
0.0133056
0.015595
0.0179279
0.0182664
0.0184552
0.0185173
0.0184557
0.0182672
0.0179284
0.0155961
0.0126776
0.0167436
0.0199956
0.0205367
0.0207199
0.0207724
0.0207205
0.0205377
0.0199964
0.0167449
0.0116923
0.0167984
0.0194846
0.0199364
0.0200463
0.020078
0.0200469
0.0199371
0.019485
0.0167992
3.36728e-05
9.16309e-05
0.000106515
0.000107291
0.00010831
0.000108101
0.000108308
0.000107288
0.000106516
9.16499e-05
0.000183118
0.000725099
0.000841065
0.000838406
0.000840633
0.000838465
0.000840607
0.000838373
0.000841065
0.000725218
0.00139147
0.00238065
0.00249487
0.00249874
0.00250586
0.00250515
0.00250581
0.00249867
0.00249487
0.00238073
0.00417897
0.00469216
0.00466692
0.00462249
0.00463119
0.00463083
0.0046311
0.00462233
0.00466693
0.00469218
0.00839053
0.00752043
0.00679471
0.00670867
0.00673538
0.00674767
0.00673526
0.00670843
0.00679456
0.00752002
0.0128111
0.0106586
0.00879151
0.0085709
0.00859343
0.00861523
0.00859323
0.00857047
0.00879107
0.0106577
0.0157813
0.0135697
0.0105211
0.01009
0.0100966
0.0101268
0.0100963
0.0100893
0.0105203
0.0135688
0.0181628
0.0160773
0.0120193
0.0112982
0.011288
0.0113223
0.0112877
0.0112974
0.0120181
0.0160763
0.021078
0.0180328
0.0137222
0.0129267
0.01296
0.0129966
0.0129597
0.0129261
0.0137213
0.0180319
0.0228383
0.0191357
0.0161408
0.0159868
0.016194
0.0162385
0.0161941
0.015987
0.016141
0.0191351
0.000118245
8.86279e-05
9.8045e-05
0.00010599
0.000112471
0.000114681
0.000112472
0.000105993
9.80578e-05
8.8649e-05
0.00132608
0.000893162
0.000939885
0.00099435
0.00104261
0.00105905
0.00104261
0.000994376
0.000939968
0.000893285
0.00435142
0.00293285
0.00289668
0.00298387
0.00307179
0.00310389
0.00307182
0.00298395
0.00289677
0.00293287
0.00819127
0.00558568
0.00541536
0.00550724
0.0056298
0.00567397
0.00562987
0.00550738
0.00541543
0.00558565
0.0115079
0.00862083
0.00828797
0.0083343
0.00848759
0.00853927
0.00848772
0.00833451
0.00828797
0.00862089
0.0129933
0.0114038
0.0114201
0.0114131
0.0115897
0.0116457
0.01159
0.0114134
0.01142
0.011404
0.012865
0.013613
0.0148139
0.0148625
0.0150554
0.0151135
0.0150557
0.0148629
0.0148141
0.0136135
0.0119386
0.0154836
0.0179613
0.0182865
0.0184946
0.0185509
0.0184952
0.0182874
0.0179618
0.0154844
0.0115642
0.0168226
0.0201239
0.0206446
0.0208368
0.0208838
0.0208375
0.0206456
0.0201247
0.0168236
0.0112731
0.0170029
0.0197219
0.0201476
0.0202416
0.0202695
0.0202422
0.0201484
0.0197223
0.0170038
4.20177e-05
9.67115e-05
0.000114026
0.000116347
0.00011842
0.000118811
0.000118417
0.000116346
0.000114029
9.67283e-05
0.000164573
0.000738603
0.000881723
0.000884554
0.000885334
0.000884191
0.000885306
0.000884524
0.000881722
0.00073872
0.000653687
0.00239162
0.00268235
0.00270264
0.00272056
0.00272427
0.00272051
0.00270258
0.0026824
0.00239183
0.00211798
0.00470382
0.00479196
0.00480779
0.0048427
0.00485
0.00484263
0.00480768
0.00479197
0.0047038
0.00609519
0.0076006
0.00695264
0.00688389
0.00692285
0.00693772
0.00692274
0.00688367
0.00695248
0.00760003
0.0105232
0.01071
0.00888069
0.00867463
0.00870278
0.00872644
0.0087026
0.00867423
0.00888027
0.0107089
0.0135581
0.0135301
0.010449
0.0100538
0.0100643
0.0100973
0.010064
0.0100532
0.0104483
0.013529
0.0164662
0.0160111
0.011804
0.0111573
0.0111546
0.0111934
0.0111542
0.0111565
0.011803
0.0160096
0.0201459
0.0178008
0.013468
0.0127727
0.0128236
0.0128652
0.0128233
0.0127721
0.0134671
0.0177996
0.02421
0.0189564
0.0159931
0.0158967
0.0161149
0.0161646
0.016115
0.015897
0.0159933
0.0189557
5.61607e-05
4.22775e-05
5.79613e-05
7.01157e-05
7.67214e-05
7.87657e-05
7.67217e-05
7.01194e-05
5.79767e-05
4.23046e-05
0.00124589
0.000589518
0.000624097
0.000687287
0.000738345
0.000754784
0.000738348
0.000687304
0.000624171
0.000589661
0.00340363
0.00203229
0.00219588
0.00235525
0.00245115
0.00248259
0.00245118
0.00235533
0.00219608
0.00203264
0.00563753
0.00413614
0.0045213
0.00476871
0.00493652
0.00498821
0.00493659
0.00476889
0.00452162
0.00413685
0.00932232
0.00740489
0.00762773
0.00775049
0.00795988
0.00802255
0.00795999
0.00775069
0.00762785
0.00740573
0.0123317
0.0105499
0.0108812
0.0109195
0.0111634
0.0112328
0.0111636
0.0109198
0.0108812
0.0105506
0.0110254
0.0131863
0.0141524
0.0142403
0.0144969
0.0145675
0.0144972
0.0142409
0.0141524
0.0131872
0.0100517
0.015449
0.0171513
0.0174589
0.0177252
0.0177911
0.0177257
0.0174597
0.0171517
0.0154499
0.0102787
0.0168905
0.0194007
0.0199623
0.0202151
0.0202693
0.0202158
0.0199633
0.0194015
0.0168912
0.0108062
0.0170501
0.0194941
0.019976
0.0201046
0.0201347
0.0201052
0.0199769
0.0194946
0.0170507
0.0211601
0.0191874
0.0188355
0.0194451
0.0197207
0.0197447
0.0197213
0.0194461
0.0188366
0.019187
0.017894
0.0175662
0.0185058
0.0190487
0.0192086
0.0191968
0.0192091
0.0190495
0.0185068
0.0175664
0.0145628
0.0148416
0.0159902
0.016494
0.0165992
0.016579
0.0165994
0.0164944
0.0159911
0.0148421
0.0117536
0.0124131
0.0132151
0.0136147
0.0136911
0.0136787
0.0136911
0.0136148
0.0132156
0.0124136
0.00951094
0.00991171
0.0103312
0.0105724
0.0105901
0.0105747
0.01059
0.0105724
0.0103316
0.00991204
0.00709096
0.00715691
0.00728444
0.00740174
0.00738989
0.0073779
0.00738978
0.00740165
0.00728453
0.00715708
0.00438008
0.00423965
0.00421166
0.00424718
0.00422288
0.00421444
0.0042228
0.00424709
0.00421157
0.00423969
0.001837
0.00169292
0.00162064
0.00162665
0.00161061
0.00160615
0.00161056
0.00162658
0.00162056
0.00169289
0.000117827
0.000102727
9.57278e-05
9.78004e-05
9.74483e-05
9.73377e-05
9.74455e-05
9.77964e-05
9.57231e-05
0.000102724
8.90736e-06
8.52614e-06
8.35542e-06
8.62088e-06
8.73131e-06
8.7637e-06
8.7314e-06
8.62114e-06
8.35573e-06
8.52641e-06
0.0133331
0.0155069
0.0163607
0.0164104
0.0164466
0.0164655
0.0164466
0.0164104
0.0163604
0.0155072
0.0136204
0.0140631
0.0136577
0.013548
0.0135254
0.0135471
0.013525
0.0135475
0.0136573
0.014063
0.0132617
0.0124204
0.0119586
0.011968
0.0119799
0.0120184
0.0119794
0.0119676
0.0119583
0.0124209
0.0116868
0.0108088
0.0105312
0.0106172
0.01066
0.010712
0.0106598
0.010617
0.010531
0.0108092
0.00947893
0.00878308
0.00870632
0.00882924
0.00887748
0.00892795
0.00887741
0.00882921
0.00870618
0.00878336
0.00675327
0.0064141
0.0064705
0.00660485
0.00666099
0.00671101
0.00666105
0.00660494
0.00647044
0.0064143
0.00388527
0.00366982
0.00380073
0.0039173
0.00396407
0.0040029
0.00396419
0.00391745
0.00380074
0.00366995
0.00163318
0.00158896
0.00168159
0.00173687
0.00176543
0.0017811
0.00176548
0.00173693
0.00168161
0.00158901
0.000101367
9.50198e-05
0.000113809
0.00012481
0.000131562
0.000135023
0.000131575
0.000124828
0.000113815
9.50237e-05
4.78217e-06
4.58461e-06
5.14171e-06
5.6018e-06
5.88753e-06
6.0123e-06
5.88809e-06
5.60261e-06
5.14226e-06
4.58491e-06
0.0212169
0.0190684
0.018779
0.0192946
0.0195689
0.0196056
0.0195694
0.0192955
0.0187801
0.0190682
0.0182461
0.0173153
0.0183193
0.0189042
0.0191073
0.0191136
0.0191078
0.0189049
0.0183203
0.0173158
0.0145704
0.0146847
0.0158933
0.0164274
0.0165766
0.0165748
0.0165769
0.0164279
0.0158941
0.0146851
0.0114936
0.0120264
0.0129511
0.0133665
0.0134825
0.0134826
0.0134826
0.0133667
0.0129517
0.0120268
0.00882548
0.00919813
0.00982369
0.0100991
0.0101728
0.010182
0.0101728
0.0100992
0.0098241
0.0091985
0.00618454
0.00622463
0.0067314
0.00690396
0.00693609
0.00693158
0.00693598
0.0069039
0.00673148
0.00622471
0.00338659
0.00338102
0.00364599
0.003724
0.00375911
0.00376753
0.00375907
0.003724
0.00364595
0.003381
0.00155731
0.00151
0.00153914
0.00154108
0.00154524
0.00154468
0.00154517
0.001541
0.00153906
0.00150994
9.16123e-05
8.53315e-05
9.24431e-05
9.29941e-05
9.48054e-05
9.54202e-05
9.48011e-05
9.29912e-05
9.24354e-05
8.53255e-05
3.08125e-06
2.83289e-06
3.20122e-06
3.36687e-06
3.49916e-06
3.5608e-06
3.49921e-06
3.36697e-06
3.20108e-06
2.83277e-06
0.0125245
0.0152515
0.016269
0.0163016
0.0163063
0.0163172
0.0163063
0.0163016
0.0162687
0.0152517
0.0131709
0.0134213
0.0133193
0.0132505
0.0132474
0.0132728
0.013247
0.01325
0.0133189
0.0134212
0.0124428
0.0117242
0.0114142
0.0114487
0.011507
0.0115546
0.0115065
0.0114483
0.0114139
0.0117245
0.0105413
0.00985355
0.00974103
0.00984053
0.00994069
0.00999948
0.00994043
0.00984034
0.00974083
0.00985393
0.00810964
0.00777156
0.0079459
0.00809491
0.0082176
0.0082695
0.0082175
0.00809492
0.00794586
0.0077718
0.00548333
0.00532095
0.00553809
0.00566187
0.00576857
0.00580651
0.00576858
0.00566201
0.00553817
0.00532118
0.00341896
0.00338285
0.00350452
0.0035792
0.0036494
0.00367193
0.00364942
0.0035793
0.0035046
0.00338296
0.00175872
0.00176576
0.00180492
0.00184212
0.00187305
0.00188167
0.00187306
0.00184215
0.00180497
0.0017658
0.000117215
0.000120686
0.000134004
0.000142453
0.000150988
0.000153059
0.000150995
0.000142468
0.000134019
0.000120693
3.18644e-06
3.2391e-06
3.76145e-06
4.08464e-06
4.3875e-06
4.47955e-06
4.38782e-06
4.08526e-06
3.76196e-06
3.2393e-06
0.0212756
0.0189932
0.0186249
0.019119
0.0194219
0.0194599
0.0194225
0.0191199
0.0186259
0.018993
0.0180452
0.0170811
0.0180438
0.018668
0.0189271
0.0189418
0.0189276
0.0186688
0.0180448
0.0170816
0.0140171
0.0143042
0.0155955
0.0161637
0.0163651
0.0163727
0.0163654
0.0161642
0.0155963
0.0143045
0.0109822
0.0115439
0.0122988
0.0126293
0.0127527
0.0127706
0.0127528
0.0126296
0.0122991
0.0115442
0.00831579
0.00845745
0.00913816
0.0093888
0.00948883
0.00950462
0.00948885
0.00938894
0.0091384
0.00845761
0.00566901
0.00592468
0.00635369
0.00648941
0.00655567
0.00656438
0.00655562
0.00648941
0.00635381
0.00592476
0.00362013
0.00377804
0.00392238
0.00397518
0.00400263
0.00400222
0.00400253
0.00397507
0.00392242
0.00377806
0.00179853
0.00183637
0.00184365
0.00185513
0.00185815
0.00185504
0.00185807
0.00185502
0.00184361
0.00183637
0.000115411
0.000115055
0.000116142
0.000117064
0.000118386
0.000118301
0.000118378
0.000117054
0.000116136
0.000115051
2.80999e-06
2.70783e-06
2.87256e-06
2.93095e-06
3.01445e-06
3.03644e-06
3.01436e-06
2.93089e-06
2.87249e-06
2.70775e-06
0.0119962
0.0152121
0.0162387
0.0162733
0.0162497
0.0162608
0.0162498
0.0162732
0.0162384
0.0152124
0.0126382
0.013162
0.0131391
0.0131064
0.0131011
0.0131298
0.0131007
0.0131059
0.0131387
0.0131622
0.0119062
0.0114684
0.0112754
0.0113522
0.011426
0.0114775
0.0114255
0.0113519
0.0112752
0.0114687
0.0101542
0.00979125
0.00968764
0.0098071
0.00992307
0.00998263
0.00992276
0.00980686
0.00968756
0.00979158
0.00774506
0.00761413
0.00775788
0.00790122
0.00803374
0.00807768
0.00803364
0.00790124
0.00775798
0.00761446
0.00554083
0.00553902
0.00562578
0.00576414
0.00587148
0.00589871
0.00587143
0.00576417
0.00562593
0.00553928
0.00361946
0.00366441
0.00369742
0.0038034
0.00387197
0.00388812
0.00387196
0.00380341
0.00369753
0.00366456
0.00181329
0.00183958
0.00186709
0.00192305
0.00195687
0.00196605
0.00195688
0.00192307
0.00186714
0.00183964
0.000122
0.000129252
0.00013904
0.000151426
0.000159948
0.000161932
0.000159954
0.000151436
0.000139056
0.00012926
3.29132e-06
3.4776e-06
3.84314e-06
4.19242e-06
4.4721e-06
4.53865e-06
4.47234e-06
4.19284e-06
3.84367e-06
3.4778e-06
0.0216589
0.0188944
0.0184244
0.018969
0.0193025
0.0193467
0.019303
0.0189699
0.0184255
0.0188943
0.0179281
0.0169614
0.0178466
0.0185359
0.018832
0.0188556
0.0188325
0.0185367
0.0178477
0.0169615
0.0137873
0.0142267
0.0151533
0.0154806
0.0156671
0.0156896
0.0156672
0.0154808
0.0151536
0.014227
0.010798
0.0109989
0.0115808
0.0119249
0.0120615
0.012072
0.0120615
0.0119251
0.0115812
0.0109991
0.00789767
0.00821348
0.00875364
0.00901135
0.00909868
0.00910145
0.00909865
0.00901137
0.00875391
0.00821369
0.00576415
0.00609457
0.00640936
0.00656254
0.00660707
0.00660741
0.00660698
0.00656244
0.00640946
0.00609468
0.0038764
0.00406218
0.00418868
0.00426598
0.0042831
0.00428385
0.004283
0.00426584
0.00418869
0.00406219
0.00190364
0.00195577
0.00199114
0.00202194
0.00202724
0.00202807
0.00202717
0.00202187
0.00199113
0.00195575
0.000121005
0.000121828
0.00012348
0.000126052
0.000126954
0.000127046
0.000126946
0.000126041
0.000123475
0.000121822
2.7429e-06
2.68386e-06
2.76158e-06
2.84728e-06
2.90686e-06
2.91729e-06
2.90671e-06
2.84711e-06
2.76147e-06
2.68375e-06
0.011615
0.0153393
0.0163749
0.0163888
0.0163346
0.0163398
0.0163346
0.0163888
0.0163746
0.0153396
0.0121871
0.0131569
0.0131467
0.0130651
0.0130205
0.0130445
0.0130202
0.0130647
0.0131463
0.0131571
0.0116096
0.0114481
0.0113825
0.0114423
0.0114854
0.0115408
0.011485
0.0114419
0.0113824
0.0114485
0.0102405
0.0101024
0.0100884
0.0102687
0.0103847
0.0104419
0.0103844
0.0102685
0.0100884
0.0101027
0.00811808
0.00812975
0.00823653
0.00840251
0.00852861
0.00856947
0.00852851
0.00840245
0.00823667
0.00813007
0.00613502
0.00623569
0.00628599
0.00644818
0.00655548
0.00658589
0.00655544
0.00644817
0.00628617
0.00623595
0.00396144
0.00404898
0.00406441
0.00419448
0.00427073
0.00429231
0.00427073
0.0041945
0.00406455
0.00404915
0.00183157
0.00186278
0.00188647
0.00195164
0.00199012
0.00200214
0.00199014
0.00195168
0.00188654
0.00186284
0.000124515
0.000133007
0.000141501
0.000154677
0.000163298
0.000165571
0.000163305
0.000154688
0.000141517
0.000133016
3.56218e-06
3.83643e-06
4.18198e-06
4.59636e-06
4.89762e-06
4.97746e-06
4.89786e-06
4.59677e-06
4.18253e-06
3.83662e-06
0.0222722
0.0188668
0.0183294
0.0189256
0.0192686
0.0193186
0.0192691
0.0189265
0.0183305
0.0188667
0.0180589
0.0170049
0.0178539
0.0185766
0.0188721
0.0188992
0.0188726
0.0185774
0.017855
0.0170051
0.0138147
0.0143582
0.0151666
0.0155235
0.0157067
0.0157278
0.0157068
0.0155238
0.0151671
0.0143587
0.0108845
0.0113279
0.0117887
0.012156
0.0122839
0.0122869
0.0122838
0.0121561
0.0117892
0.011328
0.00811468
0.0084529
0.00887183
0.00914748
0.00921899
0.00921335
0.00921892
0.00914746
0.00887211
0.00845313
0.00573538
0.00602457
0.00627814
0.00645598
0.00648829
0.00648767
0.0064882
0.00645589
0.00627824
0.00602473
0.00371696
0.0038497
0.00397793
0.00406807
0.00407667
0.00408007
0.00407659
0.00406797
0.00397791
0.00384975
0.00183308
0.00186703
0.00191554
0.00193998
0.0019399
0.00194045
0.00193983
0.00193992
0.00191551
0.00186702
0.000115104
0.000113911
0.000115892
0.00011742
0.000117019
0.000117084
0.000117011
0.00011741
0.000115883
0.000113907
2.41591e-06
2.34508e-06
2.40146e-06
2.527e-06
2.58284e-06
2.59775e-06
2.58268e-06
2.52685e-06
2.4013e-06
2.34505e-06
0.0112449
0.0154139
0.0165672
0.0166366
0.0165924
0.0165915
0.0165924
0.0166366
0.0165669
0.0154142
0.0123504
0.014072
0.0139831
0.0137028
0.0135782
0.0135796
0.0135778
0.0137023
0.0139825
0.0140723
0.0119069
0.0123114
0.0121315
0.0120219
0.0119805
0.0120045
0.0119801
0.0120213
0.0121311
0.0123119
0.0106398
0.0105424
0.0105005
0.0105943
0.0106829
0.0107316
0.0106828
0.0105942
0.0105005
0.0105425
0.00873493
0.00875508
0.00888497
0.0090821
0.00920647
0.00926263
0.00920643
0.00908208
0.00888509
0.00875538
0.00717013
0.00736211
0.00751811
0.00768
0.00777816
0.00782356
0.00777814
0.00767999
0.00751828
0.00736238
0.00538833
0.00559783
0.00564419
0.00568135
0.00571893
0.00573682
0.00571889
0.00568129
0.00564431
0.00559797
0.00282138
0.00287016
0.00283031
0.0028565
0.00288462
0.00289592
0.00288464
0.00285652
0.00283039
0.0028702
0.000290105
0.000300626
0.000297434
0.000304942
0.000312744
0.000315251
0.000312747
0.000304948
0.000297456
0.000300624
1.19593e-05
1.29163e-05
1.37562e-05
1.43404e-05
1.48307e-05
1.49978e-05
1.48312e-05
1.43411e-05
1.37573e-05
1.29167e-05
)
;

boundaryField
{
    leftWall
    {
        type            compressible::alphatWallFunction;
        Prt             0.85;
        value           uniform 0;
    }
    rightWall
    {
        type            compressible::alphatWallFunction;
        Prt             0.85;
        value           uniform 0;
    }
    leftSides_periodic0
    {
        type            cyclic;
    }
    leftSides_periodic1
    {
        type            cyclic;
    }
    rightSides_periodic0
    {
        type            cyclic;
    }
    rightSides_periodic1
    {
        type            cyclic;
    }
    leftInOut_periodic0
    {
        type            cyclic;
    }
    leftInOut_periodic1
    {
        type            cyclic;
    }
    rightInOut_periodic0
    {
        type            cyclic;
    }
    rightInOut_periodic1
    {
        type            cyclic;
    }
}


// ************************************************************************* //
