/*--------------------------------*- C++ -*----------------------------------*\
| =========                 |                                                 |
| \\      /  F ield         | OpenFOAM: The Open Source CFD Toolbox           |
|  \\    /   O peration     | Version:  v1906                                 |
|   \\  /    A nd           | Web:      www.OpenFOAM.com                      |
|    \\/     M anipulation  |                                                 |
\*---------------------------------------------------------------------------*/
FoamFile
{
    version     2.0;
    format      ascii;
    class       volScalarField;
    location    "38.8";
    object      k;
}
// * * * * * * * * * * * * * * * * * * * * * * * * * * * * * * * * * * * * * //

dimensions      [0 2 -2 0 0 0 0];


internalField   nonuniform List<scalar> 
2000
(
8.65051e-06
5.51345e-05
0.000126453
0.000165454
0.000170861
0.000172994
0.00017086
0.000165465
0.000126491
5.51926e-05
1.23216e-05
0.000285624
0.00047372
0.000549076
0.000566561
0.000571535
0.000566549
0.000549078
0.000473773
0.00028576
3.95939e-05
0.00080111
0.000846977
0.000866268
0.000883823
0.00088888
0.000883809
0.000866249
0.00084698
0.000801169
0.000204743
0.000945521
0.000877712
0.00087995
0.000892451
0.000897137
0.000892441
0.000879925
0.000877701
0.000945478
0.000728745
0.00089883
0.000782554
0.000789776
0.000799164
0.000804067
0.000799156
0.000789757
0.000782546
0.000898749
0.00129627
0.000840218
0.000671602
0.000677362
0.000685475
0.000690431
0.000685468
0.000677345
0.000671587
0.000840118
0.00152669
0.000784017
0.000568599
0.000562675
0.000568216
0.000572586
0.000568208
0.000562653
0.000568565
0.000783901
0.0013982
0.000716429
0.00048005
0.000457535
0.000459628
0.000462826
0.00045962
0.000457512
0.000479997
0.0007163
0.00112528
0.000631234
0.00041701
0.000390117
0.00039124
0.000393174
0.000391239
0.000390106
0.000416966
0.000631118
0.000854856
0.000539359
0.000405194
0.000396456
0.000400845
0.000402012
0.000400857
0.000396472
0.000405189
0.000539285
3.60892e-05
0.000172473
0.000254895
0.000290728
0.000310194
0.000316598
0.000310206
0.000290756
0.000254965
0.000172547
3.28057e-05
0.000504359
0.000646872
0.00072002
0.000762478
0.000774984
0.000762492
0.000720061
0.000646985
0.000504507
0.000168962
0.00097931
0.0010265
0.00107264
0.00111375
0.00112587
0.00111377
0.00107267
0.00102656
0.000979393
0.000516157
0.00113494
0.0011008
0.00112307
0.00115796
0.00116878
0.00115798
0.0011231
0.0011008
0.00113493
0.000930076
0.00112562
0.00106017
0.0010702
0.00109808
0.00110727
0.00109811
0.00107024
0.00106016
0.00112556
0.00121794
0.00103248
0.000969541
0.000974229
0.000995384
0.00100301
0.000995414
0.000974274
0.00096953
0.00103242
0.00124602
0.000900237
0.00085616
0.000857797
0.000873246
0.00087934
0.000873282
0.000857847
0.000856153
0.000900188
0.00103314
0.000754332
0.000732291
0.000731229
0.000741556
0.000745918
0.000741593
0.000731278
0.000732286
0.000754291
0.000759431
0.000607468
0.000601356
0.000600125
0.000606576
0.000609249
0.00060661
0.000600166
0.000601352
0.000607434
0.000526083
0.000471567
0.00047621
0.000477032
0.00048093
0.000482247
0.000480954
0.000477061
0.000476209
0.000471547
2.81185e-05
0.000194251
0.000247051
0.000261296
0.000270259
0.00027195
0.000270262
0.000261308
0.000247086
0.000194338
0.000126648
0.000489379
0.000563081
0.000579069
0.000588797
0.000590552
0.000588791
0.000579069
0.000563126
0.000489521
0.00054112
0.000845199
0.000859008
0.000877635
0.000888618
0.000892267
0.000888608
0.000877625
0.000859033
0.000845258
0.000958745
0.000956814
0.000879124
0.000893044
0.000906105
0.00091078
0.000906095
0.000893029
0.000879122
0.000956772
0.0013224
0.000963581
0.000798674
0.000805764
0.000818899
0.000823827
0.00081889
0.000805746
0.00079865
0.000963461
0.00157464
0.000905209
0.000682892
0.000681685
0.000692837
0.000697616
0.000692829
0.000681664
0.000682853
0.000905053
0.00162033
0.00081463
0.000566735
0.000553956
0.000561729
0.000565984
0.00056172
0.000553932
0.000566682
0.000814471
0.0014473
0.000717654
0.000469642
0.000443014
0.000447377
0.000450788
0.00044737
0.000442992
0.000469583
0.000717509
0.00115287
0.000616017
0.000406609
0.000377639
0.000380376
0.000382758
0.000380376
0.000377629
0.000406564
0.000615898
0.000860366
0.000523656
0.000398804
0.00038859
0.000393415
0.000395013
0.000393426
0.000388604
0.000398798
0.000523586
0.000144024
0.000235213
0.000273019
0.000300829
0.000321546
0.000328003
0.000321554
0.000300852
0.000273067
0.000235292
0.000404302
0.000592346
0.000668951
0.000724815
0.000764328
0.000776939
0.000764335
0.00072485
0.000669033
0.000592488
0.000838658
0.000977864
0.00102178
0.00106686
0.00110292
0.00111495
0.00110293
0.00106689
0.00102183
0.00097794
0.0010848
0.0011087
0.0011009
0.00113191
0.0011631
0.00117364
0.00116312
0.00113194
0.00110092
0.00110869
0.00125131
0.00113185
0.00107305
0.001091
0.00111757
0.00112645
0.0011176
0.00109104
0.00107305
0.00113178
0.00131834
0.00106345
0.000985269
0.000993807
0.00101553
0.00102278
0.00101556
0.000993852
0.000985254
0.00106336
0.00123933
0.000926789
0.000861721
0.000865969
0.00088271
0.000888458
0.000882746
0.000866019
0.000861708
0.000926706
0.00100871
0.000759657
0.000728438
0.000730887
0.000742431
0.000746528
0.000742468
0.000730936
0.000728431
0.000759601
0.000719563
0.00059715
0.000596389
0.00059838
0.000605287
0.000607747
0.000605321
0.000598422
0.000596387
0.000597117
0.000482777
0.000458993
0.000473635
0.000476089
0.000479268
0.000480315
0.000479291
0.000476117
0.000473635
0.000458978
8.01721e-05
0.000219427
0.000258649
0.000263699
0.000268509
0.000268301
0.000268504
0.000263701
0.000258666
0.000219507
0.000227721
0.000482337
0.000569634
0.000578134
0.000586098
0.000586672
0.000586082
0.000578125
0.000569659
0.000482479
0.000662687
0.000766047
0.000837207
0.000857335
0.00086729
0.000870799
0.000867276
0.000857326
0.000837238
0.000766136
0.000966437
0.000847671
0.00084917
0.000870522
0.00088085
0.000885373
0.000880838
0.000870509
0.000849186
0.000847677
0.00121397
0.000884276
0.000783643
0.000796095
0.000805889
0.000810304
0.000805878
0.000796076
0.000783633
0.000884198
0.00139919
0.000886123
0.000686703
0.000686185
0.000694553
0.000698577
0.000694543
0.000686161
0.000686666
0.000885983
0.00147597
0.000838232
0.000577203
0.000560413
0.000566418
0.000569823
0.000566409
0.000560386
0.000577146
0.000838064
0.00139107
0.000744889
0.000473508
0.00044318
0.000446494
0.000449113
0.000446486
0.000443154
0.000473445
0.000744728
0.0011532
0.000627707
0.000403039
0.000372171
0.00037446
0.00037626
0.000374459
0.000372159
0.000402995
0.000627582
0.000860795
0.000521848
0.000393821
0.000383036
0.000387863
0.000389185
0.000387873
0.00038305
0.000393817
0.000521782
0.000262571
0.000249251
0.00027487
0.000297723
0.000315783
0.000321729
0.000315788
0.000297737
0.000274905
0.00024931
0.000662973
0.000611788
0.000667743
0.000718332
0.000758135
0.000771207
0.000758142
0.000718357
0.000667806
0.000611884
0.00105497
0.000986008
0.00102469
0.00106955
0.00110733
0.00112042
0.00110734
0.00106958
0.00102473
0.000986046
0.00119569
0.00109007
0.00109837
0.00113515
0.00116757
0.00117922
0.00116758
0.00113519
0.00109839
0.00109005
0.00122872
0.00108517
0.00106404
0.00109175
0.00111847
0.00112816
0.00111849
0.00109179
0.00106404
0.00108511
0.00118208
0.00101343
0.000974206
0.000993378
0.00101488
0.00102259
0.00101491
0.000993426
0.0009742
0.00101335
0.00105433
0.000894268
0.000854975
0.000867227
0.00088395
0.000889832
0.000883985
0.000867279
0.000854967
0.000894192
0.000852832
0.000746573
0.000725288
0.000732589
0.000744449
0.000748587
0.000744486
0.000732638
0.000725283
0.000746515
0.000625706
0.000592704
0.000594809
0.000599574
0.000606622
0.000609102
0.000606656
0.000599617
0.000594808
0.000592668
0.000435351
0.000456589
0.000473405
0.000477071
0.000479772
0.000480821
0.000479796
0.000477099
0.000473406
0.000456574
8.77886e-05
0.000239524
0.00027839
0.000280179
0.000282773
0.000282194
0.000282766
0.000280173
0.000278393
0.000239573
0.000108908
0.000488979
0.000585148
0.000587666
0.000591141
0.000590269
0.000591122
0.000587646
0.000585156
0.000489083
0.00037046
0.000720307
0.000825927
0.0008479
0.000856166
0.00085853
0.000856152
0.00084789
0.000825963
0.000720404
0.000625836
0.000780165
0.000834144
0.000860133
0.000870659
0.000874792
0.000870648
0.000860122
0.000834177
0.000780204
0.000899848
0.000826402
0.000776049
0.000793467
0.000803631
0.000808262
0.000803622
0.000793451
0.000776052
0.000826355
0.00114402
0.000852795
0.00068956
0.000690446
0.000698208
0.000702399
0.000698199
0.000690424
0.000689528
0.000852676
0.00130058
0.00082891
0.000582022
0.000564822
0.000569549
0.00057297
0.000569541
0.000564795
0.000581964
0.000828751
0.00130468
0.000746836
0.000473439
0.000442566
0.000444727
0.000447267
0.00044472
0.00044254
0.000473374
0.000746675
0.00112491
0.000627275
0.000396922
0.000366724
0.000368627
0.000370363
0.000368625
0.000366711
0.000396877
0.00062715
0.000848848
0.000515756
0.000386526
0.000377272
0.000382409
0.000383729
0.000382419
0.000377285
0.000386524
0.000515693
0.000310184
0.000231391
0.000256172
0.000277127
0.000294213
0.000300038
0.000294215
0.000277137
0.000256206
0.000231446
0.000872926
0.000608116
0.000651357
0.000695165
0.000733716
0.000746579
0.00073372
0.000695185
0.000651422
0.00060822
0.00130723
0.000986463
0.00100917
0.00105113
0.00108922
0.00110264
0.00108924
0.00105116
0.00100922
0.000986512
0.00137289
0.00104526
0.00106584
0.00110815
0.00114146
0.00115375
0.00114148
0.00110819
0.00106587
0.00104527
0.00126333
0.000996061
0.00101907
0.00105913
0.00108737
0.00109788
0.00108739
0.00105918
0.00101909
0.000996043
0.00107377
0.000912777
0.000936643
0.000969276
0.000992458
0.00100093
0.000992489
0.000969331
0.000936659
0.000912746
0.00085946
0.000816291
0.000835806
0.000858138
0.000876106
0.000882532
0.000876141
0.000858193
0.000835811
0.000816253
0.000664119
0.000706671
0.000719778
0.000732992
0.000745583
0.000750036
0.00074562
0.000733043
0.000719778
0.00070663
0.000512972
0.000582694
0.000595541
0.000602993
0.000610332
0.000612939
0.000610366
0.000603037
0.000595541
0.000582659
0.000389633
0.000457743
0.000476407
0.000480979
0.000483549
0.00048457
0.000483573
0.000481008
0.000476409
0.000457726
0.00010954
0.000252958
0.000298269
0.00030412
0.000309505
0.000310516
0.000309499
0.000304117
0.000298274
0.000253002
0.000103482
0.000501113
0.000613596
0.000618987
0.000620913
0.000620258
0.000620893
0.000618967
0.000613601
0.000501207
0.000170276
0.000721155
0.000855915
0.000879307
0.000888471
0.000890155
0.000888457
0.000879296
0.000855953
0.000721263
0.00030524
0.0007946
0.000865997
0.000890895
0.00090305
0.00090673
0.000903042
0.000890886
0.000866028
0.00079464
0.000625036
0.000837852
0.000801845
0.000818289
0.000829265
0.000833966
0.000829259
0.000818277
0.000801849
0.0008378
0.000971312
0.000845037
0.00069679
0.000700037
0.000707818
0.000712465
0.000707812
0.000700018
0.000696766
0.000844913
0.00121487
0.000803825
0.000575373
0.000562877
0.000567276
0.000571235
0.000567268
0.000562853
0.000575325
0.000803669
0.00125571
0.000717355
0.000463393
0.000437561
0.000439527
0.000442525
0.000439518
0.000437536
0.000463336
0.000717202
0.00108568
0.00060554
0.000389098
0.000362826
0.000364876
0.000366925
0.000364873
0.000362813
0.000389056
0.000605423
0.000829612
0.00050565
0.000381316
0.000374378
0.000379913
0.000381404
0.000379923
0.000374392
0.000381315
0.00050559
0.000146156
0.00010981
0.000150771
0.000182607
0.000199895
0.000205243
0.000199896
0.000182617
0.000150811
0.00010988
0.0008537
0.00044838
0.000476754
0.000522079
0.000563762
0.000577291
0.000563765
0.000522093
0.000476813
0.000448496
0.00135069
0.000851483
0.000875255
0.000921214
0.000957973
0.000970722
0.000957984
0.000921243
0.000875317
0.000851589
0.00152239
0.000918194
0.000967104
0.00101774
0.00105092
0.00106227
0.00105094
0.00101779
0.000967165
0.000918289
0.00135701
0.000901474
0.000963664
0.00100983
0.00103957
0.0010495
0.00103959
0.00100988
0.000963712
0.000901541
0.00106068
0.000852874
0.000916412
0.000952722
0.000977624
0.000985983
0.000977656
0.000952778
0.00091644
0.000852902
0.000764099
0.000787507
0.000834886
0.000858637
0.000877271
0.000883751
0.000877307
0.000858692
0.000834895
0.000787496
0.000565347
0.000699782
0.000724304
0.00073778
0.000750263
0.000754743
0.0007503
0.000737832
0.000724304
0.000699744
0.000457721
0.00058542
0.000599777
0.000607408
0.000614601
0.000617167
0.000614635
0.000607453
0.000599778
0.000585379
0.000370288
0.00046139
0.000480223
0.000484878
0.00048754
0.000488479
0.000487565
0.000484909
0.000480225
0.000461368
0.000637586
0.000482458
0.000462214
0.000481171
0.000490825
0.000492044
0.000490847
0.000481208
0.000462253
0.000482446
0.000520546
0.000503842
0.000568733
0.000606445
0.000620392
0.000622204
0.000620416
0.000606488
0.000568799
0.000503883
0.000520938
0.000593281
0.000697714
0.000745667
0.000762714
0.000765364
0.000762732
0.000745707
0.000697791
0.000593351
0.000613592
0.000722619
0.000830958
0.000881237
0.000899162
0.000902501
0.000899172
0.000881268
0.000831034
0.000722694
0.000743644
0.000841471
0.000929732
0.000974205
0.000989673
0.000993011
0.000989674
0.000974222
0.000929793
0.000841533
0.000837004
0.000894183
0.000950283
0.000983893
0.000994754
0.000997568
0.000994746
0.000983892
0.000950316
0.00089422
0.000838736
0.000846317
0.000868433
0.000888636
0.000893579
0.000895394
0.000893563
0.000888618
0.000868427
0.000846326
0.000699363
0.000662551
0.000648119
0.000655163
0.000653851
0.000653927
0.000653829
0.000655131
0.000648084
0.000662536
0.000130184
0.000114749
0.000107254
0.000109687
0.00010961
0.000109589
0.000109606
0.000109682
0.000107249
0.000114746
6.30227e-05
6.02729e-05
5.90025e-05
6.08554e-05
6.1617e-05
6.18381e-05
6.16176e-05
6.08572e-05
5.90047e-05
6.02747e-05
0.000395058
0.00038774
0.000398787
0.000403105
0.000405928
0.000406847
0.000405934
0.000403114
0.000398789
0.000387745
0.000394694
0.000404776
0.000418614
0.00042866
0.000433163
0.000435262
0.000433153
0.000428653
0.000418621
0.000404812
0.000489807
0.000503891
0.000521545
0.000539349
0.000547525
0.000551682
0.000547511
0.000539341
0.000521558
0.000503948
0.000629181
0.000641123
0.000660761
0.000684099
0.000695502
0.000701741
0.000695492
0.000684098
0.000660775
0.000641184
0.000766169
0.000767935
0.000788429
0.00081498
0.000828905
0.000836903
0.000828904
0.000814987
0.000788439
0.000767989
0.000859268
0.00085347
0.00087713
0.000906903
0.000924174
0.000933781
0.000924181
0.000906919
0.00087714
0.000853514
0.000880658
0.000871196
0.000902798
0.000937513
0.00095858
0.000969083
0.000958596
0.00093754
0.000902817
0.000871231
0.000754172
0.000747856
0.000793481
0.000831635
0.000855418
0.000865307
0.000855443
0.000831675
0.000793512
0.000747886
0.000116331
0.000109598
0.000130361
0.000143838
0.000152217
0.000156306
0.000152233
0.00014386
0.00013037
0.000109604
3.36907e-05
3.22761e-05
3.62357e-05
3.94911e-05
4.15088e-05
4.23919e-05
4.15129e-05
3.94968e-05
3.62396e-05
3.22782e-05
0.000637788
0.000479842
0.000462319
0.000480299
0.000489418
0.000490796
0.000489439
0.000480335
0.000462358
0.000479836
0.00053016
0.000516355
0.000575063
0.000612129
0.000624791
0.000626429
0.000624815
0.000612172
0.000575127
0.000516399
0.000539543
0.000609783
0.000702355
0.00074829
0.000763269
0.000765488
0.00076329
0.000748331
0.000702428
0.00060985
0.000620099
0.000720274
0.00081626
0.000862996
0.000878906
0.000881645
0.000878919
0.000863027
0.00081633
0.000720341
0.000717132
0.000808545
0.000889819
0.000931308
0.000946367
0.000949093
0.000946368
0.000931321
0.000889877
0.0008086
0.000798012
0.000860112
0.000918696
0.000951464
0.000963683
0.000965069
0.000963667
0.000951455
0.000918735
0.000860146
0.000828654
0.000854228
0.000887137
0.000909097
0.000918599
0.000919105
0.00091857
0.000909072
0.000887149
0.000854238
0.000736888
0.000715652
0.000721798
0.000727397
0.000730819
0.000730811
0.000730781
0.000727355
0.000721772
0.00071563
0.000102634
9.51721e-05
0.000102718
0.000103929
0.000106019
0.000106764
0.000106014
0.000103925
0.00010271
9.51657e-05
2.16691e-05
1.99032e-05
2.25068e-05
2.36637e-05
2.45931e-05
2.50274e-05
2.45934e-05
2.36645e-05
2.25058e-05
1.99023e-05
0.000369008
0.000381234
0.000397897
0.000402087
0.000403391
0.000403989
0.000403396
0.000402095
0.000397899
0.000381244
0.000387715
0.000400268
0.000414309
0.00042347
0.000426492
0.000428304
0.000426481
0.000423464
0.000414316
0.000400305
0.000481299
0.000488562
0.000501503
0.000517055
0.000524006
0.000527753
0.00052399
0.000517047
0.000501515
0.000488616
0.000600713
0.000602732
0.000614729
0.000634558
0.000645122
0.000650436
0.000645108
0.000634553
0.000614741
0.000602789
0.000724785
0.000723313
0.000734943
0.000757758
0.0007712
0.000777414
0.000771189
0.000757756
0.000734956
0.000723366
0.000847108
0.000846341
0.000857867
0.000883907
0.000900346
0.000907149
0.00090034
0.000883909
0.000857884
0.000846388
0.000941
0.000947484
0.000963571
0.000994969
0.00101537
0.00102288
0.00101537
0.000994979
0.000963602
0.000947524
0.000866222
0.000875472
0.00091056
0.000947742
0.000973317
0.000981167
0.00097333
0.000947772
0.000910606
0.000875501
0.000130234
0.000133935
0.000149953
0.000160935
0.000171419
0.00017415
0.000171427
0.000160953
0.000149971
0.000133943
2.24134e-05
2.27858e-05
2.64866e-05
2.87652e-05
3.09069e-05
3.15566e-05
3.09092e-05
2.87696e-05
2.64902e-05
2.27872e-05
0.00063485
0.000476915
0.000460412
0.000477886
0.000487016
0.000488384
0.000487037
0.00047792
0.000460451
0.000476914
0.000532285
0.000515377
0.00057311
0.000609072
0.000621325
0.000622997
0.000621348
0.000609114
0.000573172
0.000515423
0.000541632
0.000606968
0.000696936
0.000740901
0.000754832
0.000756927
0.000754853
0.000740941
0.000697006
0.000607034
0.000627591
0.000724736
0.000817571
0.000862223
0.000876654
0.00087915
0.000876666
0.00086225
0.000817637
0.000724802
0.000753895
0.00084846
0.000927162
0.000969061
0.000983265
0.000985886
0.000983264
0.000969069
0.000927219
0.000848513
0.000877211
0.000957091
0.00101008
0.00104691
0.00105985
0.00106236
0.00105983
0.00104689
0.00101012
0.000957126
0.000944231
0.000990524
0.00101771
0.00104735
0.00105774
0.00105974
0.00105771
0.00104731
0.00101773
0.000990538
0.000816846
0.000820653
0.000830636
0.000845337
0.000851394
0.000852368
0.000851358
0.000845288
0.000830623
0.000820644
0.000124022
0.000123087
0.000125253
0.000126933
0.000128703
0.000128814
0.000128694
0.000126922
0.000125248
0.000123083
1.97828e-05
1.90534e-05
2.02066e-05
2.06055e-05
2.11903e-05
2.13432e-05
2.11896e-05
2.06051e-05
2.02061e-05
1.90528e-05
0.000347545
0.000378847
0.000397805
0.000401751
0.000402044
0.00040261
0.00040205
0.00040176
0.000397807
0.000378858
0.000378337
0.000396208
0.000412338
0.000420536
0.000422646
0.000424437
0.000422636
0.00042053
0.000412345
0.000396245
0.000479519
0.000487532
0.000502086
0.000516732
0.000523216
0.000526918
0.0005232
0.000516724
0.000502099
0.000487586
0.000611418
0.000616824
0.000627583
0.00064713
0.00065763
0.000662809
0.000657613
0.000647122
0.000627598
0.000616884
0.000753279
0.000757681
0.000764118
0.000788752
0.000802716
0.000808859
0.000802704
0.000788747
0.000764134
0.00075774
0.000887664
0.000893845
0.000899283
0.000930358
0.000947844
0.000954957
0.000947839
0.000930358
0.000899304
0.000893899
0.000968347
0.000979053
0.000995578
0.00103434
0.00105687
0.00106545
0.00105688
0.00103435
0.000995608
0.000979098
0.000857218
0.000874681
0.000911583
0.000955162
0.000983229
0.000992298
0.000983247
0.000955191
0.000911628
0.000874713
0.000133453
0.000141434
0.0001538
0.000168618
0.000179126
0.000181716
0.000179133
0.000168631
0.000153819
0.000141443
2.31759e-05
2.44985e-05
2.70844e-05
2.95543e-05
3.15328e-05
3.20014e-05
3.15345e-05
2.95573e-05
2.70882e-05
2.45e-05
0.000630184
0.000472915
0.000457023
0.000475253
0.000484973
0.000486391
0.000484993
0.000475287
0.000457063
0.000472918
0.000537375
0.000517346
0.000573664
0.000608688
0.000621399
0.000623068
0.000621422
0.00060873
0.000573726
0.000517393
0.000554372
0.00061622
0.000701515
0.000742779
0.000756566
0.0007585
0.000756585
0.000742816
0.000701581
0.000616285
0.000652167
0.000746062
0.000833691
0.000876699
0.000890585
0.000892947
0.000890598
0.000876724
0.000833753
0.000746127
0.000796785
0.000894306
0.000972214
0.00101392
0.0010274
0.00103055
0.0010274
0.00101393
0.000972267
0.000894359
0.000945903
0.00102662
0.00108746
0.00112617
0.0011391
0.0011433
0.00113909
0.00112616
0.0010875
0.00102666
0.00100842
0.00105736
0.00110062
0.00113311
0.00114476
0.00114929
0.00114474
0.00113308
0.00110064
0.00105737
0.000841518
0.000853057
0.000874242
0.0008934
0.000900621
0.000903298
0.000900591
0.000893365
0.000874235
0.000853042
0.000128637
0.000129231
0.000131829
0.000135188
0.000136556
0.000136835
0.000136548
0.000135177
0.000131824
0.000129225
1.93101e-05
1.88849e-05
1.94191e-05
2.00132e-05
2.04282e-05
2.04993e-05
2.04271e-05
2.0012e-05
1.94183e-05
1.88841e-05
0.000326951
0.00038068
0.000401302
0.000404227
0.000403777
0.000404139
0.000403783
0.000404236
0.000401304
0.00038069
0.000369748
0.000399681
0.000416557
0.000421855
0.000422771
0.000424318
0.000422761
0.000421848
0.00041656
0.000399718
0.000488007
0.000502597
0.00051902
0.00053162
0.000537274
0.000540951
0.000537257
0.00053161
0.00051903
0.000502654
0.000647574
0.000659722
0.000675739
0.000696612
0.000707395
0.000712863
0.00070738
0.000696606
0.000675758
0.000659786
0.00081362
0.00082537
0.000838157
0.000865947
0.00088126
0.000888195
0.000881252
0.000865946
0.000838182
0.000825433
0.000940164
0.000950266
0.000960915
0.000995377
0.00101515
0.00102352
0.00101515
0.000995386
0.000960945
0.000950323
0.000973889
0.00098521
0.00100303
0.00104404
0.00106888
0.00107847
0.0010689
0.00104406
0.00100306
0.000985259
0.000826999
0.000845421
0.000876695
0.000920549
0.000948861
0.000958319
0.000948883
0.000920586
0.000876741
0.000845456
0.00013552
0.000145087
0.000155864
0.000171587
0.000182197
0.000185081
0.000182205
0.000171601
0.000155883
0.000145097
2.51212e-05
2.70708e-05
2.95169e-05
3.24515e-05
3.45842e-05
3.51472e-05
3.45859e-05
3.24544e-05
2.95208e-05
2.70722e-05
0.000628134
0.000470395
0.000454729
0.00047414
0.000484449
0.000485988
0.000484469
0.000474174
0.00045477
0.000470398
0.000547709
0.000522412
0.00057897
0.000614883
0.0006285
0.000630331
0.000628522
0.000614923
0.000579034
0.00052246
0.000576091
0.00063394
0.00071929
0.000761498
0.000776268
0.000778345
0.000776287
0.000761534
0.00071936
0.000634007
0.000678082
0.000768759
0.000854639
0.00089847
0.000912981
0.000915476
0.000912993
0.000898495
0.000854705
0.000768824
0.000805699
0.000894204
0.000971271
0.0010133
0.00102678
0.00103022
0.00102678
0.00101331
0.000971324
0.000894256
0.000925446
0.000995611
0.0010622
0.00110035
0.00111238
0.00111705
0.00111238
0.00110035
0.00106224
0.000995644
0.000989786
0.00103298
0.00108655
0.00111603
0.00112497
0.0011297
0.00112496
0.00111601
0.00108656
0.00103298
0.000852854
0.000864891
0.00089027
0.000903244
0.000905644
0.000907371
0.000905607
0.000903205
0.000890251
0.00086487
0.000122374
0.000121236
0.00012406
0.000126318
0.000126267
0.000126439
0.000126258
0.000126308
0.000124051
0.000121232
1.69787e-05
1.64691e-05
1.6851e-05
1.77268e-05
1.8115e-05
1.82182e-05
1.81139e-05
1.77257e-05
1.68499e-05
1.64689e-05
0.000314061
0.000382689
0.000405241
0.000407677
0.000407322
0.000407547
0.000407329
0.000407686
0.000405243
0.000382698
0.000358953
0.000403975
0.00042172
0.000425226
0.000425728
0.000427036
0.000425718
0.000425217
0.000421721
0.000404014
0.000481439
0.000508097
0.000525439
0.000536598
0.000541821
0.000545429
0.000541806
0.000536588
0.000525446
0.000508154
0.000649586
0.000670322
0.000693589
0.000715411
0.000726894
0.000733162
0.000726885
0.00071541
0.000693607
0.000670388
0.000842004
0.000867773
0.000897252
0.00092728
0.000944364
0.000952865
0.000944362
0.000927288
0.000897281
0.00086784
0.00102203
0.0010536
0.00108216
0.00111518
0.00113598
0.00114535
0.00113598
0.0011152
0.0010822
0.00105366
0.00111288
0.00114348
0.00116427
0.00119702
0.0012199
0.0012287
0.0012199
0.00119704
0.00116431
0.00114352
0.00100311
0.00102216
0.00103349
0.00106814
0.00109335
0.00110162
0.00109337
0.00106817
0.00103354
0.00102219
0.000284774
0.000297876
0.000300545
0.000313101
0.000324238
0.000327815
0.000324245
0.000313111
0.000300572
0.000297877
8.50378e-05
9.1852e-05
9.77957e-05
0.000101895
0.000105351
0.000106529
0.000105355
0.0001019
9.78035e-05
9.18543e-05
)
;

boundaryField
{
    leftWall
    {
        type            kqRWallFunction;
        value           nonuniform List<scalar> 
100
(
8.65051e-06
3.60892e-05
2.81185e-05
0.000144024
8.01721e-05
0.000262571
8.77886e-05
0.000310184
0.00010954
0.000146156
5.51345e-05
0.000172473
0.000194251
0.000235213
0.000219427
0.000249251
0.000239524
0.000231391
0.000252958
0.00010981
0.000126453
0.000254895
0.000247051
0.000273019
0.000258649
0.00027487
0.00027839
0.000256172
0.000298269
0.000150771
0.000165454
0.000290728
0.000261296
0.000300829
0.000263699
0.000297723
0.000280179
0.000277127
0.00030412
0.000182607
0.000170861
0.000310194
0.000270259
0.000321546
0.000268509
0.000315783
0.000282773
0.000294213
0.000309505
0.000199895
0.000172994
0.000316598
0.00027195
0.000328003
0.000268301
0.000321729
0.000282194
0.000300038
0.000310516
0.000205243
0.00017086
0.000310206
0.000270262
0.000321554
0.000268504
0.000315788
0.000282766
0.000294215
0.000309499
0.000199896
0.000165465
0.000290756
0.000261308
0.000300852
0.000263701
0.000297737
0.000280173
0.000277137
0.000304117
0.000182617
0.000126491
0.000254965
0.000247086
0.000273067
0.000258666
0.000274905
0.000278393
0.000256206
0.000298274
0.000150811
5.51926e-05
0.000172547
0.000194338
0.000235292
0.000219507
0.00024931
0.000239573
0.000231446
0.000253002
0.00010988
)
;
    }
    rightWall
    {
        type            kqRWallFunction;
        value           nonuniform List<scalar> 
100
(
6.30227e-05
3.36907e-05
2.16691e-05
2.24134e-05
1.97828e-05
2.31759e-05
1.93101e-05
2.51212e-05
1.69787e-05
8.50378e-05
6.02729e-05
3.22761e-05
1.99032e-05
2.27858e-05
1.90534e-05
2.44985e-05
1.88849e-05
2.70708e-05
1.64691e-05
9.1852e-05
5.90025e-05
3.62357e-05
2.25068e-05
2.64866e-05
2.02066e-05
2.70844e-05
1.94191e-05
2.95169e-05
1.6851e-05
9.77957e-05
6.08554e-05
3.94911e-05
2.36637e-05
2.87652e-05
2.06055e-05
2.95543e-05
2.00132e-05
3.24515e-05
1.77268e-05
0.000101895
6.1617e-05
4.15088e-05
2.45931e-05
3.09069e-05
2.11903e-05
3.15328e-05
2.04282e-05
3.45842e-05
1.8115e-05
0.000105351
6.18381e-05
4.23919e-05
2.50274e-05
3.15566e-05
2.13432e-05
3.20014e-05
2.04993e-05
3.51472e-05
1.82182e-05
0.000106529
6.16176e-05
4.15129e-05
2.45934e-05
3.09092e-05
2.11896e-05
3.15345e-05
2.04271e-05
3.45859e-05
1.81139e-05
0.000105355
6.08572e-05
3.94968e-05
2.36645e-05
2.87696e-05
2.06051e-05
2.95573e-05
2.0012e-05
3.24544e-05
1.77257e-05
0.0001019
5.90047e-05
3.62396e-05
2.25058e-05
2.64902e-05
2.02061e-05
2.70882e-05
1.94183e-05
2.95208e-05
1.68499e-05
9.78035e-05
6.02747e-05
3.22782e-05
1.99023e-05
2.27872e-05
1.90528e-05
2.45e-05
1.88841e-05
2.70722e-05
1.64689e-05
9.18543e-05
)
;
    }
    leftSides_periodic0
    {
        type            cyclic;
    }
    leftSides_periodic1
    {
        type            cyclic;
    }
    rightSides_periodic0
    {
        type            cyclic;
    }
    rightSides_periodic1
    {
        type            cyclic;
    }
    leftInOut_periodic0
    {
        type            cyclic;
    }
    leftInOut_periodic1
    {
        type            cyclic;
    }
    rightInOut_periodic0
    {
        type            cyclic;
    }
    rightInOut_periodic1
    {
        type            cyclic;
    }
}


// ************************************************************************* //
