/*--------------------------------*- C++ -*----------------------------------*\
| =========                 |                                                 |
| \\      /  F ield         | OpenFOAM: The Open Source CFD Toolbox           |
|  \\    /   O peration     | Version:  v1912                                 |
|   \\  /    A nd           | Website:  www.openfoam.com                      |
|    \\/     M anipulation  |                                                 |
\*---------------------------------------------------------------------------*/
FoamFile
{
    version     2.0;
    format      ascii;
    class       volScalarField;
    location    "8";
    object      pPrime2Mean;
}
// * * * * * * * * * * * * * * * * * * * * * * * * * * * * * * * * * * * * * //

dimensions      [2 -2 -4 0 0 0 0];


internalField   nonuniform List<scalar> 
34128
(
2.90994
2.90829
2.90728
2.90654
2.90628
2.90612
2.90611
2.90649
2.90658
2.90696
2.9075
2.90802
2.91075
2.90921
2.90808
2.90723
2.90701
2.90687
2.90691
2.90701
2.9075
2.90779
2.9084
2.90901
2.91218
2.91065
2.90951
2.9086
2.90823
2.90814
2.90812
2.90843
2.90866
2.90917
2.90969
2.9104
2.91324
2.91133
2.91022
2.90944
2.909
2.90878
2.90886
2.90908
2.90957
2.90993
2.91053
2.91126
2.91307
2.9115
2.91021
2.90952
2.90902
2.90904
2.90874
2.90915
2.90945
2.91
2.91063
2.91145
2.91288
2.91124
2.91008
2.90928
2.90886
2.90886
2.90875
2.90889
2.90925
2.90979
2.91037
2.91105
2.91265
2.91099
2.90974
2.909
2.90862
2.9085
2.90863
2.90871
2.90913
2.90966
2.91016
2.91083
2.91251
2.91087
2.90964
2.90891
2.90836
2.90833
2.90829
2.90852
2.90894
2.90928
2.90993
2.91069
2.91207
2.91056
2.90945
2.90857
2.90819
2.90799
2.90811
2.90841
2.90855
2.90904
2.90973
2.91036
2.91193
2.91021
2.90907
2.90829
2.908
2.90773
2.9077
2.90797
2.90836
2.90891
2.90934
2.91014
2.9115
2.90998
2.90877
2.90793
2.90765
2.90757
2.90766
2.90776
2.90808
2.90852
2.9092
2.90976
2.91136
2.90977
2.90848
2.90783
2.90747
2.9073
2.90737
2.90744
2.90773
2.90828
2.90876
2.9095
2.91093
2.90936
2.90814
2.90749
2.90702
2.90693
2.90699
2.90726
2.90738
2.90789
2.90841
2.90897
2.91049
2.90918
2.90776
2.90709
2.90668
2.90655
2.90659
2.90684
2.9072
2.90757
2.90808
2.9087
2.91008
2.9087
2.90753
2.9068
2.90646
2.90629
2.9064
2.90643
2.90676
2.90717
2.90767
2.90839
2.9098
2.90826
2.90729
2.90648
2.90603
2.90592
2.90602
2.90612
2.90641
2.90674
2.90734
2.90794
2.90917
2.90794
2.90688
2.90608
2.90568
2.90555
2.90566
2.90592
2.90611
2.90652
2.90696
2.9076
2.90894
2.90751
2.9064
2.90569
2.90537
2.90521
2.90528
2.90538
2.90562
2.90607
2.90661
2.90722
2.90852
2.9071
2.9061
2.90536
2.90497
2.90484
2.90497
2.90504
2.90539
2.90577
2.9063
2.90676
2.908
2.90664
2.90556
2.90496
2.90474
2.90446
2.90446
2.90472
2.90497
2.90536
2.90571
2.90644
2.90748
2.90624
2.9052
2.90468
2.90422
2.90412
2.90407
2.90437
2.9046
2.9048
2.90536
2.90602
2.907
2.90594
2.90499
2.90437
2.90399
2.9038
2.9038
2.90403
2.9043
2.90445
2.90503
2.90551
2.90679
2.90549
2.90456
2.90388
2.90345
2.90346
2.9035
2.90356
2.90378
2.90408
2.90467
2.90521
2.9063
2.90496
2.90418
2.90344
2.90324
2.9032
2.9031
2.90328
2.90348
2.90384
2.90417
2.9047
2.90592
2.90465
2.90379
2.90319
2.90289
2.90263
2.90259
2.90289
2.90316
2.90347
2.90384
2.90429
2.90547
2.90422
2.90348
2.90281
2.90251
2.90249
2.90241
2.90252
2.9027
2.90297
2.90334
2.904
2.9051
2.90388
2.90298
2.90243
2.90223
2.90203
2.90203
2.90215
2.90237
2.90274
2.90308
2.90373
2.90474
2.90358
2.90271
2.90216
2.90179
2.9017
2.9018
2.9018
2.90204
2.90242
2.90275
2.90322
2.90432
2.90326
2.9024
2.90187
2.90169
2.90146
2.90143
2.90155
2.90186
2.90197
2.90225
2.90277
2.90386
2.90289
2.90203
2.90159
2.90122
2.90115
2.90104
2.90127
2.90139
2.90171
2.90207
2.90242
2.90361
2.90256
2.90179
2.9013
2.90098
2.90083
2.90088
2.90093
2.90117
2.90143
2.90171
2.90223
2.90322
2.90225
2.90144
2.90099
2.90075
2.90058
2.90074
2.9007
2.90081
2.90107
2.90148
2.90178
2.90289
2.90203
2.90131
2.90076
2.90052
2.90043
2.90025
2.90057
2.90063
2.90074
2.90116
2.90153
2.90266
2.90173
2.90113
2.90072
2.90045
2.90025
2.90032
2.90023
2.90058
2.90061
2.90096
2.90131
2.90241
2.90158
2.90094
2.90042
2.90019
2.90008
2.90002
2.90011
2.9003
2.90051
2.90067
2.90117
2.90217
2.90138
2.90075
2.90039
2.89996
2.89994
2.89992
2.90007
2.90014
2.90017
2.90049
2.90092
2.90193
2.90127
2.90063
2.90023
2.90005
2.8998
2.89979
2.89975
2.90002
2.9002
2.90045
2.90073
2.902
2.9011
2.90043
2.90015
2.89983
2.89979
2.89963
2.89989
2.89996
2.90009
2.90021
2.90059
2.90172
2.90096
2.90045
2.90017
2.89983
2.89977
2.89969
2.89981
2.89988
2.9
2.90015
2.90048
2.90154
2.90084
2.90039
2.90018
2.89982
2.89971
2.8996
2.89972
2.8998
2.9
2.90018
2.90047
2.90154
2.90085
2.90038
2.90011
2.89986
2.89978
2.89985
2.89978
2.89998
2.89994
2.90026
2.9004
2.90151
2.90085
2.9005
2.90022
2.89998
2.89982
2.89979
2.89982
2.89999
2.89991
2.90025
2.90037
2.90154
2.90097
2.90059
2.90033
2.90013
2.89997
2.89983
2.90001
2.90008
2.90018
2.90031
2.90046
2.90164
2.90118
2.90065
2.90047
2.90019
2.90014
2.90011
2.9001
2.90016
2.90027
2.90039
2.90052
2.90182
2.90129
2.90087
2.90073
2.90035
2.90033
2.90022
2.90029
2.90041
2.90046
2.90065
2.9007
2.90187
2.90151
2.90108
2.90092
2.90075
2.90058
2.90053
2.9005
2.9007
2.90075
2.90088
2.90098
2.90213
2.90163
2.90139
2.9012
2.901
2.901
2.90079
2.90073
2.90091
2.90104
2.90094
2.9011
2.90245
2.90198
2.90177
2.90146
2.90139
2.90118
2.90113
2.90121
2.90129
2.90117
2.90126
2.90146
2.90272
2.90236
2.90199
2.90186
2.90166
2.90164
2.90162
2.90159
2.90168
2.9015
2.9016
2.90166
2.90304
2.90277
2.90248
2.90228
2.90226
2.90204
2.90213
2.9019
2.90194
2.90189
2.90205
2.90199
2.90346
2.90318
2.90283
2.90272
2.90241
2.90251
2.90242
2.90235
2.90241
2.90247
2.90246
2.90251
2.90397
2.90351
2.90349
2.90326
2.90328
2.90317
2.90309
2.90301
2.90296
2.90294
2.90284
2.90293
2.90434
2.90403
2.90399
2.90377
2.90364
2.90365
2.9036
2.90357
2.90349
2.90342
2.90347
2.90351
2.90491
2.90463
2.90459
2.90441
2.90436
2.90416
2.90412
2.90415
2.904
2.90395
2.90396
2.90408
2.90545
2.90522
2.90519
2.90504
2.90487
2.90472
2.90474
2.90476
2.90466
2.90465
2.90457
2.90462
2.90616
2.90585
2.90573
2.90569
2.9055
2.90548
2.90533
2.90537
2.9053
2.90534
2.90516
2.90515
2.90672
2.90655
2.90636
2.90638
2.90628
2.90616
2.90603
2.90598
2.90592
2.90606
2.90594
2.90594
2.90737
2.90707
2.90716
2.90718
2.907
2.90691
2.90692
2.90683
2.90682
2.90656
2.90655
2.9066
2.90792
2.90788
2.90796
2.90777
2.90767
2.90763
2.90755
2.90751
2.9074
2.90744
2.90727
2.90718
2.90869
2.90858
2.90854
2.90851
2.9085
2.90843
2.90827
2.90826
2.90825
2.90811
2.90801
2.90795
2.90946
2.90938
2.90935
2.90934
2.90924
2.90915
2.90921
2.90902
2.90911
2.90883
2.90874
2.9087
2.91016
2.91011
2.91011
2.91016
2.91004
2.91005
2.90993
2.90987
2.90999
2.90963
2.90943
2.90946
2.91088
2.91088
2.91088
2.91093
2.91082
2.91071
2.91063
2.91053
2.91053
2.91048
2.9103
2.91027
2.91171
2.91152
2.91164
2.91174
2.9115
2.91146
2.91154
2.91146
2.91122
2.9113
2.91101
2.91089
2.91228
2.91242
2.91245
2.91242
2.91241
2.9122
2.91232
2.91214
2.91218
2.91197
2.91185
2.91168
2.9131
2.91312
2.91329
2.9133
2.91317
2.91305
2.91298
2.91297
2.91297
2.91274
2.91254
2.91238
2.91387
2.91386
2.91398
2.91381
2.91388
2.91387
2.91391
2.9137
2.91378
2.91368
2.91342
2.91306
2.91468
2.91473
2.91465
2.91464
2.91472
2.91458
2.91465
2.91455
2.91437
2.91427
2.91401
2.91382
2.91533
2.91536
2.91548
2.91537
2.91531
2.91543
2.91528
2.91534
2.91508
2.91507
2.91491
2.91446
2.91597
2.91601
2.91613
2.91611
2.91603
2.91604
2.9159
2.91573
2.91577
2.91563
2.91549
2.91524
2.91667
2.91653
2.9166
2.91652
2.9166
2.91663
2.91658
2.91645
2.91652
2.91625
2.91608
2.91596
2.91697
2.91699
2.91707
2.91728
2.91712
2.91707
2.91718
2.91698
2.91688
2.91675
2.91652
2.91625
2.91728
2.91735
2.91754
2.91754
2.91765
2.91751
2.91747
2.9174
2.91713
2.91722
2.91696
2.91666
2.91756
2.91759
2.91766
2.91778
2.91766
2.91772
2.91765
2.91755
2.91752
2.9174
2.91706
2.9169
2.91757
2.9175
2.9176
2.91778
2.91773
2.91762
2.91762
2.91764
2.91746
2.91731
2.91712
2.91679
2.9172
2.91729
2.91751
2.91752
2.91752
2.91746
2.91742
2.91737
2.91723
2.91704
2.91682
2.9165
2.91678
2.9169
2.91697
2.91709
2.917
2.91696
2.91701
2.91685
2.91677
2.91659
2.91636
2.91599
2.91608
2.91617
2.91638
2.91642
2.91634
2.91644
2.91644
2.91617
2.91615
2.91585
2.91558
2.91536
2.91516
2.91545
2.91549
2.91552
2.91555
2.91549
2.91549
2.9153
2.91521
2.91492
2.91473
2.91456
26.6118
26.6152
26.6178
26.6193
26.6199
26.6196
26.6188
26.6173
26.6156
26.6137
26.6112
26.609
26.6011
26.604
26.6064
26.6079
26.6083
26.6081
26.6072
26.6059
26.6044
26.6023
26.6002
26.5982
26.5853
26.5877
26.5898
26.5909
26.5912
26.5909
26.5901
26.5889
26.5876
26.5857
26.5839
26.5821
26.5757
26.5778
26.5797
26.5805
26.5809
26.5806
26.5798
26.5786
26.5774
26.5758
26.5739
26.5723
26.5732
26.5754
26.5771
26.5779
26.5782
26.5779
26.5773
26.576
26.5748
26.5732
26.5715
26.5699
26.5737
26.5758
26.5774
26.5784
26.5786
26.5784
26.5775
26.5765
26.5751
26.5736
26.5717
26.5702
26.5739
26.576
26.5779
26.5787
26.579
26.5787
26.578
26.5768
26.5755
26.5739
26.5721
26.5707
26.5742
26.5764
26.5781
26.579
26.5794
26.5791
26.5782
26.5772
26.5758
26.5742
26.5724
26.5709
26.5746
26.5766
26.5785
26.5794
26.5797
26.5795
26.5787
26.5775
26.5761
26.5746
26.5728
26.5712
26.5748
26.577
26.5787
26.5797
26.5799
26.5797
26.5789
26.5779
26.5764
26.5749
26.5731
26.5714
26.5752
26.5773
26.579
26.58
26.5801
26.58
26.5792
26.5781
26.5768
26.5752
26.5733
26.5717
26.5753
26.5774
26.5792
26.5803
26.5805
26.5802
26.5794
26.5784
26.5769
26.5754
26.5734
26.572
26.5755
26.5777
26.5794
26.5804
26.5807
26.5805
26.5797
26.5785
26.5771
26.5755
26.5738
26.5721
26.5757
26.5778
26.5796
26.5807
26.5809
26.5806
26.5798
26.5788
26.5773
26.5758
26.574
26.5722
26.5758
26.5781
26.5798
26.5809
26.5812
26.5808
26.5801
26.579
26.5774
26.5759
26.5741
26.5723
26.5759
26.5781
26.58
26.581
26.5813
26.5809
26.5803
26.579
26.5777
26.576
26.5741
26.5725
26.5761
26.5784
26.5801
26.5811
26.5815
26.581
26.5803
26.5791
26.5779
26.5762
26.5743
26.5727
26.5762
26.5783
26.5802
26.5812
26.5816
26.5812
26.5804
26.5793
26.578
26.5764
26.5743
26.5727
26.5762
26.5785
26.5803
26.5811
26.5815
26.5813
26.5805
26.5794
26.578
26.5765
26.5745
26.5728
26.5764
26.5786
26.5804
26.5814
26.5817
26.5815
26.5806
26.5796
26.5781
26.5765
26.5746
26.573
26.5764
26.5787
26.5805
26.5814
26.5818
26.5815
26.5807
26.5796
26.5781
26.5766
26.5747
26.573
26.5764
26.5786
26.5806
26.5815
26.5818
26.5815
26.5807
26.5796
26.5783
26.5767
26.5747
26.573
26.5765
26.5789
26.5807
26.5817
26.5821
26.5817
26.5809
26.5799
26.5784
26.5767
26.5748
26.573
26.5767
26.5787
26.5806
26.5818
26.5821
26.5817
26.581
26.5799
26.5783
26.5767
26.5749
26.5732
26.5767
26.5789
26.5808
26.5819
26.5821
26.582
26.5812
26.5799
26.5785
26.5769
26.5749
26.5732
26.5767
26.579
26.5808
26.5819
26.5821
26.5819
26.5811
26.58
26.5786
26.5769
26.575
26.5732
26.5768
26.579
26.581
26.582
26.5822
26.582
26.5812
26.5801
26.5786
26.577
26.5751
26.5733
26.5769
26.5791
26.581
26.5821
26.5825
26.5821
26.5813
26.5803
26.5787
26.5771
26.5751
26.5734
26.577
26.5793
26.5812
26.5822
26.5825
26.5823
26.5816
26.5801
26.5789
26.5771
26.5753
26.5735
26.5772
26.5794
26.5812
26.5823
26.5828
26.5824
26.5816
26.5805
26.5792
26.5773
26.5755
26.5736
26.5774
26.5795
26.5815
26.5825
26.5827
26.5826
26.5818
26.5805
26.5792
26.5775
26.5756
26.5738
26.5775
26.5799
26.5816
26.5827
26.5831
26.5828
26.5821
26.5808
26.5794
26.5777
26.5758
26.5739
26.5776
26.58
26.5818
26.5829
26.5833
26.5829
26.5821
26.581
26.5796
26.578
26.576
26.5741
26.5779
26.5802
26.582
26.5832
26.5836
26.5832
26.5825
26.5813
26.5799
26.5781
26.5762
26.5745
26.5781
26.5804
26.5824
26.5835
26.5839
26.5835
26.5828
26.5815
26.5802
26.5784
26.5764
26.5747
26.5785
26.5808
26.5827
26.5838
26.5841
26.5837
26.5831
26.5819
26.5804
26.5788
26.5769
26.5749
26.5789
26.5812
26.583
26.5842
26.5844
26.5842
26.5833
26.5822
26.5809
26.5791
26.5771
26.5753
26.5793
26.5816
26.5835
26.5846
26.5849
26.5846
26.5838
26.5826
26.5812
26.5796
26.5776
26.5758
26.5797
26.582
26.584
26.5851
26.5853
26.585
26.5843
26.5832
26.5818
26.58
26.578
26.5762
26.5802
26.5826
26.5846
26.5856
26.586
26.5857
26.5849
26.5837
26.5823
26.5807
26.5785
26.5767
26.5809
26.5831
26.5851
26.5862
26.5866
26.5863
26.5855
26.5844
26.5829
26.5811
26.5792
26.5774
26.5816
26.5838
26.5857
26.5869
26.5871
26.5868
26.5862
26.5852
26.5837
26.5819
26.58
26.578
26.5822
26.5846
26.5866
26.5877
26.588
26.5877
26.5869
26.5858
26.5844
26.5828
26.5806
26.5789
26.5833
26.5854
26.5874
26.5885
26.5887
26.5884
26.5878
26.5866
26.5852
26.5835
26.5815
26.5797
26.5841
26.5864
26.5883
26.5894
26.5897
26.5895
26.5888
26.5876
26.5862
26.5844
26.5824
26.5805
26.5851
26.5874
26.5893
26.5903
26.5907
26.5905
26.5895
26.5887
26.5873
26.5855
26.5834
26.5814
26.5862
26.5885
26.5904
26.5915
26.5917
26.5916
26.5909
26.5897
26.5884
26.5866
26.5845
26.5828
26.5875
26.5897
26.5915
26.5927
26.5929
26.5928
26.592
26.591
26.5896
26.5878
26.5857
26.5838
26.5889
26.591
26.5929
26.5939
26.5943
26.594
26.5934
26.5923
26.591
26.5892
26.5871
26.5851
26.5901
26.5925
26.5942
26.5955
26.5957
26.5955
26.5949
26.5938
26.5924
26.5906
26.5885
26.5865
26.5917
26.594
26.5958
26.597
26.5973
26.5971
26.5963
26.5952
26.5938
26.5922
26.5901
26.5882
26.5935
26.5956
26.5975
26.5984
26.5988
26.5986
26.5979
26.5969
26.5955
26.5938
26.5917
26.5898
26.5952
26.5975
26.5991
26.6003
26.6006
26.6003
26.5997
26.5985
26.5973
26.5955
26.5935
26.5916
26.5971
26.5992
26.601
26.6021
26.6024
26.6022
26.6014
26.6005
26.5991
26.5974
26.5952
26.5932
26.599
26.6011
26.6029
26.604
26.6043
26.6041
26.6034
26.6023
26.601
26.5993
26.5972
26.5953
26.601
26.6031
26.6047
26.6059
26.6062
26.6062
26.6053
26.6044
26.603
26.6012
26.5991
26.5972
26.6031
26.6051
26.6069
26.6079
26.6083
26.6082
26.6074
26.6065
26.6051
26.6033
26.6012
26.5993
26.6051
26.6073
26.6092
26.6101
26.6105
26.6104
26.6097
26.6086
26.6072
26.6055
26.6034
26.6016
26.6077
26.6095
26.6113
26.6122
26.6127
26.6124
26.6119
26.611
26.6095
26.6078
26.6058
26.6036
26.6099
26.6118
26.6133
26.6143
26.6148
26.6146
26.6141
26.613
26.6117
26.6099
26.6079
26.606
26.6121
26.6141
26.6157
26.6166
26.6169
26.6169
26.6162
26.6153
26.6139
26.6122
26.6102
26.6083
26.6145
26.6163
26.6178
26.6187
26.6191
26.6189
26.6184
26.6175
26.6162
26.6145
26.6124
26.6105
26.6168
26.6185
26.62
26.6211
26.6214
26.6213
26.6208
26.6198
26.6185
26.6168
26.6147
26.6127
26.6191
26.6209
26.6225
26.6233
26.6236
26.6235
26.6231
26.6221
26.6207
26.6191
26.617
26.6149
26.6213
26.6231
26.6245
26.6253
26.6257
26.6256
26.6251
26.6244
26.6229
26.6212
26.6192
26.6172
26.6236
26.6253
26.6267
26.6275
26.6279
26.6278
26.6273
26.6264
26.625
26.6236
26.6214
26.6195
26.6258
26.6274
26.6288
26.6294
26.6299
26.6299
26.6292
26.6284
26.6272
26.6255
26.6236
26.6216
26.628
26.6294
26.6306
26.6314
26.6316
26.6315
26.6312
26.6304
26.6291
26.6276
26.6255
26.6235
26.63
26.6313
26.6325
26.6332
26.6334
26.6334
26.633
26.6321
26.631
26.6293
26.6274
26.6255
26.6318
26.633
26.634
26.6346
26.635
26.6349
26.6343
26.6338
26.6325
26.6308
26.6288
26.6271
26.6332
26.6343
26.6353
26.6359
26.6362
26.636
26.6357
26.6349
26.6337
26.6322
26.6303
26.6285
26.6343
26.6353
26.6361
26.6367
26.6369
26.6369
26.6364
26.6357
26.6346
26.6329
26.6311
26.6292
26.6347
26.6357
26.6364
26.6369
26.6371
26.6371
26.6366
26.6358
26.6347
26.6332
26.6313
26.6296
26.6345
26.6353
26.6359
26.6364
26.6366
26.6365
26.636
26.6352
26.6342
26.6326
26.6309
26.629
26.6334
26.6339
26.6346
26.6349
26.6351
26.635
26.6345
26.6338
26.6326
26.6312
26.6295
26.6275
26.631
26.6316
26.6322
26.6325
26.6325
26.6325
26.6321
26.6311
26.6301
26.6286
26.6268
26.6249
26.6275
26.6283
26.6287
26.6289
26.629
26.6289
26.6283
26.6276
26.6265
26.625
26.6232
26.6213
26.623
26.6238
26.6242
26.6245
26.6246
26.6242
26.6238
26.623
26.6218
26.6202
26.6185
26.6167
26.6176
26.6185
26.6189
26.6193
26.6191
26.6188
26.6184
26.6175
26.6164
26.6147
26.6129
26.6109
74.1288
74.136
74.141
74.1436
74.1436
74.1417
74.1381
74.1337
74.1285
74.1232
74.1174
74.1116
74.0863
74.0932
74.0979
74.1001
74.0999
74.0981
74.0947
74.0904
74.0856
74.0803
74.075
74.0692
74.0225
74.0285
74.0327
74.0345
74.0343
74.0325
74.0292
74.0253
74.0207
74.0158
74.0107
74.0057
73.9827
73.9883
73.9921
73.9937
73.9933
73.9915
73.9884
73.9847
73.9803
73.9756
73.9708
73.966
73.9725
73.9779
73.9816
73.9833
73.9828
73.9811
73.9779
73.9742
73.9699
73.9652
73.9605
73.9559
73.9733
73.9788
73.9825
73.9842
73.9837
73.982
73.9787
73.9751
73.9707
73.9662
73.9614
73.9568
73.9742
73.9797
73.9835
73.9851
73.9848
73.9829
73.9799
73.9759
73.9716
73.967
73.9624
73.9576
73.975
73.9806
73.9843
73.986
73.9856
73.9838
73.9807
73.977
73.9725
73.9681
73.9632
73.9585
73.9759
73.9815
73.9852
73.9869
73.9866
73.9846
73.9818
73.9778
73.9734
73.9688
73.9641
73.9593
73.9766
73.9823
73.9861
73.9877
73.9874
73.9855
73.9824
73.9787
73.9742
73.9696
73.9648
73.9601
73.9774
73.983
73.9867
73.9884
73.988
73.9863
73.9832
73.9794
73.975
73.9704
73.9656
73.9608
73.9782
73.9837
73.9874
73.9892
73.9888
73.9871
73.9839
73.9802
73.9756
73.9712
73.9662
73.9614
73.9786
73.9843
73.9882
73.9899
73.9894
73.9878
73.9846
73.9808
73.9764
73.9718
73.967
73.9621
73.9792
73.985
73.9887
73.9906
73.9902
73.9883
73.9854
73.9815
73.9772
73.9724
73.9676
73.9628
73.9799
73.9855
73.9894
73.9911
73.9908
73.989
73.986
73.982
73.9778
73.9731
73.9681
73.9634
73.9802
73.9861
73.99
73.9915
73.9914
73.9896
73.9865
73.9827
73.9784
73.9737
73.9688
73.9638
73.981
73.9866
73.9905
73.9924
73.992
73.9904
73.987
73.9833
73.979
73.974
73.9692
73.9644
73.9813
73.9871
73.9912
73.9928
73.9925
73.9908
73.9877
73.9839
73.9795
73.9747
73.9699
73.9649
73.9817
73.9876
73.9916
73.9934
73.993
73.9913
73.9882
73.9843
73.9801
73.9753
73.9704
73.9654
73.9824
73.9881
73.992
73.9938
73.9936
73.9918
73.9889
73.9849
73.9806
73.9759
73.9708
73.9659
73.9828
73.9886
73.9927
73.9943
73.9941
73.9923
73.9895
73.9854
73.9811
73.9764
73.9715
73.9664
73.9832
73.989
73.993
73.9949
73.9947
73.9929
73.9898
73.9858
73.9816
73.9769
73.9719
73.967
73.9837
73.9895
73.9935
73.9954
73.9952
73.9934
73.9903
73.9865
73.9822
73.9774
73.9723
73.9673
73.9842
73.99
73.994
73.9959
73.9957
73.994
73.9908
73.9871
73.9826
73.9779
73.9729
73.9678
73.9845
73.9904
73.9945
73.9964
73.9962
73.9944
73.9914
73.9876
73.9832
73.9784
73.9733
73.9683
73.985
73.9909
73.995
73.9969
73.9966
73.995
73.992
73.9881
73.9837
73.979
73.9739
73.9689
73.9856
73.9915
73.9955
73.9975
73.9971
73.9956
73.9924
73.9888
73.9844
73.9796
73.9743
73.9694
73.9861
73.9918
73.996
73.9979
73.9978
73.996
73.993
73.9894
73.985
73.9801
73.975
73.97
73.9866
73.9927
73.9967
73.9987
73.9985
73.9968
73.9938
73.9899
73.9855
73.9807
73.9756
73.9704
73.9871
73.9931
73.9972
73.9991
73.9991
73.9973
73.9945
73.9905
73.9863
73.9814
73.9761
73.9712
73.9877
73.9937
73.9978
73.9999
73.9997
73.9981
73.995
73.9912
73.9869
73.9821
73.9768
73.9717
73.9883
73.9943
73.9986
74.0005
74.0003
73.9987
73.9958
73.9921
73.9876
73.9828
73.9774
73.9724
73.9888
73.995
73.9992
74.0011
74.0011
73.9995
73.9965
73.9928
73.9884
73.9836
73.9782
73.973
73.9898
73.9958
74
74.0021
74.002
74.0003
73.9972
73.9936
73.9893
73.9842
73.9791
73.9739
73.9903
73.9966
74.0007
74.0028
74.0027
74.0011
73.9981
73.9944
73.9901
73.9852
73.9797
73.9746
73.9912
73.9973
74.0016
74.0036
74.0036
74.002
73.999
73.9954
73.991
73.9861
73.9807
73.9754
73.9922
73.998
74.0025
74.0044
74.0046
74.0029
74
73.9965
73.992
73.987
73.9816
73.9763
73.9931
73.9992
74.0035
74.0055
74.0056
74.0041
74.001
73.9975
73.9928
73.988
73.9828
73.9774
73.994
74.0001
74.0046
74.0066
74.0065
74.0052
74.0022
73.9986
73.9942
73.9892
73.9839
73.9784
73.9952
74.0011
74.0056
74.0077
74.0077
74.0063
74.0035
73.9996
73.9954
73.9903
73.9851
73.9797
73.9963
74.0023
74.0067
74.0088
74.009
74.0074
74.0048
74.001
73.9965
73.9917
73.9862
73.981
73.9975
74.0037
74.0079
74.0102
74.0103
74.0089
74.006
74.0023
73.998
73.9931
73.9876
73.9822
73.9988
74.005
74.0093
74.0116
74.0117
74.0103
74.0075
74.0038
73.9994
73.9945
73.989
73.9837
74.0003
74.0064
74.0108
74.0129
74.0131
74.0116
74.0091
74.0053
74.001
73.996
73.9905
73.9852
74.002
74.0079
74.0123
74.0145
74.0148
74.0135
74.0106
74.0069
74.0026
73.9977
73.9921
73.9867
74.0035
74.0096
74.014
74.0163
74.0165
74.015
74.0124
74.0087
74.0044
73.9993
73.9938
73.9883
74.0053
74.0114
74.0157
74.0179
74.0183
74.0169
74.0143
74.0108
74.0062
74.0013
73.9957
73.9903
74.0071
74.0132
74.0175
74.0197
74.0201
74.0187
74.0162
74.0125
74.0081
74.0031
73.9975
73.9921
74.0091
74.0151
74.0196
74.0216
74.0219
74.0208
74.0181
74.0147
74.0102
74.0053
73.9995
73.9942
74.0111
74.0171
74.0216
74.0237
74.0241
74.0228
74.0204
74.0166
74.0124
74.0073
74.0018
73.9964
74.0135
74.0193
74.0237
74.0259
74.0264
74.0251
74.0225
74.0191
74.0148
74.0098
74.0042
73.9987
74.0157
74.0216
74.026
74.0282
74.0286
74.0274
74.0248
74.0213
74.0171
74.0122
74.0064
74.001
74.0181
74.0239
74.0283
74.0307
74.0309
74.0298
74.0272
74.0239
74.0197
74.0147
74.0091
74.0035
74.0206
74.0265
74.0308
74.0331
74.0335
74.0324
74.0299
74.0265
74.0222
74.0172
74.0114
74.0061
74.0232
74.029
74.0334
74.0354
74.0361
74.0349
74.0326
74.0291
74.0247
74.0198
74.0142
74.0088
74.026
74.0318
74.036
74.0383
74.0387
74.0376
74.0353
74.0318
74.0276
74.0227
74.0172
74.0114
74.0288
74.0345
74.0387
74.041
74.0414
74.0404
74.038
74.0346
74.0307
74.0254
74.0201
74.0144
74.0318
74.0374
74.0415
74.0437
74.0442
74.0432
74.0409
74.0375
74.0333
74.0284
74.0228
74.0173
74.0347
74.0403
74.0444
74.0466
74.0471
74.046
74.0437
74.0406
74.0364
74.0314
74.0259
74.0204
74.0378
74.0432
74.0474
74.0494
74.0499
74.049
74.0466
74.0435
74.0393
74.0344
74.0288
74.0234
74.0409
74.0461
74.0501
74.0523
74.0528
74.0518
74.0498
74.0465
74.0424
74.0375
74.0319
74.0264
74.0439
74.0492
74.0531
74.0553
74.0558
74.0548
74.0527
74.0495
74.0454
74.0405
74.035
74.0296
74.0471
74.0522
74.0561
74.0581
74.0585
74.0576
74.0558
74.0524
74.0484
74.0435
74.0381
74.0327
74.0501
74.0551
74.0588
74.061
74.0615
74.0604
74.0585
74.0553
74.0513
74.0465
74.041
74.0357
74.0531
74.058
74.0616
74.0636
74.0641
74.0632
74.0613
74.0582
74.0543
74.0494
74.0439
74.0386
74.056
74.0608
74.0643
74.0662
74.0667
74.0658
74.0638
74.0608
74.0568
74.052
74.0468
74.0414
74.0589
74.0633
74.0667
74.0686
74.069
74.0683
74.0663
74.0632
74.0593
74.0545
74.0493
74.044
74.0613
74.0656
74.0688
74.0706
74.0711
74.0704
74.0683
74.0655
74.0615
74.0569
74.0516
74.0463
74.0636
74.0677
74.0707
74.0724
74.0728
74.072
74.0702
74.0672
74.0634
74.0587
74.0533
74.0482
74.0654
74.0692
74.0722
74.0737
74.0741
74.0732
74.0713
74.0684
74.0646
74.06
74.0549
74.0497
74.0668
74.0704
74.073
74.0744
74.0748
74.0739
74.072
74.0691
74.0653
74.0607
74.0557
74.0506
74.0673
74.0705
74.0731
74.0745
74.0747
74.0735
74.0717
74.0689
74.0651
74.0607
74.0557
74.0506
74.0669
74.0699
74.0721
74.0733
74.0735
74.0726
74.0706
74.0677
74.064
74.0596
74.0547
74.0497
74.0651
74.0678
74.07
74.0711
74.0712
74.0702
74.0681
74.0653
74.0617
74.057
74.0522
74.0473
74.0619
74.0643
74.0663
74.0672
74.0673
74.0661
74.064
74.0611
74.0575
74.053
74.0481
74.0432
74.0566
74.0589
74.0608
74.0617
74.0615
74.0603
74.0582
74.0552
74.0514
74.0468
74.0421
74.0374
74.0496
74.052
74.0537
74.0542
74.0542
74.0527
74.0507
74.0475
74.0438
74.0391
74.0342
74.0295
74.0409
74.0433
74.0448
74.0455
74.0453
74.0437
74.0415
74.0384
74.0346
74.0299
74.0249
74.02
74.0312
74.0334
74.0351
74.0357
74.0352
74.0336
74.0312
74.028
74.024
74.0192
74.0142
74.0092
145.993
146.001
146.006
146.008
146.007
146.003
145.996
145.989
145.98
145.972
145.963
145.954
145.889
145.897
145.901
145.903
145.902
145.898
145.891
145.884
145.876
145.867
145.859
145.85
145.731
145.738
145.742
145.743
145.742
145.738
145.732
145.725
145.717
145.709
145.701
145.693
145.631
145.637
145.641
145.642
145.641
145.637
145.631
145.624
145.617
145.609
145.601
145.593
145.605
145.611
145.615
145.616
145.615
145.611
145.605
145.598
145.591
145.583
145.575
145.568
145.606
145.613
145.617
145.618
145.616
145.613
145.607
145.6
145.593
145.585
145.577
145.569
145.608
145.615
145.619
145.62
145.618
145.615
145.609
145.602
145.595
145.587
145.579
145.571
145.61
145.617
145.621
145.622
145.62
145.616
145.611
145.604
145.596
145.589
145.581
145.573
145.612
145.618
145.623
145.624
145.622
145.618
145.612
145.606
145.598
145.59
145.583
145.575
145.613
145.62
145.624
145.625
145.624
145.62
145.614
145.607
145.6
145.592
145.584
145.576
145.615
145.621
145.625
145.627
145.625
145.621
145.615
145.609
145.601
145.594
145.586
145.578
145.616
145.623
145.627
145.628
145.626
145.622
145.617
145.61
145.602
145.595
145.587
145.579
145.617
145.624
145.628
145.629
145.628
145.624
145.618
145.611
145.604
145.596
145.588
145.58
145.618
145.625
145.629
145.63
145.629
145.625
145.619
145.612
145.605
145.597
145.589
145.581
145.619
145.626
145.63
145.631
145.63
145.626
145.62
145.613
145.606
145.598
145.59
145.582
145.62
145.627
145.631
145.632
145.631
145.627
145.621
145.614
145.607
145.599
145.591
145.583
145.621
145.628
145.632
145.633
145.632
145.628
145.622
145.615
145.608
145.6
145.592
145.584
145.622
145.629
145.633
145.634
145.632
145.629
145.623
145.616
145.609
145.601
145.593
145.585
145.622
145.629
145.633
145.635
145.633
145.63
145.624
145.617
145.61
145.602
145.594
145.586
145.623
145.63
145.634
145.635
145.634
145.63
145.625
145.618
145.61
145.602
145.594
145.586
145.623
145.631
145.635
145.636
145.635
145.631
145.625
145.618
145.611
145.603
145.595
145.587
145.624
145.631
145.635
145.637
145.635
145.632
145.626
145.619
145.612
145.604
145.595
145.587
145.624
145.632
145.636
145.637
145.636
145.632
145.627
145.62
145.612
145.604
145.596
145.588
145.625
145.632
145.636
145.638
145.636
145.633
145.627
145.62
145.613
145.605
145.597
145.588
145.625
145.632
145.637
145.638
145.637
145.633
145.628
145.621
145.613
145.605
145.597
145.589
145.625
145.633
145.637
145.639
145.637
145.634
145.628
145.622
145.614
145.606
145.598
145.589
145.626
145.633
145.638
145.639
145.638
145.634
145.629
145.622
145.614
145.606
145.598
145.59
145.626
145.634
145.638
145.64
145.639
145.635
145.629
145.622
145.615
145.607
145.599
145.59
145.627
145.634
145.638
145.64
145.639
145.635
145.63
145.623
145.616
145.607
145.599
145.591
145.627
145.634
145.639
145.641
145.639
145.636
145.63
145.624
145.616
145.608
145.599
145.591
145.627
145.635
145.639
145.641
145.64
145.636
145.631
145.624
145.617
145.609
145.6
145.592
145.628
145.635
145.64
145.642
145.64
145.637
145.632
145.625
145.617
145.609
145.601
145.592
145.628
145.636
145.64
145.642
145.641
145.637
145.632
145.625
145.618
145.61
145.601
145.593
145.629
145.636
145.641
145.643
145.642
145.638
145.633
145.626
145.618
145.61
145.602
145.593
145.629
145.637
145.641
145.643
145.642
145.639
145.633
145.627
145.619
145.611
145.602
145.594
145.629
145.637
145.642
145.644
145.643
145.64
145.634
145.628
145.62
145.612
145.603
145.594
145.63
145.638
145.643
145.645
145.644
145.64
145.635
145.628
145.621
145.613
145.604
145.595
145.631
145.639
145.644
145.646
145.645
145.641
145.636
145.629
145.622
145.613
145.605
145.596
145.632
145.639
145.645
145.646
145.646
145.642
145.637
145.63
145.623
145.615
145.606
145.597
145.632
145.64
145.645
145.648
145.647
145.643
145.638
145.631
145.624
145.616
145.607
145.598
145.633
145.641
145.647
145.649
145.648
145.644
145.639
145.633
145.625
145.617
145.608
145.599
145.635
145.642
145.648
145.65
145.649
145.646
145.641
145.634
145.626
145.618
145.609
145.6
145.636
145.644
145.649
145.651
145.65
145.647
145.642
145.635
145.628
145.62
145.611
145.602
145.637
145.645
145.65
145.652
145.652
145.649
145.644
145.637
145.629
145.621
145.612
145.603
145.638
145.646
145.652
145.654
145.653
145.65
145.645
145.639
145.631
145.623
145.614
145.605
145.64
145.648
145.653
145.656
145.655
145.652
145.647
145.641
145.633
145.625
145.616
145.606
145.642
145.65
145.655
145.658
145.657
145.654
145.649
145.642
145.635
145.627
145.618
145.608
145.644
145.652
145.657
145.659
145.659
145.656
145.651
145.645
145.637
145.629
145.62
145.61
145.646
145.654
145.659
145.662
145.661
145.658
145.653
145.647
145.639
145.631
145.622
145.613
145.648
145.656
145.662
145.664
145.664
145.661
145.656
145.649
145.642
145.633
145.624
145.615
145.65
145.659
145.664
145.666
145.666
145.663
145.658
145.652
145.645
145.636
145.627
145.618
145.653
145.661
145.667
145.669
145.669
145.666
145.661
145.655
145.647
145.639
145.63
145.62
145.656
145.664
145.669
145.672
145.671
145.669
145.664
145.658
145.65
145.642
145.633
145.623
145.659
145.667
145.672
145.675
145.675
145.672
145.667
145.661
145.653
145.645
145.636
145.626
145.662
145.67
145.675
145.678
145.678
145.675
145.67
145.664
145.657
145.648
145.639
145.63
145.665
145.673
145.679
145.681
145.681
145.678
145.674
145.668
145.66
145.652
145.643
145.633
145.669
145.677
145.682
145.685
145.685
145.682
145.677
145.671
145.664
145.656
145.646
145.637
145.672
145.68
145.686
145.688
145.688
145.686
145.681
145.675
145.668
145.659
145.65
145.641
145.676
145.684
145.689
145.692
145.692
145.69
145.685
145.679
145.672
145.663
145.654
145.645
145.68
145.688
145.693
145.696
145.696
145.693
145.689
145.683
145.676
145.667
145.658
145.649
145.684
145.692
145.697
145.7
145.7
145.697
145.693
145.687
145.68
145.671
145.662
145.653
145.688
145.696
145.701
145.704
145.704
145.701
145.697
145.691
145.684
145.676
145.666
145.657
145.693
145.7
145.705
145.708
145.708
145.706
145.701
145.695
145.688
145.68
145.671
145.661
145.697
145.704
145.71
145.712
145.712
145.71
145.705
145.7
145.692
145.684
145.675
145.666
145.701
145.709
145.714
145.716
145.716
145.714
145.71
145.704
145.697
145.688
145.679
145.67
145.706
145.713
145.718
145.72
145.72
145.718
145.714
145.708
145.701
145.693
145.683
145.674
145.71
145.717
145.722
145.724
145.724
145.722
145.718
145.712
145.705
145.697
145.688
145.678
145.714
145.721
145.726
145.728
145.728
145.725
145.721
145.716
145.709
145.7
145.691
145.682
145.718
145.725
145.729
145.731
145.731
145.729
145.725
145.719
145.712
145.704
145.695
145.686
145.722
145.728
145.732
145.734
145.734
145.732
145.727
145.722
145.715
145.707
145.698
145.689
145.725
145.73
145.734
145.736
145.736
145.734
145.73
145.724
145.717
145.709