/*--------------------------------*- C++ -*----------------------------------*\
| =========                 |                                                 |
| \\      /  F ield         | OpenFOAM: The Open Source CFD Toolbox           |
|  \\    /   O peration     | Version:  v1912                                 |
|   \\  /    A nd           | Website:  www.openfoam.com                      |
|    \\/     M anipulation  |                                                 |
\*---------------------------------------------------------------------------*/
FoamFile
{
    version     2.0;
    format      ascii;
    class       volSymmTensorField;
    location    "8";
    object      UPrime2Mean;
}
// * * * * * * * * * * * * * * * * * * * * * * * * * * * * * * * * * * * * * //

dimensions      [0 2 -2 0 0 0 0];


internalField   nonuniform List<symmTensor> 
34128
(
(4.35224e-11 6.19829e-15 6.70241e-10 1.19138e-12 -3.02639e-09 1.12845e-05)
(5.51976e-11 3.34292e-15 6.0484e-10 1.19133e-12 -3.02681e-09 1.13052e-05)
(4.37003e-11 3.55216e-14 6.73543e-10 1.1911e-12 -3.02778e-09 1.13263e-05)
(3.79233e-11 4.88457e-14 4.97348e-10 1.19103e-12 -3.0263e-09 1.13344e-05)
(5.25113e-11 5.24608e-14 3.1813e-11 1.19115e-12 -3.0246e-09 1.13176e-05)
(4.49203e-11 5.0634e-14 -1.82135e-10 1.19134e-12 -3.02565e-09 1.12939e-05)
(4.24555e-11 -9.25678e-15 5.12664e-11 1.19114e-12 -3.02625e-09 1.12801e-05)
(6.00274e-11 -2.06855e-14 2.95087e-10 1.19069e-12 -3.02649e-09 1.12935e-05)
(5.52641e-11 6.97803e-14 2.40881e-10 1.19057e-12 -3.02727e-09 1.13142e-05)
(3.26416e-11 9.35005e-14 1.07328e-10 1.1911e-12 -3.02652e-09 1.13098e-05)
(2.90093e-11 4.63276e-14 6.58804e-11 1.19144e-12 -3.025e-09 1.12893e-05)
(2.30712e-11 -1.24099e-14 7.66327e-11 1.19261e-12 -3.02615e-09 1.12849e-05)
(3.80467e-10 1.42244e-12 4.70888e-09 5.87931e-12 -1.20563e-08 4.46147e-05)
(4.79716e-10 1.10543e-12 4.39586e-09 5.88156e-12 -1.20368e-08 4.47678e-05)
(3.78008e-10 1.9348e-12 5.12531e-09 5.87479e-12 -1.20313e-08 4.49285e-05)
(3.30812e-10 1.4894e-12 3.83681e-09 5.8891e-12 -1.19874e-08 4.49951e-05)
(4.59324e-10 9.50444e-13 2.70904e-10 5.90052e-12 -1.19717e-08 4.48694e-05)
(3.92748e-10 9.15854e-13 -1.37072e-09 5.90215e-12 -1.20354e-08 4.46884e-05)
(3.74384e-10 -4.91235e-13 4.22405e-10 5.88443e-12 -1.2075e-08 4.45806e-05)
(5.2846e-10 -4.2632e-13 2.40604e-09 5.85007e-12 -1.20704e-08 4.46765e-05)
(4.86879e-10 1.89893e-12 2.38114e-09 5.84752e-12 -1.20617e-08 4.48324e-05)
(2.89433e-10 1.97536e-12 1.55975e-09 5.88513e-12 -1.20412e-08 4.48059e-05)
(2.53223e-10 8.39276e-13 1.06208e-09 5.91005e-12 -1.20205e-08 4.46554e-05)
(2.01331e-10 -2.95815e-13 9.51894e-10 5.9063e-12 -1.20167e-08 4.46236e-05)
(1.04187e-09 6.32882e-12 1.25062e-08 4.89877e-12 -1.02783e-08 8.63321e-05)
(1.30713e-09 4.9573e-12 1.18132e-08 4.93344e-12 -1.01605e-08 8.67091e-05)
(1.02701e-09 8.65654e-12 1.366e-08 4.90733e-12 -1.00959e-08 8.71128e-05)
(9.05898e-10 5.77905e-12 1.01043e-08 5.0303e-12 -9.90069e-09 8.72858e-05)
(1.25927e-09 2.95997e-12 9.77737e-10 5.08117e-12 -9.8673e-09 8.69741e-05)
(1.07541e-09 3.18124e-12 -3.25268e-09 5.03308e-12 -1.017e-08 8.65236e-05)
(1.03228e-09 -2.40516e-12 1.00394e-09 4.89835e-12 -1.03614e-08 8.62528e-05)
(1.45505e-09 -1.45189e-12 5.96486e-09 4.68104e-12 -1.03368e-08 8.64811e-05)
(1.34154e-09 8.56349e-12 6.40577e-09 4.68827e-12 -1.02688e-08 8.68653e-05)
(8.02332e-10 8.32165e-12 4.50501e-09 4.93834e-12 -1.01777e-08 8.68094e-05)
(6.93335e-10 3.69276e-12 2.91619e-09 5.09889e-12 -1.01161e-08 8.64416e-05)
(5.51238e-10 -4.78885e-13 2.3054e-09 5.08136e-12 -1.01035e-08 8.63644e-05)
(2.0187e-09 1.74467e-11 2.32413e-08 9.74147e-12 -7.32104e-09 0.000129534)
(2.52009e-09 1.3913e-11 2.22489e-08 9.88256e-12 -6.99697e-09 0.000130196)
(1.97572e-09 2.37806e-11 2.5548e-08 9.82377e-12 -6.78735e-09 0.00013092)
(1.75744e-09 1.51637e-11 1.8498e-08 1.03202e-11 -6.27636e-09 0.000131235)
(2.44375e-09 7.29082e-12 1.9918e-09 1.04836e-11 -6.22166e-09 0.00013068)
(2.08314e-09 8.05026e-12 -5.56897e-09 1.02308e-11 -7.01473e-09 0.000129884)
(2.01305e-09 -6.55646e-12 1.63724e-09 9.71027e-12 -7.52691e-09 0.000129403)
(2.83342e-09 -3.48379e-12 1.04527e-08 8.91077e-12 -7.48853e-09 0.00012979)
(2.6145e-09 2.34337e-11 1.19982e-08 8.96363e-12 -7.29432e-09 0.000130465)
(1.57376e-09 2.25297e-11 8.76646e-09 9.89937e-12 -7.03462e-09 0.000130381)
(1.34416e-09 1.02003e-11 5.45801e-09 1.04985e-11 -6.88392e-09 0.000129737)
(1.06871e-09 -7.02469e-13 4.00034e-09 1.04366e-11 -6.86137e-09 0.000129604)
(3.3025e-09 3.71784e-11 3.5944e-08 1.82314e-11 1.05801e-08 0.000170683)
(4.10202e-09 3.02213e-11 3.4964e-08 1.86451e-11 1.12618e-08 0.000171665)
(3.21071e-09 5.04155e-11 3.99486e-08 1.85874e-11 1.17616e-08 0.000172765)
(2.88163e-09 3.07776e-11 2.80794e-08 1.99895e-11 1.27922e-08 0.000173247)
(4.00537e-09 1.39618e-11 2.98153e-09 2.03495e-11 1.28341e-08 0.000172406)
(3.4065e-09 1.58049e-11 -8.18989e-09 1.95007e-11 1.12355e-08 0.00017122)
(3.31362e-09 -1.38288e-11 2.15608e-09 1.80822e-11 1.01904e-08 0.000170501)
(4.6569e-09 -6.45953e-12 1.54109e-08 1.60049e-11 1.02254e-08 0.000171055)
(4.30082e-09 4.93654e-11 1.8794e-08 1.62044e-11 1.06461e-08 0.000172055)
(2.60681e-09 4.70725e-11 1.40532e-08 1.86784e-11 1.12013e-08 0.000171949)
(2.20152e-09 2.16829e-11 8.47449e-09 2.02501e-11 1.1475e-08 0.000170992)
(1.75035e-09 -4.132e-13 6.00207e-09 2.01031e-11 1.15103e-08 0.000170799)
(4.88444e-09 6.7581e-11 4.9745e-08 3.92055e-11 3.59822e-08 0.00020782)
(6.03604e-09 5.61499e-11 4.92824e-08 4.01315e-11 3.71836e-08 0.000209137)
(4.71893e-09 9.16282e-11 5.6075e-08 4.01827e-11 3.81605e-08 0.000210651)
(4.27532e-09 5.42055e-11 3.79395e-08 4.33868e-11 3.99391e-08 0.000211312)
(5.93641e-09 2.39672e-11 3.55569e-09 4.40759e-11 3.99029e-08 0.000210151)
(5.0354e-09 2.74908e-11 -1.10821e-08 4.19611e-11 3.71632e-08 0.000208559)
(4.92984e-09 -2.47323e-11 2.38006e-09 3.88224e-11 3.53584e-08 0.000207595)
(6.91689e-09 -1.03129e-11 2.04216e-08 3.43493e-11 3.53409e-08 0.000208309)
(6.3939e-09 8.94071e-11 2.64e-08 3.48603e-11 3.60955e-08 0.000209647)
(3.90429e-09 8.51302e-11 2.00139e-08 4.02529e-11 3.71063e-08 0.000209527)
(3.26152e-09 3.98428e-11 1.17291e-08 4.36674e-11 3.75373e-08 0.00020824)
(2.59272e-09 5.69977e-13 8.29662e-09 4.33696e-11 3.75877e-08 0.000207987)
(6.75469e-09 1.10323e-10 6.38747e-08 7.78336e-11 7.07757e-08 0.000239906)
(8.30429e-09 9.39165e-11 6.45895e-08 7.95981e-11 7.26724e-08 0.000241558)
(6.48702e-09 1.50206e-10 7.32201e-08 8.00104e-11 7.43667e-08 0.000243508)
(5.93499e-09 8.64593e-11 4.72826e-08 8.6387e-11 7.7136e-08 0.000244348)
(8.22772e-09 3.78773e-11 3.33875e-09 8.75623e-11 7.69032e-08 0.000242844)
(6.9585e-09 4.38542e-11 -1.42707e-08 8.31193e-11 7.2676e-08 0.000240851)
(6.8558e-09 -3.97106e-11 2.13446e-09 7.70642e-11 6.98811e-08 0.000239648)
(9.60188e-09 -1.46455e-11 2.51256e-08 6.85967e-11 6.97373e-08 0.000240507)
(8.8844e-09 1.4645e-10 3.44395e-08 6.96785e-11 7.09458e-08 0.000242178)
(5.46805e-09 1.39652e-10 2.63065e-08 7.99891e-11 7.25924e-08 0.000242054)
(4.52001e-09 6.64591e-11 1.50045e-08 8.65009e-11 7.31947e-08 0.000240431)
(3.59186e-09 2.84945e-12 1.08806e-08 8.59697e-11 7.32639e-08 0.000240123)
(8.90229e-09 1.66733e-10 7.7702e-08 1.41216e-10 1.14139e-07 0.000266494)
(1.0888e-08 1.458e-10 8.03598e-08 1.44226e-10 1.16911e-07 0.000268467)
(8.50118e-09 2.28783e-10 9.07981e-08 1.45477e-10 1.19616e-07 0.000270864)
(7.85632e-09 1.28385e-10 5.55077e-08 1.5698e-10 1.23625e-07 0.000271876)
(1.08684e-08 5.63938e-11 2.04676e-09 1.58808e-10 1.23017e-07 0.000270011)
(9.16316e-09 6.57588e-11 -1.77916e-08 1.50498e-10 1.16961e-07 0.00026764)
(9.08368e-09 -5.89712e-11 1.27747e-09 1.39897e-10 1.12955e-07 0.000266216)
(1.26973e-08 -1.87954e-11 2.92426e-08 1.25278e-10 1.12585e-07 0.000267197)
(1.176e-08 2.23317e-10 4.25955e-08 1.27306e-10 1.14374e-07 0.000269182)
(7.29872e-09 2.1369e-10 3.266e-08 1.45258e-10 1.16852e-07 0.000269063)
(5.97259e-09 1.03522e-10 1.8145e-08 1.56565e-10 1.17615e-07 0.000267112)
(4.7432e-09 7.18909e-12 1.37537e-08 1.55705e-10 1.17708e-07 0.000266754)
(1.13157e-08 2.37803e-10 9.07581e-08 2.37066e-10 1.65262e-07 0.000287524)
(1.37682e-08 2.14156e-10 9.61738e-08 2.41813e-10 1.69089e-07 0.000289797)
(1.07476e-08 3.29817e-10 1.08368e-07 2.44716e-10 1.73148e-07 0.00029264)
(1.00343e-08 1.80575e-10 6.22531e-08 2.63987e-10 1.78646e-07 0.000293812)
(1.3846e-08 8.0208e-11 -4.6342e-10 2.66598e-10 1.77422e-07 0.000291576)
(1.16359e-08 9.406e-11 -2.1652e-08 2.52319e-10 1.69209e-07 0.00028886)
(1.16043e-08 -8.25136e-11 -2.78443e-10 2.35051e-10 1.63788e-07 0.000287242)
(1.61861e-08 -2.18159e-11 3.25834e-08 2.11505e-10 1.63069e-07 0.000288318)
(1.50061e-08 3.22669e-10 5.06411e-08 2.14996e-10 1.65568e-07 0.000290589)
(9.396e-09 3.10286e-10 3.89144e-08 2.44128e-10 1.69081e-07 0.000290485)
(7.61484e-09 1.53204e-10 2.1082e-08 2.62414e-10 1.6997e-07 0.000288221)
(6.04175e-09 1.45855e-11 1.6914e-08 2.61126e-10 1.70094e-07 0.00028782)
(1.39839e-08 3.24242e-10 1.02733e-07 3.73538e-10 2.23154e-07 0.00030318)
(1.69271e-08 3.01448e-10 1.11719e-07 3.80611e-10 2.28211e-07 0.000305726)
(1.32134e-08 4.55626e-10 1.25631e-07 3.86454e-10 2.34017e-07 0.000309007)
(1.24637e-08 2.43397e-10 6.73933e-08 4.16912e-10 2.41254e-07 0.000310321)
(1.71478e-08 1.0998e-10 -4.18164e-09 4.2033e-10 2.3911e-07 0.000307712)
(1.43633e-08 1.29572e-10 -2.58064e-08 3.97341e-10 2.28434e-07 0.000304691)
(1.44082e-08 -1.10154e-10 -2.5564e-09 3.70734e-10 2.21414e-07 0.000302909)
(2.00506e-08 -2.25067e-11 3.5049e-08 3.34798e-10 2.20196e-07 0.000304052)
(1.86071e-08 4.46977e-10 5.8451e-08 3.40448e-10 2.23537e-07 0.000306575)
(1.17594e-08 4.3246e-10 4.50323e-08 3.85203e-10 2.28297e-07 0.000306496)
(9.44297e-09 2.17861e-10 2.38393e-08 4.13169e-10 2.29257e-07 0.000303941)
(7.48269e-09 2.62556e-11 2.03577e-08 4.11362e-10 2.29419e-07 0.000303503)
(1.68975e-08 4.26527e-10 1.13449e-07 5.59213e-10 2.86867e-07 0.000313778)
(2.03499e-08 4.10274e-10 1.26775e-07 5.69323e-10 2.93318e-07 0.000316569)
(1.5888e-08 6.0844e-10 1.42414e-07 5.80047e-10 3.01306e-07 0.000320271)
(1.51404e-08 3.16987e-10 7.09934e-08 6.2597e-10 3.1053e-07 0.000321712)
(2.07624e-08 1.46257e-10 -8.96549e-09 6.2999e-10 3.0711e-07 0.000318734)
(1.73332e-08 1.73001e-10 -3.01519e-08 5.94844e-10 2.93686e-07 0.00031545)
(1.7487e-08 -1.41605e-10 -5.51717e-09 5.55612e-10 2.84902e-07 0.000313535)
(2.42748e-08 -1.94878e-11 3.66184e-08 5.03073e-10 2.83013e-07 0.000314716)
(2.25488e-08 5.98506e-10 6.59937e-08 5.11795e-10 2.87323e-07 0.000317456)
(1.43895e-08 5.83198e-10 5.10843e-08 5.77608e-10 2.93554e-07 0.000317409)
(1.14546e-08 3.00015e-10 2.65188e-08 6.18496e-10 2.94517e-07 0.000314593)
(9.0621e-09 4.36224e-11 2.40804e-08 6.16095e-10 2.94724e-07 0.000314123)
(2.00503e-08 5.44895e-10 1.22821e-07 8.02977e-10 3.55409e-07 0.000319697)
(2.40259e-08 5.43322e-10 1.41195e-07 8.17001e-10 3.63409e-07 0.000322702)
(1.87641e-08 7.90398e-10 1.58629e-07 8.35413e-10 3.74048e-07 0.000326805)
(1.8062e-08 4.0123e-10 7.32427e-08 9.01998e-10 3.85507e-07 0.000328356)
(2.46807e-08 1.89405e-10 -1.45818e-08 9.0602e-10 3.80405e-07 0.000325019)
(2.05359e-08 2.24898e-10 -3.45381e-08 8.54511e-10 3.6398e-07 0.000321514)
(2.08349e-08 -1.76544e-10 -9.07073e-09 7.98697e-10 3.53286e-07 0.000319498)
(2.88458e-08 -1.12898e-11 3.73301e-08 7.24503e-10 3.50523e-07 0.00032069)
(2.68196e-08 7.79279e-10 7.33081e-08 7.37478e-10 3.55925e-07 0.00032361)
(1.72885e-08 7.65422e-10 5.72169e-08 8.30872e-10 3.63862e-07 0.000323603)
(1.36494e-08 4.02333e-10 2.92757e-08 8.8848e-10 3.64755e-07 0.000320558)
(1.07775e-08 6.82831e-11 2.8079e-08 8.85434e-10 3.65016e-07 0.000320061)
(2.34402e-08 6.79772e-10 1.30787e-07 1.1143e-09 4.27836e-07 0.000321319)
(2.79509e-08 7.03343e-10 1.54878e-07 1.13333e-09 4.37519e-07 0.000324507)
(2.18394e-08 1.00338e-09 1.74255e-07 1.16325e-09 4.51305e-07 0.000328986)
(2.12298e-08 4.96246e-10 7.43475e-08 1.25667e-09 4.65247e-07 0.000330634)
(2.88979e-08 2.39899e-10 -2.07858e-08 1.25963e-09 4.58023e-07 0.000326953)
(2.39653e-08 2.85632e-10 -3.87939e-08 1.18674e-09 4.38373e-07 0.000323269)
(2.44506e-08 -2.14449e-10 -1.31118e-08 1.10962e-09 4.25646e-07 0.000321178)
(3.3757e-08 3.8224e-12 3.72415e-08 1.00783e-09 4.21776e-07 0.000322356)
(3.14136e-08 9.90927e-10 8.04839e-08 1.02655e-09 4.28386e-07 0.00032542)
(2.04624e-08 9.81912e-10 6.36175e-08 1.15521e-09 4.38274e-07 0.000325461)
(1.60303e-08 5.27712e-10 3.22785e-08 1.23396e-09 4.39033e-07 0.000322221)
(1.26289e-08 1.01939e-10 3.23546e-08 1.23024e-09 4.39351e-07 0.000321701)
(2.70713e-08 8.30777e-10 1.37322e-07 1.50279e-09 5.03133e-07 0.000319002)
(3.21278e-08 8.93162e-10 1.67739e-07 1.52823e-09 5.1462e-07 0.000322343)
(2.5117e-08 1.24967e-09 1.89259e-07 1.57499e-09 5.32081e-07 0.000327171)
(2.46496e-08 6.01362e-10 7.45091e-08 1.7024e-09 5.48752e-07 0.000328903)
(3.34154e-08 2.97406e-10 -2.7332e-08 1.70226e-09 5.3892e-07 0.000324897)
(2.76203e-08 3.55218e-10 -4.27436e-08 1.60211e-09 5.15859e-07 0.000321073)
(2.83387e-08 -2.55215e-10 -1.75243e-08 1.4982e-09 5.00997e-07 0.000318934)
(3.90094e-08 2.72601e-11 3.64159e-08 1.3618e-09 4.95755e-07 0.000320073)
(3.63317e-08 1.23537e-09 8.75911e-08 1.38815e-09 5.03676e-07 0.000323246)
(2.39217e-08 1.23574e-09 7.04505e-08 1.56109e-09 5.15777e-07 0.000323344)
(1.86041e-08 6.7903e-10 3.56922e-08 1.6659e-09 5.16342e-07 0.000319946)
(1.46192e-08 1.46496e-10 3.69016e-08 1.66149e-09 5.16722e-07 0.000319407)
(3.09506e-08 9.97281e-10 1.42472e-07 1.97743e-09 5.80085e-07 0.000313131)
(3.6564e-08 1.11512e-09 1.79724e-07 2.01102e-09 5.93473e-07 0.000316591)
(2.86038e-08 1.53071e-09 2.0361e-07 2.08156e-09 6.1514e-07 0.000321736)
(2.83298e-08 7.1553e-10 7.39812e-08 2.25114e-09 6.34781e-07 0.000323542)
(3.82369e-08 3.61199e-10 -3.39305e-08 2.24477e-09 6.21842e-07 0.000319236)
(3.15024e-08 4.33339e-10 -4.62034e-08 2.11071e-09 5.95233e-07 0.00031531)
(3.25067e-08 -2.98843e-10 -2.21573e-08 1.97373e-09 5.78159e-07 0.000313149)
(4.46079e-08 6.01763e-11 3.49568e-08 1.79449e-09 5.71241e-07 0.000314226)
(4.15778e-08 1.51357e-09 9.46919e-08 1.83074e-09 5.80557e-07 0.000317473)
(2.76797e-08 1.52922e-09 7.78743e-08 2.05841e-09 5.95146e-07 0.000317636)
(2.138e-08 8.59127e-10 3.96917e-08 2.19481e-09 5.95488e-07 0.000314117)
(1.67531e-08 2.03788e-10 4.17079e-08 2.1897e-09 5.9593e-07 0.000313563)
(3.50869e-08 1.17834e-09 1.46296e-07 2.54727e-09 6.57519e-07 0.000304117)
(4.12696e-08 1.37131e-09 1.90808e-07 2.59116e-09 6.72879e-07 0.000307665)
(3.23088e-08 1.84778e-09 2.17302e-07 2.69439e-09 6.99286e-07 0.000313093)
(3.228e-08 8.37725e-10 7.30049e-08 2.91532e-09 7.22126e-07 0.000314964)
(4.33668e-08 4.30423e-10 -4.03113e-08 2.89815e-09 7.05573e-07 0.000310386)
(3.56137e-08 5.19371e-10 -4.9008e-08 2.72277e-09 6.75327e-07 0.000306397)
(3.69641e-08 -3.45454e-10 -2.68533e-08 2.54567e-09 6.5599e-07 0.000304234)
(5.05589e-08 1.03607e-10 3.29872e-08 2.31398e-09 6.47064e-07 0.000305229)
(4.71572e-08 1.82634e-09 1.01863e-07 2.36285e-09 6.57838e-07 0.000308518)
(3.17504e-08 1.86475e-09 8.6044e-08 2.65721e-09 6.75198e-07 0.000308752)
(2.43681e-08 1.07098e-09 4.44309e-08 2.83131e-09 6.75318e-07 0.00030515)
(1.90361e-08 2.75717e-10 4.67596e-08 2.82544e-09 6.75819e-07 0.000304584)
(3.94919e-08 1.37251e-09 1.48846e-07 3.22128e-09 7.34227e-07 0.000292371)
(4.62583e-08 1.66335e-09 2.00966e-07 3.27812e-09 7.51609e-07 0.000295976)
(3.62443e-08 2.20179e-09 2.30304e-07 3.42522e-09 7.83276e-07 0.000301651)
(3.65119e-08 9.66586e-10 7.17486e-08 3.70766e-09 8.09532e-07 0.000303578)
(4.88113e-08 5.03772e-10 -4.6278e-08 3.67336e-09 7.88855e-07 0.00029876)
(3.99583e-08 6.12305e-10 -5.10376e-08 3.44852e-09 7.54941e-07 0.000294741)
(4.17235e-08 -3.95442e-10 -3.14786e-08 3.22351e-09 7.33317e-07 0.000292596)
(5.68726e-08 1.58292e-10 3.06121e-08 2.92817e-09 7.22019e-07 0.000293491)
(5.3078e-08 2.17419e-09 1.09141e-07 2.99284e-09 7.3429e-07 0.000296794)
(3.61499e-08 2.24446e-09 9.50471e-08 3.3675e-09 7.54712e-07 0.000297105)
(2.75809e-08 1.31755e-09 5.00078e-08 3.58603e-09 7.54644e-07 0.000293455)
(2.1475e-08 3.64151e-10 5.20284e-08 3.57927e-09 7.55198e-07 0.000292881)
(4.418e-08 1.57784e-09 1.50165e-07 4.0082e-09 8.08948e-07 0.000278297)
(5.15479e-08 1.99231e-09 2.10163e-07 4.08121e-09 8.28375e-07 0.000281927)
(4.04257e-08 2.59309e-09 2.42564e-07 4.2859e-09 8.6581e-07 0.000287814)
(4.10397e-08 1.10051e-09 7.03161e-08 4.64099e-09 8.95675e-07 0.00028979)
(5.45778e-08 5.79551e-10 -5.17008e-08 4.58116e-09 8.70367e-07 0.000284762)
(4.45421e-08 7.107e-10 -5.22192e-08 4.29815e-09 8.32818e-07 0.000280749)
(4.68e-08 -4.49444e-10 -3.59257e-08 4.01667e-09 8.08914e-07 0.000278638)
(6.35621e-08 2.24695e-10 2.79155e-08 3.64468e-09 7.94851e-07 0.000279417)
(5.93507e-08 2.5572e-09 1.1652e-07 3.72881e-09 8.08633e-07 0.000282707)
(4.08961e-08 2.67018e-09 1.04907e-07 4.19914e-09 8.32412e-07 0.000283099)
(3.1032e-08 1.6018e-09 5.64646e-08 4.46949e-09 8.32225e-07 0.000279437)
(2.40781e-08 4.7092e-10 5.74698e-08 4.46159e-09 8.32817e-07 0.000278857)
(4.9167e-08 1.79178e-09 1.50279e-07 4.91655e-09 8.80379e-07 0.000262291)
(5.71581e-08 2.35854e-09 2.18351e-07 5.00962e-09 9.01852e-07 0.000265918)
(4.48711e-08 3.02147e-09 2.54001e-07 5.28843e-09 9.45536e-07 0.00027198)
(4.58791e-08 1.23767e-09 6.87476e-08 5.72819e-09 9.79173e-07 0.000273997)
(6.06744e-08 6.55694e-10 -5.65185e-08 5.63213e-09 9.48737e-07 0.000268791)
(4.93718e-08 8.1264e-10 -5.25292e-08 5.28174e-09 9.07654e-07 0.000264816)
(5.22112e-08 -5.0834e-10 -4.012e-08 4.93453e-09 8.81509e-07 0.000262756)
(7.06421e-08 3.03021e-10 2.49538e-08 4.47085e-09 8.64266e-07 0.000263405)
(6.59871e-08 2.97506e-09 1.23947e-07 4.57857e-09 8.79548e-07 0.000266656)
(4.60075e-08 3.14339e-09 1.15575e-07 5.16179e-09 9.06973e-07 0.000267133)
(3.47366e-08 1.92665e-09 6.37809e-08 5.49209e-09 9.0677e-07 0.000263491)
(2.68546e-08 5.97805e-10 6.3019e-08 5.4826e-09 9.07382e-07 0.000262907)
(5.44698e-08 2.01115e-09 1.49198e-07 5.95458e-09 9.47192e-07 0.000244744)
(6.31103e-08 2.76158e-09 2.25457e-07 6.0724e-09 9.70686e-07 0.000248339)
(4.96002e-08 3.48601e-09 2.64505e-07 6.44487e-09 1.02106e-06 0.000254541)
(5.10465e-08 1.37604e-09 6.70289e-08 6.98221e-09 1.0586e-06 0.000256589)
(6.71075e-08 7.29745e-10 -6.07321e-08 6.83667e-09 1.02255e-06 0.000251236)
(5.44545e-08 9.15673e-10 -5.19932e-08 6.40932e-09 9.78111e-07 0.000247333)
(5.79752e-08 -5.73277e-10 -4.40209e-08 5.98643e-09 9.49804e-07 0.000245337)
(7.8128e-08 3.93218e-10 2.17525e-08 5.41374e-09 9.28949e-07 0.000245844)
(7.29991e-08 3.42702e-09 1.31323e-07 5.54966e-09 9.45691e-07 0.000249034)
(5.15029e-08 3.66519e-09 1.26929e-07 6.26492e-09 9.77041e-07 0.000249599)
(3.871e-08 2.29498e-09 7.18709e-08 6.66412e-09 9.76955e-07 0.000246006)
(2.98139e-08 7.46537e-10 6.8588e-08 6.65238e-09 9.77556e-07 0.000245421)
(6.01043e-08 2.23197e-09 1.46911e-07 7.13029e-09 1.00805e-06 0.000226039)
(6.94254e-08 3.20009e-09 2.31387e-07 7.27842e-09 1.03351e-06 0.000229574)
(5.46336e-08 3.98507e-09 2.7394e-07 7.76734e-09 1.09099e-06 0.000235881)
(5.6558e-08 1.51338e-09 6.5107e-08 8.41593e-09 1.13251e-06 0.000237949)
(7.38809e-08 7.98832e-10 -6.43933e-08 8.20489e-09 1.09037e-06 0.000232479)
(5.97962e-08 1.01675e-09 -5.06812e-08 7.69079e-09 1.04283e-06 0.00022868)
(6.41098e-08 -6.45697e-10 -4.76193e-08 7.18158e-09 1.01248e-06 0.000226763)
(8.60331e-08 4.94984e-10 1.8309e-08 6.48007e-09 9.87578e-07 0.000227118)
(8.03966e-08 3.9119e-09 1.38498e-07 6.64927e-09 1.00572e-06 0.000230226)
(5.73989e-08 4.23618e-09 1.38773e-07 7.51769e-09 1.04125e-06 0.00023088)
(4.29672e-08 2.70955e-09 8.05844e-08 7.99571e-09 1.04143e-06 0.000227363)
(3.29655e-08 9.18793e-10 7.40635e-08 7.98074e-09 1.04199e-06 0.000226778)
(6.60837e-08 2.44943e-09 1.43398e-07 8.45125e-09 1.06163e-06 0.000206552)
(7.61219e-08 3.67169e-09 2.36019e-07 8.63628e-09 1.08899e-06 0.000210002)
(5.9991e-08 4.5162e-09 2.82148e-07 9.26792e-09 1.15392e-06 0.000216376)
(6.24278e-08 1.64722e-09 6.29096e-08 1.00421e-08 1.19944e-06 0.000218452)
(8.09934e-08 8.59646e-10 -6.75875e-08 9.74662e-09 1.15078e-06 0.000212895)
(6.54006e-08 1.11214e-09 -4.86999e-08 9.13592e-09 1.10047e-06 0.000209233)
(7.06306e-08 -7.27385e-10 -5.09309e-08 8.52904e-09 1.06824e-06 0.000207407)
(9.43666e-08 6.07753e-10 1.45986e-08 7.67615e-09 1.03885e-06 0.000207602)
(8.81855e-08 4.428e-09 1.45284e-07 7.88418e-09 1.0583e-06 0.000210608)
(6.37092e-08 4.8564e-09 1.50841e-07 8.92888e-09 1.09824e-06 0.00021135)
(4.75215e-08 3.17292e-09 8.97109e-08 9.49672e-09 1.09886e-06 0.000207934)
(3.63176e-08 1.11619e-09 7.93077e-08 9.4772e-09 1.09932e-06 0.000207351)
(7.24167e-08 2.65776e-09 1.3863e-07 9.92458e-09 1.10666e-06 0.000186649)
(8.32132e-08 4.17285e-09 2.39213e-07 1.01542e-08 1.13581e-06 0.000189989)
(6.56901e-08 5.07616e-09 2.88956e-07 1.09585e-08 1.20849e-06 0.000196393)
(6.86662e-08 1.77493e-09 6.03669e-08 1.18732e-08 1.25799e-06 0.000198463)
(8.8436e-08 9.08439e-10 -7.04151e-08 1.14712e-08 1.20236e-06 0.000192848)
(7.12674e-08 1.19743e-09 -4.61835e-08 1.07541e-08 1.14972e-06 0.000189355)
(7.75484e-08 -8.20526e-10 -5.39869e-08 1.00375e-08 1.11582e-06 0.000187635)
(1.0313e-07 7.30678e-10 1.05842e-08 9.00774e-09 1.08153e-06 0.000187664)
(9.63649e-08 4.97315e-09 1.51457e-07 9.26061e-09 1.10216e-06 0.000190547)
(7.04412e-08 5.52526e-09 1.62806e-07 1.05067e-08 1.1467e-06 0.000191377)
(5.2383e-08 3.68737e-09 9.89866e-08 1.11766e-08 1.14793e-06 0.000188083)
(3.98766e-08 1.34029e-09 8.41604e-08 1.11508e-08 1.14822e-06 0.000187503)
(7.9104e-08 2.85016e-09 1.32581e-07 1.15567e-08 1.14194e-06 0.000166684)
(9.07047e-08 4.69881e-09 2.40819e-07 1.18401e-08 1.17276e-06 0.000169891)
(7.17437e-08 5.66088e-09 2.94191e-07 1.28507e-08 1.25341e-06 0.000176287)
(7.52773e-08 1.89375e-09 5.74307e-08 1.39211e-08 1.30678e-06 0.000178336)
(9.61896e-08 9.41058e-10 -7.29739e-08 1.33875e-08 1.24382e-06 0.000172692)
(7.73906e-08 1.26743e-09 -4.32825e-08 1.25545e-08 1.18932e-06 0.000169398)
(8.48668e-08 -9.2778e-10 -5.68237e-08 1.17152e-08 1.15403e-06 0.000167797)
(1.12315e-07 8.62603e-10 6.22705e-09 1.04799e-08 1.11444e-06 0.000167656)
(1.04924e-07 5.54464e-09 1.56773e-07 1.07841e-08 1.13613e-06 0.000170401)
(7.75942e-08 6.24141e-09 1.74294e-07 1.22588e-08 1.18539e-06 0.000171312)
(5.75568e-08 4.25477e-09 1.08104e-07 1.30443e-08 1.1874e-06 0.000168162)
(4.3646e-08 1.59254e-09 8.84437e-08 1.301e-08 1.18746e-06 0.000167586)
(8.61364e-08 3.01873e-09 1.25237e-07 1.33535e-08 1.16642e-06 0.000146995)
(9.85908e-08 5.24346e-09 2.40681e-07 1.37009e-08 1.19875e-06 0.000150047)
(7.81581e-08 6.26545e-09 2.97687e-07 1.49556e-08 1.28749e-06 0.000156395)
(8.22564e-08 2.00086e-09 5.40885e-08 1.61972e-08 1.34457e-06 0.000158407)
(1.04222e-07 9.53009e-10 -7.53436e-08 1.55034e-08 1.27394e-06 0.000152763)
(8.37566e-08 1.31621e-09 -4.01527e-08 1.45453e-08 1.21817e-06 0.000149699)
(9.25792e-08 -1.05235e-09 -5.94732e-08 1.35698e-08 1.18179e-06 0.000148229)
(1.21898e-07 1.00202e-09 1.49707e-09 1.20968e-08 1.13657e-06 0.000147918)
(1.1384e-07 6.13922e-09 1.60979e-07 1.24592e-08 1.15917e-06 0.000150506)
(8.51558e-08 7.00271e-09 1.84897e-07 1.41916e-08 1.2132e-06 0.000151494)
(6.30413e-08 4.87654e-09 1.16726e-07 1.51077e-08 1.21614e-06 0.000148504)
(4.76252e-08 1.87434e-09 9.1968e-08 1.50624e-08 1.21588e-06 0.000147933)
(9.34912e-08 3.15448e-09 1.16598e-07 1.53195e-08 1.17919e-06 0.000127893)
(1.06851e-07 5.79927e-09 2.38661e-07 1.5743e-08 1.21284e-06 0.000130773)
(8.49303e-08 6.88417e-09 2.99303e-07 1.72835e-08 1.30971e-06 0.000137033)
(8.95874e-08 2.09356e-09 5.03711e-08 1.87119e-08 1.37027e-06 0.000138989)
(1.12486e-07 9.3957e-10 -7.75756e-08 1.78261e-08 1.29169e-06 0.000133376)
(9.03424e-08 1.33714e-09 -3.69432e-08 1.67341e-08 1.23527e-06 0.000130568)
(1.00667e-07 -1.19803e-09 -6.19557e-08 1.56078e-08 1.19817e-06 0.000129241)
(1.31837e-07 1.147e-09 -3.61965e-09 1.38615e-08 1.14705e-06 0.000128763)
(1.23072e-07 6.7531e-09 1.63829e-07 1.42896e-08 1.17039e-06 0.000131179)
(9.30997e-08 7.80615e-09 1.94193e-07 1.63107e-08 1.22919e-06 0.000132236)
(6.8826e-08 5.55346e-09 1.24496e-07 1.73739e-08 1.23316e-06 0.000129422)
(5.18084e-08 2.18695e-09 9.45402e-08 1.73144e-08 1.23248e-06 0.000128856)
(1.0113e-07 3.2473e-09 1.0669e-07 1.74584e-08 1.17952e-06 0.000109663)
(1.15448e-07 6.35721e-09 2.34638e-07 1.79715e-08 1.21429e-06 0.000112354)
(9.20455e-08 7.51056e-09 2.98932e-07 1.9844e-08 1.3192e-06 0.000118486)
(9.72404e-08 2.16938e-09 4.6352e-08 2.14744e-08 1.38293e-06 0.000120368)
(1.20915e-07 8.95947e-10 -7.96874e-08 2.03614e-08 1.29622e-06 0.000114818)
(9.71146e-08 1.32295e-09 -3.37865e-08 1.91273e-08 1.23984e-06 0.000112288)
(1.09095e-07 -1.36926e-09 -6.4275e-08 1.78349e-08 1.20243e-06 0.000111114)
(1.42072e-07 1.29516e-09 -9.11657e-09 1.57757e-08 1.1452e-06 0.000110474)
(1.32563e-07 7.38193e-09 1.65097e-07 1.62775e-08 1.16911e-06 0.000112707)
(1.01383e-07 8.64779e-09 2.01765e-07 1.86202e-08 1.23256e-06 0.000113822)
(7.48903e-08 6.28563e-09 1.31055e-07 1.98485e-08 1.23766e-06 0.000111197)
(5.61841e-08 2.53154e-09 9.59705e-08 1.97712e-08 1.23646e-06 0.000110637)
(1.08997e-07 3.28609e-09 9.55614e-08 1.97724e-08 1.1669e-06 9.25493e-05)
(1.24325e-07 6.90677e-09 2.2853e-07 2.03902e-08 1.20254e-06 9.50384e-05)
(9.94753e-08 8.13744e-09 2.96512e-07 2.2645e-08 1.31529e-06 0.000101001)
(1.0517e-07 2.22633e-09 4.21389e-08 2.44927e-08 1.38182e-06 0.000102793)
(1.29428e-07 8.17457e-10 -8.16638e-08 2.31139e-08 1.28689e-06 9.73383e-05)
(1.04028e-07 1.26584e-09 -3.07897e-08 2.17301e-08 1.23125e-06 9.51044e-05)
(1.17813e-07 -1.57109e-09 -6.64204e-08 2.0255e-08 1.19399e-06 9.40914e-05)
(1.52517e-07 1.4436e-09 -1.49701e-08 1.78396e-08 1.13057e-06 9.32991e-05)
(1.42235e-07 8.02081e-09 1.64587e-07 1.84235e-08 1.15486e-06 9.53369e-05)
(1.09942e-07 9.52277e-09 2.07217e-07 2.11224e-08 1.22277e-06 9.64983e-05)
(8.12014e-08 7.0724e-09 1.36058e-07 2.25351e-08 1.22903e-06 9.40731e-05)
(6.0734e-08 2.90915e-09 9.60814e-08 2.24361e-08 1.22718e-06 9.35185e-05)
(1.17015e-07 3.25881e-09 8.32676e-08 2.2262e-08 1.14102e-06 7.67519e-05)
(1.33402e-07 7.43592e-09 2.20288e-07 2.3001e-08 1.17727e-06 7.90298e-05)
(1.07177e-07 8.75696e-09 2.92029e-07 2.56928e-08 1.29751e-06 8.47832e-05)
(1.13313e-07 2.26316e-09 3.78536e-08 2.77724e-08 1.36643e-06 8.64682e-05)
(1.37922e-07 6.99752e-10 -8.34622e-08 2.60859e-08 1.26327e-06 8.11419e-05)
(1.11026e-07 1.15763e-09 -2.8027e-08 2.45454e-08 1.20912e-06 7.92168e-05)
(1.26752e-07 -1.80905e-09 -6.83788e-08 2.28703e-08 1.1725e-06 7.83703e-05)
(1.63068e-07 1.58894e-09 -2.11534e-08 2.00512e-08 1.10289e-06 7.74383e-05)
(1.5199e-07 8.66422e-09 1.62143e-07 2.07263e-08 1.12739e-06 7.92736e-05)
(1.18698e-07 1.04252e-08 2.10199e-07 2.38174e-08 1.19945e-06 8.04683e-05)
(8.77148e-08 7.91222e-09 1.39189e-07 2.54352e-08 1.20684e-06 7.82497e-05)
(6.54336e-08 3.32072e-09 9.47152e-08 2.53102e-08 1.20423e-06 7.77014e-05)
(1.25092e-07 3.15271e-09 6.98588e-08 2.49254e-08 1.10176e-06 6.24227e-05)
(1.42582e-07 7.93101e-09 2.09902e-07 2.58038e-08 1.13831e-06 6.44829e-05)
(1.1509e-07 9.36068e-09 2.85514e-07 2.89913e-08 1.26558e-06 6.99895e-05)
(1.2159e-07 2.27955e-09 3.36155e-08 3.13169e-08 1.3364e-06 7.15528e-05)
(1.46281e-07 5.38999e-10 -8.50171e-08 2.92778e-08 1.22513e-06 6.63872e-05)
(1.18043e-07 9.89835e-10 -2.55361e-08 2.75743e-08 1.17322e-06 6.47781e-05)
(1.35829e-07 -2.08901e-09 -7.01406e-08 2.56807e-08 1.13778e-06 6.41013e-05)
(1.73598e-07 1.72736e-09 -2.76446e-08 2.24064e-08 1.06211e-06 6.30452e-05)
(1.61713e-07 9.30591e-09 1.57642e-07 2.31823e-08 1.08663e-06 6.46732e-05)
(1.27551e-07 1.1348e-08 2.10412e-07 2.67028e-08 1.16243e-06 6.58866e-05)
(9.43736e-08 8.80251e-09 1.40168e-07 2.85474e-08 1.17086e-06 6.38786e-05)
(7.02516e-08 3.76704e-09 9.17379e-08 2.83918e-08 1.16736e-06 6.33371e-05)
(1.33115e-07 2.95428e-09 5.53987e-08 2.77589e-08 1.04919e-06 4.96651e-05)
(1.51742e-07 8.37669e-09 1.97407e-07 2.87959e-08 1.08571e-06 5.15045e-05)
(1.23142e-07 9.93967e-09 2.77041e-07 3.25418e-08 1.21938e-06 5.67289e-05)
(1.29906e-07 2.27605e-09 2.95621e-08 3.51275e-08 1.29157e-06 5.81576e-05)
(1.54372e-07 3.31561e-10 -8.62254e-08 3.26877e-08 1.17241e-06 5.31847e-05)
(1.24999e-07 7.53752e-10 -2.33205e-08 3.08152e-08 1.12352e-06 5.18935e-05)
(1.44941e-07 -2.41721e-09 -7.16787e-08 2.86839e-08 1.08984e-06 5.13866e-05)
(1.83958e-07 1.85393e-09 -3.43931e-08 2.48988e-08 1.00837e-06 5.02251e-05)
(1.7127e-07 9.93884e-09 1.51005e-07 2.57856e-08 1.03274e-06 5.16439e-05)
(1.36384e-07 1.22836e-08 2.07596e-07 2.97736e-08 1.11172e-06 5.28599e-05)
(1.0111e-07 9.73958e-09 1.38758e-07 3.18671e-08 1.12102e-06 5.10637e-05)
(7.51513e-08 4.24889e-09 8.70345e-08 3.16762e-08 1.11651e-06 5.05297e-05)
(1.4095e-07 2.64901e-09 4.00264e-08 3.07556e-08 9.83562e-07 3.85403e-05)
(1.6074e-07 8.75631e-09 1.82895e-07 3.19715e-08 1.01968e-06 4.01585e-05)
(1.31236e-07 1.04853e-08 2.66714e-07 3.6343e-08 1.15899e-06 4.50677e-05)
(1.38145e-07 2.2551e-09 2.58728e-08 3.92023e-08 1.23196e-06 4.63512e-05)
(1.62049e-07 7.42257e-11 -8.69203e-08 3.631e-08 1.10528e-06 4.16033e-05)
(1.31807e-07 4.40736e-10 -2.13503e-08 3.42636e-08 1.06017e-06 4.06259e-05)
(1.53969e-07 -2.79997e-09 -7.29129e-08 3.18747e-08 1.02886e-06 4.02862e-05)
(1.93981e-07 1.96254e-09 -4.12678e-08 2.75185e-08 9.42016e-07 3.90408e-05)
(1.80507e-07 1.05559e-08 1.42181e-07 2.85271e-08 9.6606e-07 4.02518e-05)
(1.45062e-07 1.32231e-08 2.01535e-07 3.30212e-08 1.04754e-06 4.14531e-05)
(1.07842e-07 1.07188e-08 1.34754e-07 3.53858e-08 1.05746e-06 3.9867e-05)
(8.00891e-08 4.76683e-09 8.05127e-08 3.5155e-08 1.0518e-06 3.93415e-05)
(1.48445e-07 2.22213e-09 2.39881e-08 3.39025e-08 9.05389e-07 2.9073e-05)
(1.69407e-07 9.05143e-09 1.66544e-07 3.53181e-08 9.40694e-07 3.04724e-05)
(1.3926e-07 1.09885e-08 2.5465e-07 4.03865e-08 1.08469e-06 3.50347e-05)
(1.46174e-07 2.2211e-09 2.27438e-08 4.35322e-08 1.15779e-06 3.61649e-05)
(1.69154e-07 -2.3377e-10 -8.6906e-08 4.01323e-08 1.02416e-06 3.16763e-05)
(1.38367e-07 4.28815e-11 -1.95635e-08 3.79085e-08 9.83588e-07 3.10015e-05)
(1.62773e-07 -3.24315e-09 -7.37066e-08 3.52414e-08 9.55276e-07 3.08222e-05)
(2.03476e-07 2.04819e-09 -4.80967e-08 3.02501e-08 8.63665e-07 2.95182e-05)
(1.89255e-07 1.11488e-08 1.31177e-07 3.13921e-08 8.87201e-07 3.05258e-05)
(1.53432e-07 1.41562e-08 1.92098e-07 3.643e-08 9.70345e-07 3.16945e-05)