/*--------------------------------*- C++ -*----------------------------------*\
| =========                 |                                                 |
| \\      /  F ield         | OpenFOAM: The Open Source CFD Toolbox           |
|  \\    /   O peration     | Version:  v1912                                 |
|   \\  /    A nd           | Website:  www.openfoam.com                      |
|    \\/     M anipulation  |                                                 |
\*---------------------------------------------------------------------------*/
FoamFile
{
    version     2.0;
    format      ascii;
    class       volVectorField;
    location    "8";
    object      wallShearStress;
}
// * * * * * * * * * * * * * * * * * * * * * * * * * * * * * * * * * * * * * //

dimensions      [1 -1 -2 0 0 0 0];


internalField   uniform (0 0 0);

boundaryField
{
    leftWall
    {
        type            calculated;
        value           nonuniform List<vector> 
216
(
(6.35172e-05 -1.95643e-05 0.119681)
(3.15427e-06 -1.94245e-05 0.124188)
(-5.94836e-05 -1.9884e-05 0.124692)
(-6.78138e-05 -2.12253e-05 0.128845)
(-0.00018403 -2.07235e-05 0.130106)
(-0.000192968 -2.24036e-05 0.134254)
(-0.000277506 -2.18406e-05 0.136278)
(-0.000287316 -2.38356e-05 0.140664)
(-0.000314505 -2.3869e-05 0.143517)
(-0.000296771 -2.60049e-05 0.148316)
(-0.000276374 -2.65927e-05 0.152039)
(-0.000205638 -2.90486e-05 0.15727)
(-0.000151579 -3.02277e-05 0.161803)
(-4.80795e-05 -3.28007e-05 0.16737)
(-5.99077e-06 -3.40102e-05 0.172585)
(7.35716e-05 -3.61426e-05 0.178384)
(0.000104728 -3.78901e-05 0.1842)
(0.000189919 -4.14354e-05 0.190243)
(0.000323354 -2.25463e-05 0.12117)
(0.000372087 -2.29704e-05 0.125716)
(0.000331138 -2.30179e-05 0.126021)
(0.00035361 -2.40421e-05 0.129955)
(0.000196222 -2.30481e-05 0.130795)
(0.000182354 -2.42231e-05 0.134331)
(3.03087e-05 -2.35546e-05 0.135665)
(-2.88733e-06 -2.57907e-05 0.139069)
(-0.000101729 -2.63089e-05 0.141055)
(-0.000130821 -2.92191e-05 0.144726)
(-0.000184264 -3.02516e-05 0.147662)
(-0.000169014 -3.30321e-05 0.151933)
(-0.000165317 -3.40529e-05 0.155994)
(-0.000112847 -3.60816e-05 0.160928)
(-0.000105363 -3.67004e-05 0.166013)
(-8.09852e-05 -3.80721e-05 0.17148)
(-4.27359e-05 -3.93432e-05 0.177429)
(5.73621e-05 -4.17105e-05 0.183404)
(0.000523591 -1.85811e-05 0.123045)
(0.000659626 -1.90591e-05 0.127925)
(0.000669918 -1.93645e-05 0.128617)
(0.000714089 -2.06488e-05 0.13295)
(0.000582931 -2.07136e-05 0.134394)
(0.000569956 -2.1851e-05 0.138248)
(0.00043142 -2.19926e-05 0.140231)
(0.000404537 -2.3689e-05 0.14374)
(0.000303158 -2.43935e-05 0.146246)
(0.000251578 -2.68473e-05 0.149701)
(0.000142459 -2.80262e-05 0.152929)
(7.98526e-05 -3.04617e-05 0.15671)
(-3.48716e-06 -3.17746e-05 0.160876)
(-4.49684e-05 -3.41356e-05 0.16521)
(-0.000110567 -3.60185e-05 0.170297)
(-0.000170209 -3.86911e-05 0.175152)
(-0.00018369 -4.08048e-05 0.181001)
(-0.000167701 -4.33091e-05 0.186357)
(0.000316328 -1.32602e-05 0.12146)
(0.000369578 -1.31913e-05 0.126495)
(0.000416437 -1.44913e-05 0.127645)
(0.000404844 -1.64053e-05 0.132417)
(0.000360373 -1.86522e-05 0.134666)
(0.000324913 -2.07858e-05 0.139206)
(0.00026819 -2.22386e-05 0.142207)
(0.000233534 -2.38031e-05 0.146473)
(0.000195684 -2.44601e-05 0.149922)
(0.000152461 -2.62588e-05 0.153846)
(8.93941e-05 -2.7358e-05 0.157578)
(2.59548e-05 -2.94493e-05 0.161236)
(-3.70718e-05 -3.1143e-05 0.165297)
(-5.55519e-05 -3.39437e-05 0.168951)
(-5.41425e-05 -3.72488e-05 0.173507)
(-2.2407e-05 -4.15406e-05 0.177484)
(3.30772e-05 -4.50294e-05 0.182801)
(9.80406e-05 -4.84573e-05 0.187489)
(-3.93612e-05 -1.22134e-05 0.119976)
(-0.000157355 -1.22836e-05 0.124709)
(-7.61163e-05 -1.44672e-05 0.125856)
(-0.00015422 -1.71448e-05 0.13052)
(-7.15365e-05 -2.04315e-05 0.13278)
(-8.09713e-05 -2.33333e-05 0.137428)
(-1.56349e-05 -2.50601e-05 0.140435)
(2.99814e-06 -2.67361e-05 0.144921)
(7.80382e-05 -2.68295e-05 0.14826)
(0.000132361 -2.7976e-05 0.152337)
(0.000220642 -2.83939e-05 0.155736)
(0.000274605 -2.99003e-05 0.159414)
(0.000345821 -3.11331e-05 0.16301)
(0.000414452 -3.31696e-05 0.166697)
(0.000512798 -3.55806e-05 0.170932)
(0.000600768 -3.93216e-05 0.175224)
(0.000649341 -4.24041e-05 0.18068)
(0.000644436 -4.58661e-05 0.186162)
(-0.0002267 -1.50045e-05 0.120325)
(-0.000416298 -1.62201e-05 0.124671)
(-0.000295968 -1.79557e-05 0.12554)
(-0.000359922 -2.06416e-05 0.129817)
(-0.000180262 -2.24985e-05 0.131575)
(-0.000128142 -2.44909e-05 0.135889)
(1.20607e-05 -2.55768e-05 0.138273)
(9.26645e-05 -2.68414e-05 0.142545)
(0.000218842 -2.69631e-05 0.145282)
(0.000319625 -2.77277e-05 0.149424)
(0.000449737 -2.78213e-05 0.152472)
(0.000502234 -2.91296e-05 0.156707)
(0.000553511 -2.9978e-05 0.16046)
(0.000527327 -3.17689e-05 0.165302)
(0.000502053 -3.24575e-05 0.17026)
(0.00043192 -3.43824e-05 0.176105)
(0.000292046 -3.49945e-05 0.182483)
(0.000120083 -3.79363e-05 0.18933)
(-0.00020567 -1.69289e-05 0.121982)
(-0.000339021 -1.85337e-05 0.126039)
(-0.000220856 -1.83439e-05 0.126624)
(-0.000249147 -1.97956e-05 0.130553)
(-7.20184e-05 -1.9521e-05 0.131815)
(-1.69173e-05 -2.0438e-05 0.135842)
(0.000137076 -2.13092e-05 0.137777)
(0.00023171 -2.28836e-05 0.142056)
(0.000351537 -2.3605e-05 0.144702)
(0.000409497 -2.47617e-05 0.149362)
(0.000445314 -2.44608e-05 0.152837)
(0.000372414 -2.58097e-05 0.158063)
(0.000268188 -2.58245e-05 0.162593)
(8.10123e-05 -2.78808e-05 0.168544)
(-0.000132305 -2.82481e-05 0.174223)
(-0.000342369 -3.0817e-05 0.180879)
(-0.00059087 -3.23926e-05 0.187521)
(-0.000723654 -3.69553e-05 0.194512)
(-9.26775e-05 -1.66967e-05 0.123372)
(-0.000127669 -1.74265e-05 0.12724)
(-0.000118287 -1.57758e-05 0.127675)
(-0.000157026 -1.65161e-05 0.1314)
(-0.000111501 -1.5315e-05 0.132462)
(-0.000148391 -1.63261e-05 0.136425)
(-8.97093e-05 -1.67033e-05 0.138345)
(-7.46957e-05 -1.86102e-05 0.14288)
(-5.50177e-05 -1.94581e-05 0.145891)
(-9.64733e-05 -2.17109e-05 0.151161)
(-0.000208005 -2.23054e-05 0.155294)
(-0.000387141 -2.48904e-05 0.161193)
(-0.000612923 -2.54482e-05 0.166219)
(-0.000849044 -2.81774e-05 0.172402)
(-0.00110764 -2.93012e-05 0.177954)
(-0.00126731 -3.29592e-05 0.184151)
(-0.00139454 -3.58057e-05 0.190106)
(-0.00127881 -4.02177e-05 0.196329)
(2.53698e-06 -1.64251e-05 0.123818)
(2.32592e-05 -1.62074e-05 0.127923)
(-0.000116745 -1.52984e-05 0.128426)
(-0.000174026 -1.67821e-05 0.132309)
(-0.000281676 -1.65412e-05 0.133507)
(-0.000387762 -1.90334e-05 0.137555)
(-0.000471311 -1.93394e-05 0.139595)
(-0.000561557 -2.14725e-05 0.144073)
(-0.000668684 -2.21376e-05 0.147068)
(-0.000781146 -2.47031e-05 0.152032)
(-0.000935567 -2.67555e-05 0.155888)
(-0.00106597 -3.07044e-05 0.161163)
(-0.00122515 -3.31423e-05 0.165561)
(-0.00132461 -3.66738e-05 0.170751)
(-0.00144347 -3.86444e-05 0.175259)
(-0.00144127 -4.1917e-05 0.180036)
(-0.00142096 -4.45779e-05 0.184587)
(-0.00124947 -4.73642e-05 0.189255)
(-5.4319e-06 -1.75446e-05 0.125045)
(1.29537e-05 -1.7071e-05 0.129966)
(-0.00016847 -1.78205e-05 0.130607)
(-0.000200365 -2.00605e-05 0.135067)
(-0.000339212 -2.05932e-05 0.136425)
(-0.000399541 -2.33767e-05 0.140674)
(-0.000507533 -2.36443e-05 0.142606)
(-0.000599056 -2.5731e-05 0.146735)
(-0.000708572 -2.65779e-05 0.149156)
(-0.000792985 -2.9254e-05 0.15321)
(-0.000844095 -3.19576e-05 0.156098)
(-0.000822203 -3.60036e-05 0.160181)
(-0.000783249 -3.93318e-05 0.163575)
(-0.000686045 -4.27447e-05 0.167714)
(-0.000595926 -4.49834e-05 0.171537)
(-0.000430458 -4.71169e-05 0.175586)
(-0.00025641 -4.89195e-05 0.179691)
(-6.56084e-05 -5.1347e-05 0.183681)
(-0.000160771 -1.84371e-05 0.123446)
(-0.000154893 -1.7825e-05 0.128947)
(-0.000244853 -1.94438e-05 0.129711)
(-0.000224559 -2.15271e-05 0.134606)
(-0.000284335 -2.20266e-05 0.136154)
(-0.000269047 -2.40342e-05 0.140591)
(-0.000299446 -2.41787e-05 0.142606)
(-0.000325201 -2.61687e-05 0.146625)
(-0.000331111 -2.72079e-05 0.148937)
(-0.000344135 -2.97403e-05 0.152645)
(-0.000279072 -3.16086e-05 0.155319)
(-0.000207501 -3.41623e-05 0.159001)
(-8.87496e-05 -3.62905e-05 0.162313)
(1.25215e-05 -3.89767e-05 0.166296)
(0.000149924 -4.13738e-05 0.170484)
(0.000304662 -4.36887e-05 0.174896)
(0.000522368 -4.5506e-05 0.179901)
(0.000733827 -4.83347e-05 0.18465)
(-0.00033106 -1.89008e-05 0.118508)
(-0.000367628 -1.81945e-05 0.12398)
(-0.000357091 -1.96538e-05 0.124824)
(-0.000333106 -2.14791e-05 0.129765)
(-0.000315086 -2.20087e-05 0.131534)
(-0.000279647 -2.36642e-05 0.136087)
(-0.000241053 -2.3807e-05 0.138458)
(-0.000223515 -2.53925e-05 0.142672)
(-0.000135851 -2.58742e-05 0.145438)
(-9.39092e-05 -2.76576e-05 0.149399)
(4.63578e-05 -2.83972e-05 0.152569)
(0.000108512 -3.00635e-05 0.156503)
(0.000240221 -3.1245e-05 0.160321)
(0.000287972 -3.34994e-05 0.16459)
(0.00043175 -3.56907e-05 0.169383)
(0.000544288 -3.86033e-05 0.174287)
(0.000772339 -4.12526e-05 0.18017)
(0.000982524 -4.50734e-05 0.185748)
)
;
    }
    rightWall
    {
        type            calculated;
        value           nonuniform List<vector> 
216
(
(-0.000116575 9.79784e-07 0.348598)
(-0.000116659 -2.53684e-06 0.350373)
(-0.000180444 -1.03365e-06 0.351293)
(-0.000241541 -1.54067e-06 0.353219)
(-0.000333513 4.34583e-09 0.35503)
(-0.000387752 2.76413e-07 0.357024)
(-0.000450399 1.12138e-06 0.359353)
(-0.000471343 1.11228e-06 0.361233)
(-0.000410964 1.83857e-06 0.363695)
(-0.000373341 2.1925e-06 0.365304)
(-0.000203998 3.17164e-06 0.367705)
(-9.40731e-05 3.93283e-06 0.369064)
(0.000116194 4.80747e-06 0.371464)
(0.000274488 5.80704e-06 0.372815)
(0.000404876 6.44719e-06 0.375485)
(0.000504069 8.04036e-06 0.377264)
(0.000491684 9.593e-06 0.380564)
(0.000616523 1.38814e-05 0.383049)
(-0.000450897 2.02357e-06 0.349026)
(-0.000763024 -4.91732e-07 0.350635)
(-0.00082819 1.69324e-06 0.351363)
(-0.00102382 2.12819e-06 0.353002)
(-0.00104804 4.45605e-06 0.354443)
(-0.00111403 5.00364e-06 0.355978)
(-0.00110388 6.46299e-06 0.357805)
(-0.00109516 6.42543e-06 0.359115)
(-0.000988551 6.92653e-06 0.361069)
(-0.000896862 6.96499e-06 0.362208)
(-0.000705753 6.942e-06 0.364244)
(-0.000572204 6.67143e-06 0.365428)
(-0.000428499 5.67078e-06 0.36764)
(-0.000356772 4.43277e-06 0.369114)
(-0.000439919 3.22029e-06 0.371672)
(-0.000506617 3.40737e-06 0.37374)
(-0.000742121 4.98291e-06 0.377077)
(-0.000654519 8.8971e-06 0.380087)
(-0.000522484 5.16729e-06 0.348926)
(-0.000916903 4.56736e-06 0.350152)
(-0.000903354 6.48343e-06 0.350473)
(-0.00109566 7.19208e-06 0.351667)
(-0.00100457 8.78438e-06 0.35243)
(-0.00105547 8.67178e-06 0.353613)
(-0.00096135 1.00178e-05 0.354692)
(-0.000926317 1.02138e-05 0.35584)
(-0.000816608 1.11661e-05 0.357191)
(-0.000709363 1.20144e-05 0.358453)
(-0.000599849 1.22839e-05 0.360145)
(-0.000505223 1.30037e-05 0.361714)
(-0.0005206 1.22077e-05 0.363771)
(-0.00056424 1.19871e-05 0.365622)
(-0.000805252 1.1798e-05 0.367947)
(-0.000954956 1.32683e-05 0.369906)
(-0.00119603 1.61595e-05 0.372698)
(-0.00114891 1.89611e-05 0.374871)
(-0.000421421 8.72781e-06 0.347925)
(-0.000773553 7.93076e-06 0.349573)
(-0.000746746 7.65832e-06 0.349561)
(-0.000926757 8.25479e-06 0.350958)
(-0.000838054 8.24947e-06 0.351262)
(-0.000931282 8.9613e-06 0.352656)
(-0.000834306 1.03365e-05 0.353435)
(-0.000816547 1.16562e-05 0.354958)
(-0.000720916 1.35669e-05 0.356299)
(-0.000588351 1.51301e-05 0.357984)
(-0.000520322 1.62399e-05 0.359763)
(-0.000384725 1.73995e-05 0.361445)
(-0.000429947 1.75699e-05 0.363385)
(-0.000438249 1.85024e-05 0.364808)
(-0.000597307 1.97675e-05 0.366787)
(-0.000666184 2.19568e-05 0.367875)
(-0.000706279 2.44848e-05 0.370275)
(-0.000689736 2.55376e-05 0.37142)
(-0.000262846 1.187e-05 0.347784)
(-0.000546076 1.04346e-05 0.350486)
(-0.000558628 9.16251e-06 0.350336)
(-0.000717313 9.85779e-06 0.352284)
(-0.000666619 8.83419e-06 0.352302)
(-0.000762356 1.04916e-05 0.353748)
(-0.000624728 1.21433e-05 0.354142)
(-0.000589043 1.46061e-05 0.355409)
(-0.000392068 1.78449e-05 0.356398)
(-0.000209336 1.9557e-05 0.357661)
(-1.33664e-05 2.19539e-05 0.359191)
(0.000200456 2.26511e-05 0.360326)
(0.000286626 2.42022e-05 0.362219)
(0.00036297 2.55899e-05 0.363216)
(0.000362918 2.81487e-05 0.365582)
(0.000348052 3.00738e-05 0.366719)
(0.000353787 3.06286e-05 0.369863)
(0.000108012 2.88313e-05 0.3714)
(-0.000259994 1.05319e-05 0.349694)
(-0.000508832 9.38481e-06 0.352636)
(-0.000410507 8.78522e-06 0.352567)
(-0.000521503 9.00632e-06 0.354564)
(-0.000383321 7.51577e-06 0.354563)
(-0.000425403 7.40048e-06 0.355791)
(-0.000136037 7.45364e-06 0.355835)
(-4.47067e-05 7.42673e-06 0.356674)
(0.000353669 8.99474e-06 0.357049)
(0.00054786 9.06737e-06 0.357957)
(0.000896752 1.1004e-05 0.35908)
(0.00107887 1.23723e-05 0.360417)
(0.00124644 1.60215e-05 0.362737)
(0.0013028 1.99206e-05 0.364921)
(0.00134597 2.43466e-05 0.368759)
(0.00127154 2.6687e-05 0.371856)
(0.00113048 2.64552e-05 0.376634)
(0.000606074 2.48369e-05 0.379692)
(-0.000367415 7.28536e-06 0.351046)
(-0.000534733 8.31858e-06 0.352569)
(-0.00034414 6.82455e-06 0.3527)
(-0.00041963 7.11002e-06 0.353716)
(-0.000252178 5.18125e-06 0.354079)
(-0.00032142 3.62726e-06 0.354945)
(-6.62642e-05 1.49172e-06 0.355432)
(-0.000104031 -7.77862e-07 0.356521)
(0.000167947 -2.61723e-06 0.357363)
(0.000137128 -3.56526e-06 0.359097)
(0.000316142 -3.66432e-06 0.360885)
(0.00026431 -2.06472e-06 0.363606)
(0.000347795 9.80956e-07 0.36693)
(0.00030236 4.99233e-06 0.370769)
(0.000401293 9.14009e-06 0.375604)
(0.000406247 1.24443e-05 0.379959)
(0.000446981 1.49821e-05 0.385033)
(0.000309824 1.87333e-05 0.388386)
(-0.000145387 5.64146e-06 0.349668)
(-0.000157066 7.59004e-06 0.350091)
(-9.2547e-05 5.80844e-06 0.350489)
(-0.00017405 6.58045e-06 0.350831)
(-0.000204625 5.49415e-06 0.351748)
(-0.000379732 5.51273e-06 0.35246)
(-0.000409683 4.84075e-06 0.353777)
(-0.000615757 5.53946e-06 0.355112)
(-0.000682676 5.66694e-06 0.356833)
(-0.000915737 6.89075e-06 0.35889)
(-0.00102925 6.70797e-06 0.361162)
(-0.00127578 7.17233e-06 0.363775)
(-0.00131638 7.30949e-06 0.36666)
(-0.00139607 8.73051e-06 0.369574)
(-0.00118102 1.02187e-05 0.373031)
(-0.000941907 1.23131e-05 0.376059)
(-0.000513486 1.45401e-05 0.379791)
(-5.71908e-06 1.84692e-05 0.382692)
(5.12795e-05 4.8718e-06 0.348594)
(8.63154e-05 6.26343e-06 0.348941)
(3.98082e-05 6.0542e-06 0.349345)
(-5.23506e-05 7.84762e-06 0.34965)
(-0.000190918 9.08663e-06 0.35055)
(-0.000336446 1.13898e-05 0.351135)
(-0.000440295 1.29595e-05 0.352434)
(-0.000521306 1.54233e-05 0.353412)
(-0.000559176 1.72548e-05 0.354981)
(-0.000633254 1.83664e-05 0.356326)
(-0.000702835 1.8858e-05 0.358008)
(-0.000883971 1.83107e-05 0.359519)
(-0.000936389 1.7891e-05 0.361213)
(-0.00101747 1.78814e-05 0.362841)
(-0.000874666 1.794e-05 0.364833)
(-0.000730926 1.8985e-05 0.366945)
(-0.000490033 1.98879e-05 0.369781)
(-0.000128021 2.21744e-05 0.372901)
(0.000244748 5.15135e-06 0.349493)
(0.000361093 5.99803e-06 0.349878)
(0.000299131 6.24122e-06 0.349979)
(0.00030615 8.16446e-06 0.350256)
(0.000198099 1.013e-05 0.350612)
(0.000176351 1.24889e-05 0.351044)
(9.06578e-05 1.39504e-05 0.351735)
(9.4307e-05 1.49614e-05 0.352417)
(4.5925e-05 1.52813e-05 0.353437)
(-1.37073e-05 1.49598e-05 0.354446)
(-0.000128782 1.52834e-05 0.355756)
(-0.000319575 1.57535e-05 0.357209)
(-0.000442355 1.65394e-05 0.358933)
(-0.000548781 1.80022e-05 0.361073)
(-0.000510665 1.89115e-05 0.363536)
(-0.00040916 2.14748e-05 0.366512)
(-0.000262347 2.39096e-05 0.369899)
(2.65474e-05 2.74329e-05 0.37361)
(0.000433716 3.08295e-06 0.350085)
(0.000650014 2.48005e-06 0.350869)
(0.000548674 2.63357e-06 0.35102)
(0.000668243 3.4931e-06 0.351775)
(0.000601796 5.81066e-06 0.352197)
(0.00068995 7.88159e-06 0.353088)
(0.000626733 1.02246e-05 0.353859)
(0.000641331 1.16243e-05 0.354872)
(0.000513497 1.26468e-05 0.355935)
(0.000373201 1.32265e-05 0.357041)
(0.00012643 1.3826e-05 0.358327)
(-0.000136224 1.50605e-05 0.35965)
(-0.000412419 1.5439e-05 0.361339)
(-0.000605907 1.61386e-05 0.363211)
(-0.00071421 1.53261e-05 0.365682)
(-0.000642629 1.53867e-05 0.368325)
(-0.000448701 1.53769e-05 0.371847)
(-4.08718e-05 1.7286e-05 0.375276)
(0.000281224 8.72693e-07 0.349609)
(0.000420105 -8.03433e-07 0.350739)
(0.000260952 -1.82604e-07 0.35122)
(0.000357707 -5.06991e-07 0.352456)
(0.000335503 1.28439e-06 0.353474)
(0.000476732 1.97076e-06 0.354913)
(0.000525234 4.01679e-06 0.356368)
(0.000639882 5.11e-06 0.357897)
(0.000620048 6.5661e-06 0.35956)
(0.000604009 8.13948e-06 0.360981)
(0.000441769 9.48557e-06 0.362652)
(0.000283525 1.18803e-05 0.363879)
(-6.50215e-06 1.31407e-05 0.365607)
(-0.000268761 1.45464e-05 0.366772)
(-0.000583007 1.40482e-05 0.368803)
(-0.0008074 1.31569e-05 0.370145)
(-0.000944376 1.12879e-05 0.372897)
(-0.000961345 9.7888e-06 0.374909)
)
;
    }
    leftSides_periodic0
    {
        type            cyclic;
    }
    leftSides_periodic1
    {
        type            cyclic;
    }
    rightSides_periodic0
    {
        type            cyclic;
    }
    rightSides_periodic1
    {
        type            cyclic;
    }
    leftInOut_periodic0
    {
        type            calculated;
        value           uniform (0 0 0);
    }
    leftInOut_periodic1
    {
        type            calculated;
        value           nonuniform 0();
    }
    rightInOut_periodic0
    {
        type            calculated;
        value           uniform (0 0 0);
    }
    rightInOut_periodic1
    {
        type            calculated;
        value           nonuniform 0();
    }
    procBoundary2to0throughleftSides_periodic0
    {
        type            processorCyclic;
        value           uniform (0 0 0);
    }
    procBoundary2to0throughrightSides_periodic0
    {
        type            processorCyclic;
        value           uniform (0 0 0);
    }
    procBoundary2to1
    {
        type            processor;
        value           uniform (0 0 0);
    }
    procBoundary2to5
    {
        type            processor;
        value           uniform (0 0 0);
    }
}


// ************************************************************************* //
