-0.0075 	0 	0 	0
-0.0075 	1.65022e-34 	-3.87795e-36 	-8.47511e-33
-0.00745622 	0.000216888 	-5.09678e-06 	-0.0111388
-0.00745622 	0.000216888 	-5.09678e-06 	-0.0111388
-0.00741165 	0.000286189 	-9.16117e-06 	-0.022894
-0.00741165 	0.000286189 	-9.16117e-06 	-0.022894
-0.00736628 	0.000301128 	-1.27218e-05 	-0.0348002
-0.00736628 	0.000301128 	-1.27218e-05 	-0.0348002
-0.0073201 	0.000330469 	-1.40489e-05 	-0.0464234
-0.0073201 	0.000330469 	-1.40489e-05 	-0.0464234
-0.00727309 	0.000376967 	-1.52199e-05 	-0.0577979
-0.00727309 	0.000376967 	-1.52199e-05 	-0.0577979
-0.00722524 	0.000429258 	-1.5852e-05 	-0.0689458
-0.00722524 	0.000429258 	-1.5852e-05 	-0.0689458
-0.00717653 	0.000484201 	-1.62152e-05 	-0.0797942
-0.00717653 	0.000484201 	-1.62152e-05 	-0.0797942
-0.00712695 	0.000540992 	-1.63269e-05 	-0.090267
-0.00712695 	0.000540992 	-1.63269e-05 	-0.090267
-0.00707647 	0.000599485 	-1.61041e-05 	-0.100297
-0.00707647 	0.000599485 	-1.61041e-05 	-0.100297
-0.0070251 	0.000659798 	-1.55511e-05 	-0.109835
-0.0070251 	0.000659798 	-1.55511e-05 	-0.109835
-0.0069728 	0.000722177 	-1.45437e-05 	-0.118856
-0.0069728 	0.000722177 	-1.45437e-05 	-0.118856
-0.00691956 	0.000786785 	-1.31815e-05 	-0.127365
-0.00691956 	0.000786785 	-1.31815e-05 	-0.127365
-0.00686537 	0.000853316 	-1.15838e-05 	-0.135398
-0.00686537 	0.000853316 	-1.15838e-05 	-0.135398
-0.00681021 	0.000920768 	-9.7086e-06 	-0.142999
-0.00681021 	0.000920768 	-9.7086e-06 	-0.142999
-0.00675406 	0.000987705 	-7.60795e-06 	-0.150197
-0.00675406 	0.000987705 	-7.60795e-06 	-0.150197
-0.0066969 	0.00105292 	-5.28248e-06 	-0.157016
-0.0066969 	0.00105292 	-5.28248e-06 	-0.157016
-0.00663871 	0.00111581 	-2.71053e-06 	-0.163479
-0.00663871 	0.00111581 	-2.71053e-06 	-0.163479
-0.00657949 	0.00117616 	2.01698e-07 	-0.169609
-0.00657949 	0.00117616 	2.01698e-07 	-0.169609
-0.0065192 	0.00123432 	3.79016e-06 	-0.175432
-0.0065192 	0.00123432 	3.79016e-06 	-0.175432
-0.00645783 	0.00129131 	7.84683e-06 	-0.180978
-0.00645783 	0.00129131 	7.84683e-06 	-0.180978
-0.00639535 	0.00134765 	1.1448e-05 	-0.186263
-0.00639535 	0.00134765 	1.1448e-05 	-0.186263
-0.00633176 	0.00140151 	1.35995e-05 	-0.191277
-0.00633176 	0.00140151 	1.35995e-05 	-0.191277
-0.00626703 	0.00144872 	1.44618e-05 	-0.195997
-0.00626703 	0.00144872 	1.44618e-05 	-0.195997
-0.00620114 	0.00148576 	1.70649e-05 	-0.200428
-0.00620114 	0.00148576 	1.70649e-05 	-0.200428
-0.00613406 	0.00151534 	2.50343e-05 	-0.204632
-0.00613406 	0.00151534 	2.50343e-05 	-0.204632
-0.00606579 	0.00154845 	3.53374e-05 	-0.20871
-0.00606579 	0.00154845 	3.53374e-05 	-0.20871
-0.00599629 	0.00159451 	3.99725e-05 	-0.212701
-0.00599629 	0.00159451 	3.99725e-05 	-0.212701
-0.00592554 	0.00164839 	3.80531e-05 	-0.216491
-0.00592554 	0.00164839 	3.80531e-05 	-0.216491
-0.00585352 	0.0016961 	3.38715e-05 	-0.219987
-0.00585352 	0.0016961 	3.38715e-05 	-0.219987
-0.00578022 	0.00172899 	3.26385e-05 	-0.22329
-0.00578022 	0.00172899 	3.26385e-05 	-0.22329
-0.00570559 	0.00174911 	3.70404e-05 	-0.22654
-0.00570559 	0.00174911 	3.70404e-05 	-0.22654
-0.00562963 	0.00176378 	4.1939e-05 	-0.229696
-0.00562963 	0.00176378 	4.1939e-05 	-0.229696
-0.00555231 	0.00177747 	4.2599e-05 	-0.232632
-0.00555231 	0.00177747 	4.2599e-05 	-0.232632
-0.0054736 	0.00179255 	3.82712e-05 	-0.235325
-0.0054736 	0.00179255 	3.82712e-05 	-0.235325
-0.00539348 	0.00181023 	3.25785e-05 	-0.237837
-0.00539348 	0.00181023 	3.25785e-05 	-0.237837
-0.00531193 	0.00183165 	3.04047e-05 	-0.240234
-0.00531193 	0.00183165 	3.04047e-05 	-0.240234
-0.00522891 	0.00186004 	2.42301e-05 	-0.242564
-0.00522891 	0.00186004 	2.42301e-05 	-0.242564
-0.0051444 	0.00189342 	7.87748e-06 	-0.244823
-0.0051444 	0.00189342 	7.87748e-06 	-0.244823
-0.00505838 	0.00192158 	-4.35657e-06 	-0.246933
-0.00505838 	0.00192158 	-4.35657e-06 	-0.246933
-0.00497081 	0.00194699 	2.96616e-06 	-0.248912
-0.00497081 	0.00194699 	2.96616e-06 	-0.248912
-0.00488168 	0.00201281 	2.23213e-05 	-0.251188
-0.00488168 	0.00201281 	2.23213e-05 	-0.251188
-0.00479094 	0.00216553 	7.61448e-06 	-0.254242
-0.00479094 	0.00216553 	7.61448e-06 	-0.254242
-0.00469858 	0.00233954 	-3.34214e-05 	-0.257391
-0.00469858 	0.00233954 	-3.34214e-05 	-0.257391
-0.00460456 	0.00245178 	-5.09771e-05 	-0.259807
-0.00460456 	0.00245178 	-5.09771e-05 	-0.259807
-0.00450886 	0.00250967 	-4.49414e-05 	-0.261642
-0.00450886 	0.00250967 	-4.49414e-05 	-0.261642
-0.00441144 	0.00254825 	-3.67402e-05 	-0.263252
-0.00441144 	0.00254825 	-3.67402e-05 	-0.263252
-0.00431227 	0.00260301 	-4.29128e-05 	-0.264932
-0.00431227 	0.00260301 	-4.29128e-05 	-0.264932
-0.00421133 	0.0026859 	-6.1606e-05 	-0.266802
-0.00421133 	0.0026859 	-6.1606e-05 	-0.266802
-0.00410857 	0.0027809 	-8.29463e-05 	-0.268776
-0.00410857 	0.0027809 	-8.29463e-05 	-0.268776
-0.00400397 	0.00285332 	-9.21147e-05 	-0.27058
-0.00400397 	0.00285332 	-9.21147e-05 	-0.27058
-0.0038975 	0.00288813 	-8.90606e-05 	-0.272066
-0.0038975 	0.00288813 	-8.90606e-05 	-0.272066
-0.00378912 	0.00290494 	-9.03097e-05 	-0.273361
-0.00378912 	0.00290494 	-9.03097e-05 	-0.273361
-0.00367879 	0.00292645 	-0.000102086 	-0.274622
-0.00367879 	0.00292645 	-0.000102086 	-0.274622
-0.00356649 	0.00296124 	-0.000118252 	-0.275892
-0.00356649 	0.00296124 	-0.000118252 	-0.275892
-0.00345217 	0.00300768 	-0.000131504 	-0.277159
-0.00345217 	0.00300768 	-0.000131504 	-0.277159
-0.0033358 	0.00306386 	-0.000137699 	-0.278372
-0.0033358 	0.00306386 	-0.000137699 	-0.278372
-0.00321735 	0.00312949 	-0.00014397 	-0.279428
-0.00321735 	0.00312949 	-0.00014397 	-0.279428
-0.00309677 	0.00319732 	-0.000170244 	-0.280332
-0.00309677 	0.00319732 	-0.000170244 	-0.280332
-0.00297403 	0.00325351 	-0.000208349 	-0.281388
-0.00297403 	0.00325351 	-0.000208349 	-0.281388
-0.00284909 	0.00329091 	-0.000214806 	-0.282919
-0.00284909 	0.00329091 	-0.000214806 	-0.282919
-0.0027219 	0.00331764 	-0.00019751 	-0.284637
-0.0027219 	0.00331764 	-0.00019751 	-0.284637
-0.00259244 	0.0033445 	-0.000202227 	-0.286036
-0.00259244 	0.0033445 	-0.000202227 	-0.286036
-0.00246065 	0.00337653 	-0.00022461 	-0.287044
-0.00246065 	0.00337653 	-0.00022461 	-0.287044
-0.00232651 	0.0034143 	-0.000239438 	-0.287819
-0.00232651 	0.0034143 	-0.000239438 	-0.287819
-0.00218995 	0.0034531 	-0.000247748 	-0.288492
-0.00218995 	0.0034531 	-0.000247748 	-0.288492
-0.00205095 	0.00349027 	-0.000257343 	-0.28907
-0.00205095 	0.00349027 	-0.000257343 	-0.28907
-0.00190946 	0.00352631 	-0.000267534 	-0.28953
-0.00190946 	0.00352631 	-0.000267534 	-0.28953
-0.00176543 	0.00356212 	-0.000277669 	-0.289864
-0.00176543 	0.00356212 	-0.000277669 	-0.289864
-0.00161881 	0.00359883 	-0.000287433 	-0.290073
-0.00161881 	0.00359883 	-0.000287433 	-0.290073
-0.00146957 	0.00363713 	-0.00029693 	-0.290156
-0.00146957 	0.00363713 	-0.00029693 	-0.290156
-0.00131765 	0.00367693 	-0.000306418 	-0.290116
-0.00131765 	0.00367693 	-0.000306418 	-0.290116
-0.001163 	0.00371785 	-0.000316062 	-0.289953
-0.001163 	0.00371785 	-0.000316062 	-0.289953
-0.00100559 	0.00375951 	-0.000325622 	-0.28967
-0.00100559 	0.00375951 	-0.000325622 	-0.28967
-0.000845345 	0.00380123 	-0.000330067 	-0.289268
-0.000845345 	0.00380123 	-0.000330067 	-0.289268
-0.000682232 	0.0038422 	-0.000332925 	-0.288749
-0.000682232 	0.0038422 	-0.000332925 	-0.288749
-0.000516194 	0.00388163 	-0.000340266 	-0.288112
-0.000516194 	0.00388163 	-0.000340266 	-0.288112
-0.000347178 	0.00391809 	-0.000345066 	-0.287355
-0.000347178 	0.00391809 	-0.000345066 	-0.287355
-0.000175132 	0.00394645 	-0.000359696 	-0.286488
-0.000175132 	0.00394645 	-0.000359696 	-0.286488
0 	0.00395899 	-0.000377472 	-0.285536
0 	0.00395899 	-0.000377472 	-0.285536
0 	0.00395899 	-0.000377472 	-0.285536
0 	0.00395899 	-0.000377472 	-0.285536
0.000175132 	0.00394979 	-0.000385525 	-0.284516
0.000175132 	0.0085325 	-0.00725134 	-0.277963
0.000347178 	0.00391807 	-0.000397451 	-0.283432
0.000347178 	0.00848554 	-0.00733787 	-0.2771
0.000516194 	0.00387087 	-0.000400368 	-0.282285
0.000516194 	0.00842232 	-0.00746123 	-0.275992
0.000682232 	0.00381733 	-0.000389406 	-0.281101
0.000682232 	0.00834982 	-0.00752234 	-0.27483
0.000845345 	0.00376266 	-0.00037707 	-0.279932
0.000845345 	0.00827769 	-0.00753285 	-0.274093
0.00100559 	0.00370672 	-0.000388905 	-0.278725
0.00100559 	0.00820211 	-0.00773356 	-0.273405
0.001163 	0.00365135 	-0.00041096 	-0.27716
0.001163 	0.00811972 	-0.00798796 	-0.270459
0.00131765 	0.00361211 	-0.00035645 	-0.274822
0.00131765 	0.00808602 	-0.00766595 	-0.262272
0.00146957 	0.00359243 	-0.000225905 	-0.271541
0.00146957 	0.00807594 	-0.00682178 	-0.24749
0.00161881 	0.00355206 	-0.000226486 	-0.268841
0.00161881 	0.00781974 	-0.00692541 	-0.23675
0.00176543 	0.00347834 	-0.000331314 	-0.267627
0.00176543 	0.00729916 	-0.0077371 	-0.236242
0.00190946 	0.00338981 	-0.000354015 	-0.266778
0.00190946 	0.00671048 	-0.00796581 	-0.238206
0.00205095 	0.00328045 	-0.000314804 	-0.265724
0.00205095 	0.00605835 	-0.00775721 	-0.238709
0.00218995 	0.00314373 	-0.000268376 	-0.264505
0.00218995 	0.00533942 	-0.00751004 	-0.238036
0.00232651 	0.00297603 	-0.000248745 	-0.263266
0.00232651 	0.00456592 	-0.00749863 	-0.237257
0.00246065 	0.00277355 	-0.000227372 	-0.262041
0.00246065 	0.00372319 	-0.00747524 	-0.236898
0.00259244 	0.00253549 	-0.000205424 	-0.260835
0.00259244 	0.00278232 	-0.00736903 	-0.23742
0.0027219 	0.00226893 	-0.00021906 	-0.259623
0.0027219 	0.00174924 	-0.00744328 	-0.23882
0.00284909 	0.0019965 	-0.000220231 	-0.258245
0.00284909 	0.000830559 	-0.00755984 	-0.238533
0.00297403 	0.00173411 	-0.000138466 	-0.256469
0.00297403 	0.000153512 	-0.00721694 	-0.233967
0.00309677 	0.00146251 	5.60583e-06 	-0.254225
0.00309677 	-0.000538835 	-0.00635238 	-0.225399
0.00321735 	0.00113288 	5.2982e-05 	-0.252186
0.00321735 	-0.0016011 	-0.00614236 	-0.218322
0.0033358 	0.000729519 	-1.29991e-05 	-0.250711
0.0033358 	-0.00296573 	-0.00673538 	-0.216859
0.00345217 	0.00026301 	-7.51358e-05 	-0.249029
0.00345217 	-0.00435531 	-0.00708967 	-0.217752
0.00356649 	-0.000282206 	-9.78426e-05 	-0.24659
0.00356649 	-0.00570536 	-0.00687604 	-0.217795
0.00367879 	-0.000846874 	-2.7425e-05 	-0.24426
0.00367879 	-0.00703693 	-0.00640938 	-0.216873
0.00378912 	-0.0084325 	-0.00621599 	-0.215961
0.00378912 	-0.00134709 	6.6949e-05 	-0.242835
0.0038975 	-0.00179283 	8.3474e-05 	-0.241761
0.0038975 	-0.00991332 	-0.0062386 	-0.215484
0.00400397 	-0.00222012 	8.06741e-05 	-0.240439
0.00400397 	-0.0113685 	-0.00604949 	-0.214976
0.00410857 	-0.00265054 	0.000124431 	-0.238738
0.00410857 	-0.0127424 	-0.00563913 	-0.212926
0.00421133 	-0.00310309 	0.000196108 	-0.236807
0.00421133 	-0.0141922 	-0.00523102 	-0.20892
0.00431227 	-0.00358881 	0.000227506 	-0.234929
0.00431227 	-0.0158795 	-0.00507664 	-0.205227
0.00441144 	-0.00409384 	0.00020297 	-0.23325
0.00441144 	-0.0177324 	-0.00521061 	-0.203372
0.00450886 	-0.00459816 	0.00018523 	-0.231628
0.00450886 	-0.0196048 	-0.00525845 	-0.202378
0.00460456 	-0.00509312 	0.000209573 	-0.229909
0.00460456 	-0.0214299 	-0.00504384 	-0.201065
0.00469858 	-0.00557674 	0.000251134 	-0.228078
0.00469858 	-0.023204 	-0.00471892 	-0.199258
0.00479094 	-0.00605549 	0.00027638 	-0.226161
0.00479094 	-0.0249873 	-0.00448894 	-0.197141
0.00488168 	-0.00653673 	0.000292297 	-0.224175
0.00488168 	-0.0268382 	-0.00431231 	-0.194839
0.00497081 	-0.00702093 	0.000306215 	-0.222141
0.00497081 	-0.0287621 	-0.00413854 	-0.192532
0.00505838 	-0.00750583 	0.000311954 	-0.220069
0.00505838 	-0.0307436 	-0.00400997 	-0.190331
0.0051444 	-0.00798801 	0.00031713 	-0.217949
0.0051444 	-0.0327584 	-0.00387281 	-0.188186
0.00522891 	-0.00846416 	0.00032488 	-0.215767
0.00522891 	-0.0347842 	-0.00370583 	-0.186028
0.00531193 	-0.0368121 	-0.00353802 	-0.183833
0.00531193 	-0.0089327 	0.000330859 	-0.213517
0.00539348 	-0.00939255 	0.000333559 	-0.211197
0.00539348 	-0.0388365 	-0.0033786 	-0.181595
0.0054736 	-0.00984229 	0.000333487 	-0.208803
0.0054736 	-0.0408492 	-0.00322524 	-0.179304
0.00555231 	-0.0102801 	0.000331202 	-0.206328
0.00555231 	-0.0428399 	-0.00307597 	-0.176953
0.00562963 	-0.0107036 	0.000326874 	-0.203763
0.00562963 	-0.0447961 	-0.00293156 	-0.174535
0.00570559 	-0.0111105 	0.000321698 	-0.201094
0.00570559 	-0.0467032 	-0.00279078 	-0.172041
0.00578022 	-0.0114986 	0.00031665 	-0.198305
0.00578022 	-0.048548 	-0.00265286 	-0.169459
0.00585352 	-0.0118662 	0.000311123 	-0.195381
0.00585352 	-0.0503194 	-0.00251731 	-0.166776
0.00592554 	-0.0122111 	0.000303657 	-0.192309
0.00592554 	-0.0520055 	-0.00238523 	-0.163988
0.00599629 	-0.0125302 	0.000293036 	-0.18907
0.00599629 	-0.0535923 	-0.00225873 	-0.161087
0.00606579 	-0.0550622 	-0.00213634 	-0.158057
0.00606579 	-0.0128197 	0.000280181 	-0.185646
0.00613406 	-0.0130749 	0.00026669 	-0.18201
0.00613406 	-0.0563938 	-0.00201679 	-0.154876
0.00620114 	-0.0132909 	0.000252954 	-0.178134
0.00620114 	-0.057563 	-0.00190039 	-0.151517
0.00626703 	-0.0134625 	0.000238972 	-0.173985
0.00626703 	-0.0585423 	-0.00178701 	-0.147952
0.00633176 	-0.0135838 	0.000224225 	-0.169521
0.00633176 	-0.0593015 	-0.00167664 	-0.144146
0.00639535 	-0.0136487 	0.000208374 	-0.164699
0.00639535 	-0.0598076 	-0.00156913 	-0.140064
0.00645783 	-0.0136506 	0.00019155 	-0.159473
0.00645783 	-0.0600267 	-0.00146404 	-0.13567
0.0065192 	-0.0135829 	0.000174251 	-0.153813
0.0065192 	-0.0599257 	-0.00136086 	-0.130933
0.00657949 	-0.0134394 	0.000157463 	-0.147708
0.00657949 	-0.0594737 	-0.00125966 	-0.125831
0.00663871 	-0.0132144 	0.000141358 	-0.141154
0.00663871 	-0.0586407 	-0.00116054 	-0.120353
0.0066969 	-0.0129024 	0.000125456 	-0.13414
0.0066969 	-0.0573962 	-0.00106352 	-0.114496
0.00675406 	-0.012498 	0.000109765 	-0.126655
0.00675406 	-0.0557119 	-0.000968706 	-0.10828
0.00681021 	-0.0119967 	9.45515e-05 	-0.118691
0.00681021 	-0.0535685 	-0.000876213 	-0.101752
0.00686537 	-0.0113976 	7.98632e-05 	-0.11026
0.00686537 	-0.0509644 	-0.000786556 	-0.094982
0.00691956 	-0.0107037 	6.57952e-05 	-0.101409
0.00691956 	-0.0479215 	-0.000700272 	-0.0880497
0.0069728 	-0.00992317 	5.27677e-05 	-0.0922227
0.0069728 	-0.044487 	-0.000617606 	-0.0810391
0.0070251 	-0.0090697 	4.10974e-05 	-0.0828308
0.0070251 	-0.0407309 	-0.000538867 	-0.0740232
0.00707647 	-0.00816099 	3.08903e-05 	-0.0733871
0.00707647 	-0.0367369 	-0.000464245 	-0.0670503
0.00712695 	-0.00721657 	2.22671e-05 	-0.0640506
0.00712695 	-0.0325893 	-0.000393764 	-0.0601388
0.00717653 	-0.00625531 	1.53523e-05 	-0.054959
0.00717653 	-0.0283614 	-0.000327585 	-0.0532781
0.00722524 	-0.00529292 	1.01977e-05 	-0.0462036
0.00722524 	-0.0241046 	-0.000264206 	-0.0464301
0.00727309 	-0.00433967 	6.58648e-06 	-0.0378186
0.00727309 	-0.019838 	-0.000205552 	-0.0395194
0.0073201 	-0.0033979 	4.19495e-06 	-0.0297824
0.0073201 	-0.0155293 	-0.000159047 	-0.0324057
0.00736628 	-0.00245845 	3.29076e-06 	-0.0219801
0.00736628 	-0.0110612 	-8.62221e-05 	-0.0247867
0.00741165 	-0.00153781 	2.15064e-06 	-0.0143203
0.00741165 	-0.00658244 	-5.86496e-05 	-0.0164468
0.00745622 	-0.000705901 	1.06731e-06 	-0.00695658
0.00745622 	-0.00276415 	-2.7953e-05 	-0.00788829
0.0075 	0 	0 	0
0.0075 	0 	0 	0
