/*--------------------------------*- C++ -*----------------------------------*\
| =========                 |                                                 |
| \\      /  F ield         | OpenFOAM: The Open Source CFD Toolbox           |
|  \\    /   O peration     | Version:  v1912                                 |
|   \\  /    A nd           | Website:  www.openfoam.com                      |
|    \\/     M anipulation  |                                                 |
\*---------------------------------------------------------------------------*/
FoamFile
{
    version     2.0;
    format      ascii;
    class       volScalarField;
    location    "7.6";
    object      T;
}
// * * * * * * * * * * * * * * * * * * * * * * * * * * * * * * * * * * * * * //

dimensions      [0 0 0 1 0 0 0];


internalField   nonuniform List<scalar> 
34128
(
372.135
372.139
372.143
372.138
372.137
372.138
372.137
372.138
372.143
372.142
372.125
372.119
370.395
370.407
370.416
370.404
370.399
370.404
370.4
370.404
370.42
370.416
370.366
370.348
368.628
368.646
368.661
368.641
368.632
368.642
368.636
368.642
368.67
368.663
368.58
368.552
366.836
366.855
366.876
366.846
366.835
366.85
366.844
366.853
366.892
366.884
366.769
366.734
365.019
365.037
365.062
365.023
365.008
365.031
365.024
365.038
365.089
365.08
364.937
364.897
363.185
363.197
363.224
363.177
363.159
363.189
363.184
363.201
363.265
363.257
363.09
363.05
361.348
361.349
361.377
361.323
361.301
361.339
361.335
361.355
361.433
361.43
361.244
361.208
359.531
359.515
359.542
359.485
359.46
359.503
359.5
359.523
359.616
359.622
359.423
359.393
357.763
357.727
357.751
357.695
357.668
357.713
357.71
357.733
357.844
357.863
357.657
357.635
356.074
356.017
356.035
355.985
355.957
356.002
355.997
356.018
356.149
356.186
355.979
355.964
354.491
354.411
354.422
354.382
354.354
354.397
354.389
354.405
354.558
354.615
354.411
354.401
353.027
352.928
352.93
352.901
352.877
352.916
352.903
352.914
353.087
353.165
352.966
352.961
351.684
351.569
351.562
351.545
351.525
351.559
351.54
351.545
351.736
351.835
351.644
351.644
350.449
350.326
350.309
350.304
350.288
350.315
350.292
350.291
350.495
350.61
350.431
350.439
349.318
349.192
349.165
349.171
349.16
349.181
349.153
349.147
349.359
349.484
349.318
349.335
348.29
348.17
348.135
348.148
348.141
348.157
348.126
348.117
348.33
348.457
348.306
348.334
347.369
347.259
347.218
347.236
347.233
347.243
347.211
347.201
347.407
347.531
347.396
347.435
346.553
346.459
346.414
346.433
346.433
346.439
346.407
346.398
346.59
346.704
346.586
346.637
345.842
345.765
345.719
345.738
345.739
345.741
345.711
345.705
345.878
345.977
345.876
345.938
345.232
345.173
345.128
345.145
345.147
345.145
345.119
345.116
345.267
345.348
345.263
345.334
344.72
344.677
344.636
344.65
344.651
344.646
344.623
344.624
344.751
344.813
344.745
344.822
344.298
344.269
344.232
344.244
344.244
344.236
344.217
344.223
344.325
344.369
344.316
344.396
343.958
343.941
343.91
343.919
343.917
343.907
343.891
343.901
343.981
344.008
343.969
344.048
343.691
343.682
343.657
343.664
343.661
343.649
343.637
343.649
343.709
343.723
343.696
343.771
343.487
343.483
343.464
343.47
343.466
343.453
343.443
343.456
343.5
343.505
343.487
343.554
343.335
343.335
343.32
343.326
343.321
343.308
343.3
343.313
343.344
343.343
343.332
343.39
343.225
343.226
343.217
343.221
343.216
343.204
343.198
343.21
343.231
343.227
343.221
343.269
343.148
343.15
343.144
343.147
343.143
343.132
343.128
343.138
343.152
343.146
343.144
343.182
343.096
343.097
343.094
343.097
343.093
343.084
343.08
343.089
343.098
343.092
343.092
343.121
343.061
343.062
343.06
343.063
343.06
343.052
343.05
343.057
343.062
343.057
343.058
343.079
343.038
343.039
343.039
343.041
343.038
343.032
343.031
343.036
343.039
343.035
343.036
343.051
343.024
343.025
343.025
343.027
343.025
343.02
343.019
343.023
343.025
343.021
343.023
343.033
343.015
343.016
343.017
343.018
343.017
343.013
343.012
343.015
343.016
343.013
343.015
343.021
343.01
343.01
343.011
343.013
343.012
343.009
343.008
343.01
343.01
343.008
343.009
343.014
343.007
343.007
343.008
343.009
343.008
343.006
343.005
343.007
343.007
343.005
343.006
343.009
343.005
343.005
343.006
343.007
343.006
343.004
343.004
343.005
343.005
343.003
343.004
343.006
343.003
343.003
343.004
343.005
343.005
343.003
343.003
343.004
343.003
343.002
343.003
343.004
343.002
343.002
343.003
343.004
343.004
343.003
343.002
343.003
343.002
343.001
343.002
343.002
343.001
343.002
343.002
343.003
343.003
343.002
343.001
343.002
343.001
343.001
343.001
343.001
343.001
343.001
343.002
343.002
343.002
343.001
343.001
343.001
343.001
343
343
343.001
343
343.001
343.001
343.001
343.001
343.001
343
343.001
343
343
343
343
343
343
343.001
343.001
343.001
343
343
343
343
343
343
343
343
343
343
343
343
343
343
343
343
343
343
343
343
343
343
343
343
343
343
343
343
343
343
343
343
343
343
343
343
343
343
343
343
343
343
343
343
343
343
343
343
343
343
343
343
343
343
343
343
343
343
343
343
343
343
343
343
343
343
343
343
343
343
343
343
343
343
343
343
343
343
343
343
343
343
343
343
343
343
343
343
343
343
343
343
343
343
343
343
343
343
343
343
343
343
343
343
343
343
343
343
343
343
343
343
343
343
343
343
343
343
343
343
343
343
343
343
343
343
343
343
343
343
343
343
343
343
343
343
343
343
343
343
343
343
343
343
343
343
343
343
343
343
343
343
343
343
343
343
343
343
343
343
343
343
343
343
343
343
343
343
343
343
343
343
343
343
343
343
343
343
343
343
343
343
343
343
343
343
343
343
343
343
343
343
343
343
343
343
343
343
343
343
343
343
343
343
343
343
343
343
343
343
343
343
343
343
343
343
343
343
343
343
343
343
343
343
343
343
343
343
343
343
343.001
343.001
343
343
343
343
343.001
343.001
343
343
343
343.001
343.001
343.001
343.001
343.001
343.001
343.001
343.001
343.001
343
343
343
343.001
343.001
343.001
343.001
343.001
343.001
343.001
343.001
343.001
343.001
343.001
343.001
343.001
343.001
343.001
343.001
343.001
343.001
343.001
343.001
343.001
343.001
343.001
343.001
343.001
343.001
343.001
343.001
343.001
343.001
343.001
343.001
343.001
343.001
343.001
343.001
343.001
343.001
343.001
343.001
343.001
343.001
343.001
343.001
343.001
343.001
343.001
343.001
343.001
343.001
343.001
343.001
343.001
343.001
343.001
343.001
343.001
343.001
343.001
343.001
343.001
343.001
343.001
343.001
343.001
343.001
343.001
343.001
343.001
343.001
343.001
343.001
343.001
343.001
343.001
343.001
343.001
343.001
343.001
343.001
343.001
343.001
343.001
343.001
343.001
343.001
343.001
343.001
343.001
343.001
343.001
343.001
343.001
343.001
343.001
343.001
343.001
343.001
343.001
343.001
343.001
343.001
343.001
343.001
343.001
343.001
343.001
343.001
343.001
343.001
343.001
343.001
343.001
343.001
343.001
343.001
343.001
343.001
343.001
343.001
343.001
343.001
343.001
343.001
343.001
343.001
343.001
343.001
343.001
343.001
343.001
343.001
343.001
343.001
343.001
343.001
343.001
343.001
343.001
343.001
343.001
343.001
343.001
343.001
343.001
343.001
343.001
343.001
343.001
343.001
343.001
343.001
343.001
343.001
343.001
343.001
343.001
343.001
343.001
343.001
343.001
343.001
343.001
343.001
343.001
343.001
343.001
343.001
343.001
343.001
343.001
343.001
343.001
343.001
343.001
343.001
343.001
343.001
343.001
343.001
343.001
343.001
343.001
343.001
343.001
343.001
343.001
343.001
343.001
343.001
343.001
343.001
343.001
343.001
343.001
343.001
343.001
343.001
372.125
372.127
372.13
372.125
372.123
372.127
372.126
372.128
372.133
372.132
372.115
372.11
370.364
370.37
370.379
370.364
370.359
370.369
370.369
370.373
370.389
370.385
370.335
370.32
368.576
368.584
368.599
368.574
368.566
368.583
368.583
368.591
368.617
368.612
368.529
368.507
366.763
366.77
366.79
366.756
366.743
366.768
366.768
366.78
366.819
366.813
366.7
366.674
364.927
364.929
364.953
364.911
364.894
364.926
364.927
364.943
364.995
364.99
364.851
364.824
363.076
363.068
363.094
363.047
363.026
363.063
363.064
363.084
363.151
363.151
362.991
362.968
361.222
361.199
361.226
361.177
361.152
361.192
361.191
361.215
361.3
361.308
361.133
361.118
359.388
359.346
359.371
359.325
359.297
359.335
359.332
359.358
359.464
359.485
359.301
359.296
357.6
357.536
357.558
357.519
357.49
357.524
357.516
357.541
357.671
357.709
357.522
357.528
355.888
355.802
355.817
355.79
355.76
355.789
355.775
355.797
355.952
356.01
355.825
355.84
354.277
354.171
354.177
354.163
354.136
354.157
354.137
354.154
354.333
354.413
354.232
354.256
352.781
352.661
352.656
352.656
352.633
352.648
352.622
352.631
352.832
352.932
352.757
352.788
351.405
351.277
351.26
351.273
351.255
351.263
351.231
351.235
351.451
351.567
351.4
351.442
350.139
350.013
349.985
350.009
349.995
349.996
349.96
349.959
350.184
350.308
350.152
350.207
348.984
348.866
348.829
348.86
348.851
348.846
348.806
348.804
349.029
349.153
349.01
349.08
347.943
347.84
347.796
347.83
347.824
347.814
347.774
347.772
347.988
348.104
347.975
348.061
347.017
346.933
346.886
346.92
346.916
346.901
346.862
346.863
347.063
347.164
347.051
347.153
346.208
346.145
346.096
346.128
346.125
346.106
346.07
346.075
346.253
346.334
346.239
346.354
345.514
345.471
345.423
345.452
345.449
345.425
345.393
345.405
345.556
345.614
345.537
345.663
344.93
344.904
344.861
344.886
344.881
344.853
344.825
344.844
344.967
345.002
344.943
345.076
344.45
344.437
344.4
344.422
344.415
344.384
344.359
344.384
344.48
344.495
344.452
344.586
344.064
344.06
344.03
344.049
344.04
344.007
343.986
344.015
344.087
344.085
344.057
344.187
343.761
343.763
343.74
343.757
343.747
343.713
343.696
343.726
343.777
343.764
343.748
343.868
343.531
343.535
343.519
343.535
343.523
343.49
343.476
343.506
343.54
343.521
343.514
343.621
343.36
343.365
343.355
343.369
343.358
343.327
343.315
343.343
343.364
343.343
343.343
343.434
343.237
343.242
343.237
343.249
343.239
343.212
343.202
343.226
343.239
343.219
343.222
343.295
343.152
343.156
343.154
343.165
343.156
343.133
343.126
343.145
343.152
343.135
343.14
343.197
343.095
343.098
343.098
343.107
343.1
343.082
343.076
343.091
343.094
343.081
343.086
343.128
343.058
343.06
343.061
343.069
343.063
343.05
343.045
343.056
343.057
343.047
343.053
343.082
343.035
343.036
343.038
343.044
343.04
343.03
343.027
343.034
343.035
343.028
343.032
343.051
343.022
343.022
343.024
343.028
343.026
343.019
343.017
343.021
343.021
343.016
343.02
343.032
343.014
343.014
343.016
343.019
343.017
343.013
343.011
343.014
343.013
343.01
343.013
343.019
343.009
343.009
343.011
343.013
343.012
343.009
343.008
343.009
343.009
343.007
343.008
343.012
343.006
343.006
343.008
343.009
343.009
343.007
343.006
343.007
343.006
343.005
343.006
343.007
343.005
343.005
343.006
343.007
343.007
343.006
343.004
343.005
343.004
343.003
343.004
343.004
343.004
343.003
343.004
343.005
343.006
343.005
343.003
343.003
343.003
343.002
343.003
343.003
343.003
343.003
343.003
343.004
343.005
343.004
343.003
343.002
343.002
343.002
343.002
343.001
343.002
343.002
343.002
343.003
343.004
343.003
343.002
343.002
343.001
343.001
343.001
343.001
343.001
343.001
343.002
343.002
343.003
343.002
343.001
343.001
343
343
343
343
343.001
343.001
343.001
343.001
343.002
343.002
343.001
343
343
343
343
343
343
343
343
343.001
343.001
343.001
343
343
343
343
343
343
343
343
343
343
343.001
343.001
343
343
343
343
343
343
343
343
343
343
343
343
343
343
343
343
343
343
343
343
343
343
343
343
343
343
343
343
343
343
343
343
343
343
343
343
343
343
343
343
343
343
343
343
343
343
343
343
343
343
343
343
343
343
343
343
343
343
343
343
343
343
343
343
343
343
343
343
343
343
343
343
343
343
343
343
343
343
343
343
343
343
343
343
343
343
343
343
343
343
343
343
343
343
343
343
343
343
343
343
343
343
343
343
343
343
343
343
343
343
343
343
343
343
343
343
343
343
343
343
343
343
343
343
343
343
343
343
343
343
343
343
343
343
343
343
343
343
343
343
343
343
343
343
343
343
343
343
343
343
343
343
343
343
343
343
343
343
343
343
343
343
343
343
343
343
343
343
343
343
343
343
343
343
343
343
343
343
343
343
343
343
343
343
343
343
343
343
343
343
343
343
343
343
343
343
343
343
343
343
343
343
343
343
343
343
343
343
343
343
343
343
343
343
343
343
343
343
343
343
343
343
343
343
343
343
343
343
343
343
343
343
343
343
343
343
343.001
343
343
343
343
343.001
343
343
343
343
343
343.001
343.001
343.001
343
343
343.001
343.001
343.001
343
343
343
343
343.001
343.001
343.001
343
343
343.001
343.001
343.001
343.001
343.001
343.001
343.001
343.001
343.001
343.001
343.001
343.001
343.001
343.001
343.001
343.001
343.001
343.001
343.001
343.001
343.001
343.001
343.001
343.001
343.001
343.001
343.001
343.001
343.001
343.001
343.001
343.001
343.001
343.001
343.001
343.001
343.001
343.001
343.001
343.001
343.001
343.001
343.001
343.001
343.001
343.001
343.001
343.001
343.001
343.001
343.001
343.001
343.001
343.001
343.001
343.001
343.001
343.001
343.001
343.001
343.001
343.001
343.001
343.001
343.001
343.001
343.001
343.001
343.001
343.001
343.001
343.001
343.001
343.001
343.001
343.001
343.001
343.001
343.001
343.001
343.001
343.001
343.001
343.001
343.001
343.001
343.001
343.001
343.001
343.001
343.001
343.001
343.001
343.001
343.001
343.001
343.001
343.001
343.001
343.001
343.001
343.001
343.001
343.001
343.001
343.001
343.001
343.001
343.001
343.001
343.001
343.001
343.001
343.001
343.001
343.001
343.001
343.001
343.001
343.001
343.001
343.001
343.001
343.001
343.001
343.001
343.001
343.001
343.001
343.001
343.001
343.001
343.001
343.001
343.001
343.001
343.001
343.001
343.001
343.001
343.001
343.001
343.001
343.001
343.001
343.001
343.001
343.001
343.001
343.001
343.001
343.001
343.001
343.001
343.001
343.001
343.001
343.001
343.001
343.001
343.001
343.001
343.001
343.001
343.001
343.001
343.001
343.001
343.001
343.001
343.001
343.001
343.001
343.001
343.001
343.001
343.001
343.001
343.001
343.001
343.001
343.001
343.001
343.001
343.001
343.001
372.121
372.123
372.127
372.122
372.12
372.123
372.123
372.124
372.13
372.129
372.112
372.107
370.354
370.359
370.368
370.355
370.349
370.358
370.357
370.362
370.379
370.376
370.327
370.313
368.559
368.565
368.581
368.559
368.55
368.565
368.563
368.572
368.601
368.597
368.516
368.495
366.739
366.743
366.764
366.734
366.722
366.743
366.741
366.753
366.795
366.791
366.681
366.656
364.897
364.894
364.919
364.884
364.867
364.893
364.891
364.908
364.964
364.963
364.827
364.8
363.038
363.024
363.052
363.013
362.994
363.023
363.02
363.04
363.114
363.118
362.961
362.937
361.178
361.148
361.176
361.138
361.116
361.146
361.141
361.164
361.257
361.27
361.098
361.081
359.337
359.288
359.314
359.281
359.256
359.286
359.277
359.302
359.415
359.441
359.259
359.252
357.544
357.475
357.496
357.471
357.445
357.471
357.458
357.482
357.618
357.66
357.474
357.478
355.828
355.739
355.753
355.74
355.714
355.735
355.717
355.737
355.896
355.956
355.771
355.786
354.214
354.109
354.114
354.112
354.089
354.104
354.08
354.096
354.276
354.354
354.173
354.198
352.718
352.603
352.597
352.607
352.588
352.597
352.568
352.578
352.775
352.869
352.694
352.729
351.344
351.225
351.208
351.228
351.213
351.216
351.182
351.187
351.396
351.501
351.334
351.383
350.083
349.967
349.94
349.969
349.957
349.953
349.915
349.919
350.132
350.241
350.086
350.151
348.934
348.828
348.793
348.827
348.819
348.808
348.768
348.771
348.981
349.086
348.945
349.027
347.901
347.809
347.768
347.805
347.799
347.782
347.741
347.746
347.945
348.04
347.916
348.015
346.986
346.91
346.866
346.904
346.899
346.876
346.835
346.845
347.027
347.106
347
347.114
346.188
346.128
346.085
346.121
346.117
346.088
346.049
346.064
346.224
346.284
346.197
346.324
345.504
345.459
345.419
345.454
345.448
345.414
345.378
345.399
345.534
345.576
345.507
345.642
344.929
344.897
344.861
344.894
344.887
344.85
344.817
344.843
344.953
344.976
344.926
345.063
344.456
344.434
344.404
344.435
344.426
344.387
344.357
344.386
344.473
344.482
344.447
344.581
344.074
344.06
344.037
344.066
344.056
344.016
343.99
344.02
344.086
344.084
344.062
344.188
343.774
343.765
343.749
343.775
343.764
343.726
343.704
343.734
343.782
343.772
343.761
343.874
343.545
343.538
343.529
343.552
343.541
343.507
343.488
343.515
343.549
343.536
343.533
343.629
343.373
343.369
343.364
343.384
343.374
343.345
343.33
343.352
343.375
343.363
343.364
343.443
343.25
343.247
343.245
343.262
343.254
343.23
343.218
343.236
343.25
343.239
343.243
343.305
343.163
343.161
343.161
343.175
343.168
343.15
343.141
343.154
343.163
343.154
343.159
343.205
343.104
343.103
343.104
343.115
343.11
343.096
343.089
343.099
343.104
343.098
343.102
343.135
343.066
343.065
343.066
343.074
343.071
343.061
343.056
343.063
343.066
343.062
343.065
343.087
343.042
343.04
343.042
343.048
343.046
343.039
343.036
343.039
343.041
343.039
343.041
343.055
343.026
343.025
343.027
343.031
343.03
343.026
343.023
343.025
343.026
343.024
343.026
343.035
343.017
343.016
343.018
343.021
343.02
343.017
343.015
343.016
343.017
343.016
343.017
343.022
343.012
343.011
343.012
343.014
343.014
343.012
343.01
343.011
343.011
343.01
343.011
343.014
343.008
343.007
343.008
343.01
343.011
343.009
343.007
343.007
343.007
343.007
343.007
343.009
343.006
343.005
343.006
343.007
343.008
343.007
343.005
343.005
343.005
343.005
343.005
343.005
343.004
343.003
343.004
343.005
343.006
343.005
343.004
343.003
343.003
343.003
343.003
343.004
343.003
343.002
343.003
343.004
343.005
343.004
343.002
343.002
343.002
343.002
343.002
343.002
343.002
343.001
343.002
343.003
343.004
343.003
343.001
343.001
343.001
343.001
343.001
343.001
343.001
343.001
343.001
343.002
343.003
343.002
343.001
343.001
343.001
343.001
343.001
343.001
343.001
343
343
343.001
343.002
343.001
343
343
343
343
343
343
343
343
343
343
343.001
343.001
343
343
343
343
343
343
343
343
343
343
343.001
343
343
343
343
343
343
343
343
343
343
343
343
343
343
343
343
343
343
343
343
343
343
343
343
343
343
343
343
343
343
343
343
343
343
343
343
343
343
343
343
343
343
343
343
343
343
343
343
343
343
343
343
343
343
343
343
343
343
343
343
343
343
343
343
343
343
343
343
343
343
343
343
343
343
343
343
343
343
343
343
343
343
343
343
343
343
343
343
343
343
343
343
343
343
343
343
343
343
343
343
343
343
343
343
343
343
343
343
343
343
343
343
343
343
343
343
343
343
343
343
343
343
343
343
343
343
343
343
343
343
343
343
343
343
343
343
343
343
343
343
343
343
343
343
343
343
343
343
343
343
343
343
343
343
343
343
343
343
343
343
343
343
343
343
343
343
343
343
343
343
343
343
343
343
343
343
343
343
343
343
343
343
343
343
343
343
343
343
343
343
343
343
343
343
343
343
343
343
343
343
343
343
343
343
343
343
343
343
343
343
343
343
343
343
343
343
343
343
343
343
343
343
343
343
343
343
343
343
343
343
343
343
343
343
343
343
343
343
343
343
343
343
343
343
343
343
343
343
343
343.001
343.001
343
343
343.001
343.001
343
343
343.001
343
343
343.001
343.001
343.001
343.001
343.001
343.001
343.001
343.001
343.001
343.001
343.001
343.001
343.001
343.001
343.001
343.001
343.001
343.001
343.001
343.001
343.001
343.001
343.001
343.001
343.001
343.001
343.001
343.001
343.001
343.001
343.001
343.001
343.001
343.001
343.001
343.001
343.001
343.001
343.001
343.001
343.001
343.001
343.001
343.001
343.001
343.001
343.001
343.001
343.001
343.001
343.001
343.001
343.001
343.001
343.001
343.001
343.001
343.001
343.001
343.001
343.001
343.001
343.001
343.001
343.001
343.001
343.001
343.001
343.001
343.001
343.001
343.001
343.001
343.001
343.001
343.001
343.001
343.001
343.001
343.001
343.001
343.001
343.001
343.001
343.001
343.001
343.001
343.001
343.001
343.001
343.001
343.001
343.001
343.001
343.001
343.001
343.001
343.001
343.001
343.001
343.001
343.001
343.001
343.001
343.001
343.001
343.001
343.001
343.001
343.001
343.001
343.001
343.001
343.001
343.001
343.001
343.001
343.001
343.001
343.001
343.001
343.001
343.001
343.001
343.001
343.001
343.001
343.001
343.001
343.001
343.001
343.001
343.001
343.001
343.001
343.001
343.001
343.001
343.001
343.001
343.001
343.001
343.001
343.001
343.001
343.001
343.001
343.001
343.001
343.001
343.001
343.001
343.001
343.001
343.001
343.001
343.001
343.001
343.001
343.001
343.001
343.001
343.001
343.001
343.001
343.001
343.001
343.001
343.001
343.001
343.001
343.001
343.001
343.001
343.001
343.001
343.001
343.001
343.001
343.001
343.001
343.001
343.001
343.001
343.001
343.001
343.001
343.001
343.001
343.001
343.001
372.111
372.111
372.114
372.109
372.107
372.111
372.112
372.114
372.119
372.119
372.102
372.098
370.322
370.322
370.331
370.315
370.31
370.323
370.325
370.33
370.347
370.346
370.297
370.286
368.507
368.504
368.518
368.494
368.485
368.507
368.509
368.518
368.548
368.546
368.466
368.45
366.667
366.657
366.677
366.645
366.633
366.661
366.664
366.677
366.721
366.721
366.613
366.595
364.805
364.785
364.808
364.772
364.756
364.789
364.792
364.809
364.869
364.874
364.741
364.726
362.929
362.895
362.919
362.883
362.863
362.898
362.898
362.919
362.998
363.011
362.86
362.851
361.052
360.999
361.024
360.992
360.968
361.001
360.997
361.02
361.121
361.146
360.984
360.986
359.194
359.12
359.142
359.119
359.094
359.12
359.11
359.133
359.259
359.299
359.132
359.148
357.38
357.286
357.302
357.293
357.267
357.284
357.266
357.287
357.439
357.498
357.331
357.361
355.64
355.528
355.535
355.542
355.518
355.524
355.496
355.513
355.691
355.77
355.606
355.652
353.997
353.872
353.869
353.891
353.871
353.866
353.829
353.841
354.042
354.139
353.981
354.042
352.469
352.34
352.324
352.36
352.344
352.33
352.286
352.293
352.511
352.621
352.47
352.547
351.062
350.936
350.908
350.955
350.944
350.922
350.871
350.875
351.102
351.218
351.077
351.171
349.772
349.657
349.619
349.674
349.668
349.636
349.581
349.585
349.813
349.925
349.796
349.911
348.603
348.504
348.459
348.519
348.515
348.475
348.418
348.426
348.644
348.743
348.629
348.766
347.558
347.479
347.431
347.491
347.489
347.442
347.385
347.4
347.599
347.678
347.581
347.739
346.642
346.583
346.536
346.594
346.591
346.538
346.483
346.506
346.68
346.735
346.657
346.832
345.852
345.813
345.769
345.824
345.819
345.761
345.71
345.741
345.886
345.916
345.857
346.044
345.186
345.163
345.125
345.177
345.169
345.107
345.06
345.099
345.214
345.219
345.18
345.372
344.636
344.625
344.595
344.643
344.632
344.568
344.526
344.571
344.657
344.643
344.62
344.811
344.193
344.19
344.17
344.214
344.2
344.136
344.1
344.147
344.207
344.179
344.171
344.351
343.846
343.847
343.836
343.876
343.861
343.8
343.768
343.815
343.854
343.818
343.821
343.985
343.582
343.585
343.58
343.617
343.601
343.545
343.519
343.562
343.585
343.546
343.557
343.699
343.387
343.39
343.391
343.424
343.408
343.36
343.338
343.376
343.387
343.35
343.365
343.482
343.249
343.25
343.255
343.283
343.27
343.229
343.212
343.243
343.247
343.215
343.23
343.323
343.154
343.155
343.161
343.185
343.173
343.141
343.127
343.152
343.152
343.126
343.14
343.21
343.092
343.092
343.099
343.118
343.109
343.084
343.074
343.092
343.09
343.07
343.082
343.132
343.054
343.053
343.059
343.073
343.067
343.049
343.042
343.054
343.051
343.038
343.047
343.081
343.031
343.03
343.035
343.045
343.041
343.029
343.023
343.031
343.029
343.02
343.026
343.048
343.018
343.017
343.021
343.028
343.026
343.017
343.014
343.018
343.016
343.011
343.015
343.028
343.011
343.01
343.013
343.018
343.017
343.012
343.008
343.011
343.01
343.007
343.009
343.016
343.008
343.006
343.008
343.012
343.012
343.009
343.006
343.007
343.007
343.005
343.006
343.009
343.006
343.004
343.006
343.009
343.009
343.007
343.005
343.005
343.005
343.004
343.004
343.005
343.005
343.003
343.004
343.006
343.007
343.006
343.004
343.004
343.004
343.003
343.003
343.003
343.004
343.002
343.003
343.005
343.006
343.005
343.003
343.003
343.003
343.003
343.003
343.002
343.003
343.002
343.002
343.003
343.005
343.004
343.002
343.002
343.002
343.002
343.002
343.001
343.003
343.001
343.001
343.002
343.004
343.004
343.001
343.001
343.002
343.001
343.001
343.001
343.002
343.001
343.001
343.001
343.003
343.003
343.001
343.001
343.001
343.001
343.001
343
343.001
343
343
343.001
343.002
343.002
343
343
343.001
343
343
343
343.001
343
343
343
343.002
343.001
343
343
343
343
343
343
343
343
343
343
343.001
343.001
343
343
343
343
343
342.999
343
343
343
343
343
343
343
343
343
343
343
342.999
343
343
343
343
343
343
343
343
343
343
343
342.999
343
343
343
343
343
343
343
343
343
343
343
342.999
343
343
343
343
343
343
343
343
343
343
343
343
343
343
343
343
343
343
343
343
343
343
343
343
343
343
343
343
343
343
343
343
343
343
343
343
343
343
343
343
343
343
343
343
343
343
343
343
343
343
343
343
343
343
343
343
343
343
343
343
343
343
343
343
343
343
343
343
343
343
343
343
343
343
343
343
343
343
343
343
343
343
343
343
343
343
343
343
343
343
343
343
343
343
343
343
343
343
343
343
343
343
343
343
343
343
343
343
343
343
343
343
343
343
343
343
343
343
343
343
343
343
343
343
343
343
343
343
343
343
343
343
343
343
343
343
343
343
343
343
343
343
343
343
343
343
343
343
343
343
343
343
343
343
343
343
343
343
343
343
343
343
343
343
343
343
343
343
343
343
343
343
343
343
343
343
343
343
343
343
343
343
343
343
343
343
343
343
343
343
343
343
343
343
343
343
343
343
343
343
343
343
343
343
343
343
343
343
343
343
343
343
343
343
343
343
343
343
343
343
343
343
343
343
343
343
343
343
343
343
343
343
343
343
343.001
343
343
343
343
343
343
343
343
343.001
343.001
343.001
343.001
343.001
343.001
343.001
343.001
343
343
343.001
343.001
343.001
343.001
343.001
343.001
343.001
343.001
343.001
343.001
343.001
343.001
343.001
343.001
343.001
343.001
343.001
343.001
343.001
343.001
343.001
343.001
343.001
343.001
343.001
343.001
343.001
343.001
343.001
343.001
343.001
343.001
343.001
343.001
343.001
343.001
343.001
343.001
343.001
343.001
343.001
343.001
343.001
343.001
343.001
343.001
343.001
343.001
343.001
343.001
343.001
343.001
343.001
343.001
343.001
343.001
343.001
343.001
343.001
343.001
343.001
343.001
343.001
343.001
343.001
343.001
343.001
343.001
343.001
343.001
343.001
343.001
343.001
343.001
343.001
343.001
343.001
343.001
343.001
343.001
343.001
343.001
343.001
343.001
343.001
343.001
343.001
343.001
343.001
343.001
343.001
343.001
343.001
343.001
343.001
343.001
343.001
343.001
343.001
343.001
343.001
343.001
343.001
343.001
343.001
343.001
343.001
343.001
343.001
343.001
343.001
343.001
343.001
343.001
343.001
343.001
343.001
343.001
343.001
343.001
343.001
343.001
343.001
343.001
343.001
343.001
343.001
343.001
343.001
343.001
343.001
343.001
343.001
343.001
343.001
343.001
343.001
343.001
343.001
343.001
343.001
343.001
343.001
343.001
343.001
343.001
343.001
343.001
343.001
343.001
343.001
343.001
343.001
343.001
343.001
343.001
343.001
343.001
343.001
343.001
343.001
343.001
343.001
343.001
343.001
343.001
343.001
372.104
372.103
372.107
372.102
372.1
372.104
372.104
372.106
372.112
372.112
372.096
372.093
370.302
370.299
370.309
370.296
370.29
370.301
370.301
370.307
370.326
370.326
370.279
370.269
368.473
368.466
368.481
368.462
368.452
368.469
368.469
368.478
368.512
368.514
368.437
368.423
366.619
366.604
366.624
366.601
366.588
366.608
366.607
366.62
366.67
366.675
366.572
366.556
364.742
364.716
364.74
364.716
364.7
364.722
364.718
364.735
364.803
364.815
364.689
364.676
362.851
362.809
362.835
362.815
362.796
362.817
362.809
362.828
362.918
362.939
362.796
362.789
360.959
360.899
360.924
360.912
360.892
360.908
360.893
360.914
361.028
361.061
360.907
360.91
359.087
359.007
359.029
359.03
359.01
359.017
358.994
359.015
359.155
359.203
359.042
359.059
357.262
357.164
357.18
357.196
357.177
357.174
357.142
357.163
357.327
357.392
357.229
357.262
355.513
355.402
355.408
355.44
355.424
355.411
355.37
355.388
355.575
355.654
355.493
355.543
353.865
353.748
353.744
353.789
353.777
353.754
353.705
353.721
353.926
354.015
353.858
353.927
352.339
352.222
352.207
352.262
352.254
352.224
352.169
352.183
352.397
352.491
352.34
352.43
350.938
350.828
350.803
350.866
350.861
350.822
350.763
350.778
350.994
351.083
350.944
351.056
349.659
349.562
349.53
349.597
349.594
349.547
349.485
349.505
349.712
349.789
349.664
349.801
348.504
348.423
348.387
348.457
348.454
348.398
348.336
348.362
348.552
348.611
348.504
348.665
347.478
347.413
347.377
347.447
347.442
347.379
347.317
347.352
347.52
347.556
347.47
347.651
346.581
346.531
346.498
346.568
346.56
346.49
346.43
346.473
346.615
346.628
346.563
346.759
345.812
345.773
345.747
345.815
345.805
345.729
345.671
345.722
345.836
345.829
345.785
345.987
345.165
345.135
345.116
345.183
345.169
345.09
345.036
345.091
345.179
345.156
345.132
345.332
344.632
344.607
344.597
344.661
344.646
344.567
344.516
344.573
344.638
344.605
344.596
344.786
344.202
344.181
344.179
344.24
344.223
344.148
344.102
344.157
344.203
344.165
344.168
344.34
343.865
343.845
343.85
343.907
343.89
343.822
343.782
343.831
343.862
343.825
343.836
343.984
343.606
343.589
343.598
343.649
343.634
343.575
343.541
343.583
343.602
343.57
343.585
343.706
343.415
343.398
343.41
343.455
343.441
343.393
343.365
343.399
343.411
343.385
343.4
343.494
343.277
343.262
343.274
343.311
343.301
343.263
343.242
343.266
343.274
343.255
343.268
343.338
343.18
343.169
343.179
343.208
343.201
343.173
343.157
343.174
343.179
343.166
343.177
343.225
343.116
343.106
343.115
343.136
343.132
343.113
343.101
343.112
343.115
343.108
343.115
343.147
343.073
343.066
343.073
343.088
343.085
343.073
343.065
343.071
343.074
343.07
343.074
343.094
343.047
343.042
343.046
343.056
343.055
343.048
343.042
343.045
343.047
343.046
343.048
343.059
343.03
343.027
343.029
343.036
343.036
343.032
343.028
343.029
343.031
343.03
343.031
343.037
343.021
343.017
343.019
343.024
343.024
343.022
343.018
343.019
343.021
343.021
343.021
343.023
343.014
343.012
343.012
343.016
343.017
343.016
343.012
343.012
343.014
343.014
343.014
343.015
343.011
343.008
343.008
343.011
343.012
343.011
343.009
343.008
343.01
343.01
343.009
343.01
343.008
343.006
343.006
343.007
343.009
343.009
343.006
343.005
343.007
343.007
343.006
343.006
343.006
343.004
343.004
343.005
343.007
343.007
343.004
343.003
343.005
343.005
343.004
343.004
343.005
343.003
343.002
343.004
343.006
343.005
343.002
343.002
343.004