/*--------------------------------*- C++ -*----------------------------------*\
| =========                 |                                                 |
| \\      /  F ield         | OpenFOAM: The Open Source CFD Toolbox           |
|  \\    /   O peration     | Version:  v1912                                 |
|   \\  /    A nd           | Website:  www.openfoam.com                      |
|    \\/     M anipulation  |                                                 |
\*---------------------------------------------------------------------------*/
FoamFile
{
    version     2.0;
    format      ascii;
    class       volVectorField;
    location    "7.6";
    object      UMean;
}
// * * * * * * * * * * * * * * * * * * * * * * * * * * * * * * * * * * * * * //

dimensions      [0 1 -1 0 0 0 0];


internalField   nonuniform List<vector> 
34128
(
(-1.51526e-07 1.72124e-07 -0.00347649)
(3.06344e-07 1.7317e-07 -0.00346421)
(2.92665e-07 1.76679e-07 -0.00344069)
(-3.59707e-07 1.78257e-07 -0.00343119)
(-8.13991e-07 1.76302e-07 -0.00344362)
(-7.7e-07 1.7341e-07 -0.0034625)
(-2.93006e-07 1.72019e-07 -0.00347148)
(2.31165e-07 1.7376e-07 -0.00345669)
(-1.73258e-08 1.76883e-07 -0.00343334)
(-8.73549e-07 1.75533e-07 -0.0034454)
(-6.56411e-07 1.70638e-07 -0.00348497)
(4.70065e-07 1.70129e-07 -0.00349501)
(-4.57678e-07 1.42971e-06 -0.0105052)
(8.60941e-07 1.44522e-06 -0.0104692)
(8.21322e-07 1.48698e-06 -0.0104001)
(-1.05977e-06 1.5073e-06 -0.0103721)
(-2.36714e-06 1.48327e-06 -0.0104086)
(-2.23823e-06 1.44647e-06 -0.0104641)
(-8.60615e-07 1.42972e-06 -0.0104904)
(6.54749e-07 1.45161e-06 -0.010447)
(-5.44003e-08 1.48803e-06 -0.0103784)
(-2.51945e-06 1.47025e-06 -0.0104139)
(-1.88531e-06 1.41289e-06 -0.0105301)
(1.35854e-06 1.40675e-06 -0.0105597)
(-7.66311e-07 3.69361e-06 -0.0177243)
(1.36622e-06 3.73842e-06 -0.0176653)
(1.30117e-06 3.8555e-06 -0.0175521)
(-1.7477e-06 3.91298e-06 -0.0175061)
(-3.86458e-06 3.84537e-06 -0.017566)
(-3.65513e-06 3.74135e-06 -0.017657)
(-1.42179e-06 3.6943e-06 -0.0177001)
(1.03702e-06 3.75586e-06 -0.0176288)
(-1.02679e-07 3.85731e-06 -0.0175165)
(-4.09017e-06 3.8067e-06 -0.0175746)
(-3.05058e-06 3.64648e-06 -0.0177651)
(2.19806e-06 3.62882e-06 -0.0178137)
(-1.07752e-06 7.1522e-06 -0.0251201)
(1.82338e-06 7.24192e-06 -0.0250391)
(1.73431e-06 7.47257e-06 -0.0248834)
(-2.42354e-06 7.58636e-06 -0.0248202)
(-5.30867e-06 7.453e-06 -0.0249024)
(-5.02297e-06 7.2472e-06 -0.0250275)
(-1.97646e-06 7.15443e-06 -0.0250867)
(1.38046e-06 7.27571e-06 -0.0249888)
(-1.59742e-07 7.47461e-06 -0.0248344)
(-5.58345e-06 7.37402e-06 -0.0249143)
(-4.14747e-06 7.05928e-06 -0.0251761)
(2.99441e-06 7.02407e-06 -0.0252431)
(-1.39017e-06 1.16487e-05 -0.0326695)
(2.23442e-06 1.17985e-05 -0.0325676)
(2.12305e-06 1.21796e-05 -0.0323715)
(-3.08757e-06 1.23681e-05 -0.0322918)
(-6.70244e-06 1.21477e-05 -0.0323954)
(-6.34492e-06 1.18069e-05 -0.0325529)
(-2.52582e-06 1.16535e-05 -0.0326274)
(1.68563e-06 1.18537e-05 -0.0325041)
(-2.2535e-07 1.21809e-05 -0.0323099)
(-6.9992e-06 1.20136e-05 -0.0324104)
(-5.17338e-06 1.14948e-05 -0.0327399)
(3.75135e-06 1.1436e-05 -0.0328244)
(-1.70224e-06 1.72293e-05 -0.0403443)
(2.60192e-06 1.74542e-05 -0.0402228)
(2.46984e-06 1.80216e-05 -0.0399889)
(-3.7403e-06 1.83027e-05 -0.0398937)
(-8.0494e-06 1.79745e-05 -0.0400173)
(-7.62481e-06 1.74663e-05 -0.0402052)
(-3.07212e-06 1.72377e-05 -0.0402939)
(1.9514e-06 1.75354e-05 -0.0401468)
(-3.01174e-07 1.80208e-05 -0.0399153)
(-8.33916e-06 1.77703e-05 -0.0400351)
(-6.12768e-06 1.69991e-05 -0.0404281)
(4.47078e-06 1.69107e-05 -0.0405292)
(-2.01127e-06 2.38712e-05 -0.0481128)
(2.9288e-06 2.41862e-05 -0.0479733)
(2.77717e-06 2.49757e-05 -0.0477042)
(-4.38229e-06 2.5367e-05 -0.0475946)
(-9.3532e-06 2.49104e-05 -0.0477368)
(-8.86668e-06 2.42027e-05 -0.0479529)
(-3.61809e-06 2.38847e-05 -0.0480547)
(2.1758e-06 2.4298e-05 -0.0478858)
(-3.89773e-07 2.49713e-05 -0.0476198)
(-9.60585e-06 2.4621e-05 -0.0477574)
(-7.01061e-06 2.35494e-05 -0.0482091)
(5.15373e-06 2.34255e-05 -0.0483255)
(-2.31453e-06 3.15654e-05 -0.0559416)
(3.2183e-06 3.19855e-05 -0.0557855)
(3.04775e-06 3.30324e-05 -0.0554843)
(-5.01399e-06 3.35512e-05 -0.0553615)
(-1.06175e-05 3.29459e-05 -0.0555207)
(-1.00746e-05 3.20072e-05 -0.0557625)
(-4.16675e-06 3.15853e-05 -0.0558763)
(2.35624e-06 3.21325e-05 -0.0556874)
(-4.94404e-07 3.30226e-05 -0.0553901)
(-1.08025e-05 3.25559e-05 -0.055544)
(-7.82328e-06 3.11363e-05 -0.0560491)
(5.80048e-06 3.09712e-05 -0.0561796)
(-2.60921e-06 4.03009e-05 -0.0637968)
(3.47396e-06 4.0841e-05 -0.0636257)
(3.28456e-06 4.21803e-05 -0.0632956)
(-5.63575e-06 4.28435e-05 -0.0631609)
(-1.1846e-05 4.20693e-05 -0.0633355)
(-1.12528e-05 4.08684e-05 -0.0636005)
(-4.72126e-06 4.03287e-05 -0.0637249)
(2.48984e-06 4.10276e-05 -0.0635183)
(-6.18721e-07 4.21634e-05 -0.0631929)
(-1.19329e-05 4.15636e-05 -0.0633613)
(-8.56759e-06 3.97486e-05 -0.0639144)
(6.41088e-06 3.95366e-05 -0.0640575)
(-2.89261e-06 5.00681e-05 -0.0716472)
(3.69954e-06 5.07429e-05 -0.0714625)
(3.4909e-06 5.24095e-05 -0.0711067)
(-6.24769e-06 5.32339e-05 -0.0709613)
(-1.30422e-05 5.22706e-05 -0.0711496)
(-1.24051e-05 5.07766e-05 -0.0714353)
(-5.28466e-06 5.01051e-05 -0.0715692)
(2.57388e-06 5.09736e-05 -0.0713469)
(-7.66391e-07 5.23837e-05 -0.0709966)
(-1.30013e-05 5.16339e-05 -0.071178)
(-9.24607e-06 4.93765e-05 -0.0717736)
(6.98476e-06 4.91123e-05 -0.0719278)
(-3.1623e-06 6.08565e-05 -0.0794652)
(3.89892e-06 6.16809e-05 -0.0792684)
(3.6704e-06 6.37094e-05 -0.0788898)
(-6.84968e-06 6.47116e-05 -0.0787349)
(-1.42096e-05 6.3539e-05 -0.0789355)
(-1.35356e-05 6.17214e-05 -0.0792395)
(-5.85965e-06 6.09044e-05 -0.0793817)
(2.60615e-06 6.19602e-05 -0.0791459)
(-9.40722e-07 6.36728e-05 -0.0787738)
(-1.40123e-05 6.27564e-05 -0.0789666)
(-9.86149e-06 6.00096e-05 -0.0795993)
(7.52226e-06 5.96881e-05 -0.0797633)
(-3.41616e-06 7.26519e-05 -0.0872285)
(4.07601e-06 7.36406e-05 -0.087021)
(3.82702e-06 7.60655e-05 -0.0866224)
(-7.44129e-06 7.72618e-05 -0.0864592)
(-1.53513e-05 7.586e-05 -0.0866706)
(-1.46478e-05 7.36881e-05 -0.0869907)
(-6.4484e-06 7.27122e-05 -0.0871401)
(2.5852e-06 7.39728e-05 -0.0868926)
(-1.14441e-06 7.60162e-05 -0.0865016)
(-1.49701e-05 7.49161e-05 -0.0867043)
(-1.04166e-05 7.16335e-05 -0.0873694)
(8.02404e-06 7.12499e-05 -0.0875417)
(-3.65241e-06 8.54525e-05 -0.0949217)
(4.23469e-06 8.66199e-05 -0.0947045)
(3.965e-06 8.94752e-05 -0.0942884)
(-8.02172e-06 9.08818e-05 -0.0941179)
(-1.64704e-05 8.92307e-05 -0.0943389)
(-1.57448e-05 8.66749e-05 -0.0946731)
(-7.05239e-06 8.55266e-05 -0.094829)
(2.51063e-06 8.7009e-05 -0.0945714)
(-1.37918e-06 8.94108e-05 -0.094164)
(-1.58784e-05 8.81103e-05 -0.0943754)
(-1.09136e-05 8.42465e-05 -0.0950684)
(8.4917e-06 8.37969e-05 -0.0952478)
(-3.86953e-06 9.92528e-05 -0.102536)
(4.37893e-06 0.000100613 -0.10231)
(4.08895e-06 0.000103933 -0.101879)
(-8.5899e-06 0.000105567 -0.101702)
(-1.75696e-05 0.000103646 -0.101931)
(-1.68298e-05 0.000100676 -0.102278)
(-7.67256e-06 9.93419e-05 -0.102439)
(2.38275e-06 0.000101064 -0.102173)
(-1.64623e-06 0.000103852 -0.101752)
(-1.67407e-05 0.000102334 -0.101971)
(-1.13546e-05 9.78428e-05 -0.102688)
(8.92712e-06 9.73236e-05 -0.102873)
(-4.06572e-06 0.000114005 -0.110063)
(4.51281e-06 0.000115573 -0.109829)
(4.20358e-06 0.000119392 -0.109385)
(-9.1442e-06 0.000121269 -0.109202)
(-1.86507e-05 0.000119059 -0.109439)
(-1.79047e-05 0.000115643 -0.109796)
(-8.30927e-06 0.000114111 -0.109963)
(2.20202e-06 0.000116088 -0.10969)
(-1.94657e-06 0.00011929 -0.109256)
(-1.75601e-05 0.000117538 -0.109482)
(-1.17416e-05 0.000112375 -0.110219)
(9.33144e-06 0.000111783 -0.110409)
(-4.23886e-06 0.000129672 -0.117492)
(4.64022e-06 0.000131461 -0.117252)
(4.31355e-06 0.000135812 -0.116796)
(-9.68217e-06 0.000137949 -0.116608)
(-1.97141e-05 0.00013543 -0.116852)
(-1.89701e-05 0.000131539 -0.117219)
(-8.96193e-06 0.000129796 -0.117389)
(1.96931e-06 0.000132045 -0.11711)
(-2.28067e-06 0.000135686 -0.116666)
(-1.83384e-05 0.000133683 -0.116898)
(-1.2076e-05 0.000127807 -0.117652)
(9.70558e-06 0.000127141 -0.117846)
(-4.38663e-06 0.000146218 -0.124816)
(4.76501e-06 0.000148241 -0.124569)
(4.42355e-06 0.000153157 -0.124104)
(-1.02007e-05 0.00015557 -0.123912)
(-2.0759e-05 0.000152722 -0.124161)
(-2.00255e-05 0.000148328 -0.124536)
(-9.62915e-06 0.00014636 -0.124711)
(1.68601e-06 0.000148897 -0.124427)
(-2.64837e-06 0.000153001 -0.123974)
(-1.90765e-05 0.000150731 -0.12421)
(-1.23584e-05 0.000144102 -0.12498)
(1.00505e-05 0.00014336 -0.125176)
(-4.50637e-06 0.000163603 -0.132026)
(4.89103e-06 0.000165874 -0.131774)
(4.53834e-06 0.000171386 -0.1313)
(-1.06961e-05 0.000174092 -0.131105)
(-2.17838e-05 0.000170896 -0.131359)
(-2.10695e-05 0.000165968 -0.131741)
(-1.03088e-05 0.000163765 -0.131919)
(1.35387e-06 0.000166603 -0.131631)
(-3.04905e-06 0.000171194 -0.131171)
(-1.97741e-05 0.000168641 -0.131411)
(-1.25887e-05 0.000161221 -0.132193)
(1.03671e-05 0.000160405 -0.132392)
(-4.59496e-06 0.000181788 -0.139118)
(5.02219e-06 0.000184319 -0.138861)
(4.66264e-06 0.000190457 -0.13838)
(-1.11639e-05 0.000193473 -0.138181)
(-2.27855e-05 0.000189909 -0.138439)
(-2.20993e-05 0.00018442 -0.138828)
(-1.09981e-05 0.00018197 -0.139009)
(9.74922e-07 0.000185123 -0.138718)
(-3.48161e-06 0.000190221 -0.138251)
(-2.04304e-05 0.000187369 -0.138495)
(-1.27664e-05 0.000179124 -0.139287)
(1.0656e-05 0.000178235 -0.139487)
(-4.6487e-06 0.000200731 -0.146084)
(5.16248e-06 0.000203534 -0.145823)
(4.80116e-06 0.000210328 -0.145335)
(-1.15991e-05 0.000213671 -0.145134)
(-2.37601e-05 0.000209721 -0.145396)
(-2.31113e-05 0.000203641 -0.14579)
(-1.16934e-05 0.000200934 -0.145974)
(5.5144e-07 0.000204413 -0.14568)
(-3.94454e-06 0.000210037 -0.145208)
(-2.10431e-05 0.000206871 -0.145455)
(-1.28903e-05 0.000197771 -0.146256)
(1.09179e-05 0.000196813 -0.146457)
(-4.66322e-06 0.00022039 -0.15292)
(5.31607e-06 0.000223477 -0.152656)
(4.95851e-06 0.000230955 -0.152162)
(-1.1996e-05 0.000234642 -0.151958)
(-2.47023e-05 0.000230288 -0.152223)
(-2.41004e-05 0.000223589 -0.152623)
(-1.23905e-05 0.000220614 -0.152809)
(8.59064e-08 0.000224432 -0.152513)
(-4.43586e-06 0.000230598 -0.152036)
(-2.16092e-05 0.000227103 -0.152286)
(-1.29584e-05 0.00021712 -0.153094)
(1.11532e-05 0.000216097 -0.153295)
(-4.63335e-06 0.000240721 -0.15962)
(5.48728e-06 0.000244103 -0.159352)
(5.13919e-06 0.000252295 -0.158855)
(-1.23482e-05 0.000256342 -0.158648)
(-2.56052e-05 0.000251565 -0.158916)
(-2.50602e-05 0.000244219 -0.15932)
(-1.30844e-05 0.000240967 -0.159509)
(-4.18968e-07 0.000245133 -0.159211)
(-4.95308e-06 0.000251857 -0.15873)
(-2.21245e-05 0.000248016 -0.158982)
(-1.29686e-05 0.000237126 -0.159796)
(1.13622e-05 0.000236045 -0.159996)
(-4.55307e-06 0.000261679 -0.166177)
(5.68067e-06 0.000265367 -0.165907)
(5.34747e-06 0.000274298 -0.165406)
(-1.26488e-05 0.000278723 -0.165197)
(-2.6461e-05 0.000273505 -0.165468)
(-2.59832e-05 0.000265484 -0.165875)
(-1.37693e-05 0.000261945 -0.166066)
(-9.6018e-07 0.00026647 -0.165767)
(-5.49315e-06 0.000273764 -0.165283)
(-2.25836e-05 0.000269561 -0.165537)
(-1.29178e-05 0.000257743 -0.166355)
(1.15452e-05 0.000256612 -0.166553)
(-4.41545e-06 0.000283211 -0.172584)
(5.90102e-06 0.000287216 -0.172313)
(5.58735e-06 0.000296913 -0.17181)
(-1.289e-05 0.000301735 -0.171599)
(-2.726e-05 0.000296058 -0.171871)
(-2.68603e-05 0.000287332 -0.172281)
(-1.44386e-05 0.000283497 -0.172474)
(-1.53433e-06 0.00028839 -0.172174)
(-6.05233e-06 0.000296264 -0.171688)
(-2.29803e-05 0.000291684 -0.171943)
(-1.28026e-05 0.00027892 -0.172763)
(1.17023e-05 0.000277748 -0.172959)
(-4.21261e-06 0.000305262 -0.178834)
(6.15337e-06 0.000309593 -0.178562)
(5.86248e-06 0.000320085 -0.178057)
(-1.3064e-05 0.000325322 -0.177845)
(-2.79911e-05 0.000319167 -0.178118)
(-2.7681e-05 0.000309706 -0.178529)
(-1.50848e-05 0.000305566 -0.178724)
(-2.13748e-06 0.000310837 -0.178425)
(-6.62607e-06 0.0003193 -0.177937)
(-2.3307e-05 0.000314326 -0.178193)
(-1.26191e-05 0.0003006 -0.179013)
(1.18337e-05 0.000299398 -0.179206)
(-3.93578e-06 0.000327769 -0.184916)
(6.44297e-06 0.000332437 -0.184644)
(6.17605e-06 0.000343749 -0.184139)
(-1.31623e-05 0.000349421 -0.183926)
(-2.86422e-05 0.00034277 -0.184199)
(-2.84335e-05 0.000332542 -0.184611)
(-1.56993e-05 0.00032809 -0.184807)
(-2.76491e-06 0.000333748 -0.184508)
(-7.20885e-06 0.000342808 -0.184021)
(-2.35551e-05 0.000337421 -0.184277)
(-1.2363e-05 0.00032272 -0.185095)
(1.19401e-05 0.0003215 -0.185285)
(-3.57537e-06 0.000350662 -0.190821)
(6.77531e-06 0.000355677 -0.19055)
(6.53085e-06 0.000367836 -0.190047)
(-1.31762e-05 0.000373964 -0.189833)
(-2.91995e-05 0.000366798 -0.190105)
(-2.91047e-05 0.000355771 -0.190517)
(-1.62726e-05 0.000350997 -0.190712)
(-3.41097e-06 0.000357053 -0.190416)
(-7.79407e-06 0.000366715 -0.18993)
(-2.37151e-05 0.000360897 -0.190186)
(-1.20294e-05 0.00034521 -0.190999)
(1.20224e-05 0.000343985 -0.191185)
(-3.12096e-06 0.000373862 -0.196538)
(7.15613e-06 0.000379234 -0.196269)
(6.9292e-06 0.000392268 -0.195769)
(-1.30971e-05 0.000398872 -0.195555)
(-2.96485e-05 0.000391173 -0.195825)
(-2.96805e-05 0.000379312 -0.196235)
(-1.67941e-05 0.000374209 -0.196431)
(-4.06874e-06 0.000380672 -0.196138)
(-8.37383e-06 0.000390941 -0.195655)
(-2.37767e-05 0.000384673 -0.195909)
(-1.16133e-05 0.00036799 -0.196715)
(1.20823e-05 0.000366774 -0.196896)
(-2.56142e-06 0.000397278 -0.202058)
(7.59154e-06 0.000403017 -0.201792)
(7.37309e-06 0.000416954 -0.201296)
(-1.29163e-05 0.000424057 -0.201083)
(-2.99738e-05 0.000415804 -0.201351)
(-3.01456e-05 0.000403075 -0.201758)
(-1.72521e-05 0.000397635 -0.201953)
(-4.7298e-06 0.000404517 -0.201663)
(-8.93886e-06 0.000415394 -0.201185)
(-2.37287e-05 0.000408657 -0.201437)
(-1.1109e-05 0.00039097 -0.202233)
(1.21224e-05 0.000389777 -0.202409)
(-1.88484e-06 0.000420809 -0.207372)
(8.0881e-06 0.000426925 -0.207111)
(7.86434e-06 0.000441792 -0.206621)
(-1.26257e-05 0.000449417 -0.206409)
(-3.01596e-05 0.00044059 -0.206673)
(-3.04842e-05 0.000426956 -0.207075)
(-1.76337e-05 0.000421172 -0.207269)
(-5.384e-06 0.000428483 -0.206984)
(-9.47837e-06 0.000439972 -0.206513)
(-2.35593e-05 0.000432743 -0.206762)
(-1.05105e-05 0.000414047 -0.207545)
(1.21469e-05 0.000412893 -0.207714)
(-1.07849e-06 0.000444341 -0.212474)
(8.65308e-06 0.000450844 -0.212218)
(8.40475e-06 0.00046667 -0.211736)
(-1.2217e-05 0.000474839 -0.211526)
(-3.01897e-05 0.000465419 -0.211785)
(-3.06797e-05 0.000450841 -0.212181)
(-1.79248e-05 0.000444706 -0.212373)
(-6.0193e-06 0.000452459 -0.212094)
(-9.98007e-06 0.000464557 -0.211631)
(-2.32563e-05 0.000456816 -0.211876)
(-9.81124e-06 0.000437107 -0.212644)
(1.21611e-05 0.000436007 -0.212806)
(-1.29002e-07 0.000467724 -0.217357)
(9.29447e-06 0.000474626 -0.217107)
(8.99618e-06 0.000491438 -0.216635)
(-1.16825e-05 0.000500177 -0.216428)
(-3.00477e-05 0.000490143 -0.216681)
(-3.0715e-05 0.000474582 -0.217069)
(-1.81101e-05 0.000468089 -0.217258)
(-6.6218e-06 0.000476297 -0.216987)
(-1.04302e-05 0.000489004 -0.216534)
(-2.28075e-05 0.000480726 -0.216774)
(-9.00524e-06 0.00046 -0.217522)
(1.21714e-05 0.00045897 -0.217678)
(9.77133e-07 0.000490785 -0.222014)
(1.00204e-05 0.000498097 -0.221771)
(9.64029e-06 0.000515921 -0.221311)
(-1.10149e-05 0.000525253 -0.221107)
(-2.9717e-05 0.000514585 -0.221353)
(-3.05726e-05 0.000498001 -0.221732)
(-1.81732e-05 0.000491145 -0.221917)
(-7.17554e-06 0.000499821 -0.221655)
(-1.08135e-05 0.000513132 -0.221215)
(-2.22007e-05 0.000504294 -0.221448)
(-8.08684e-06 0.000482553 -0.222174)
(1.21846e-05 0.000481609 -0.222322)
(2.25326e-06 0.000513345 -0.226437)
(1.08389e-05 0.000521077 -0.226203)
(1.03381e-05 0.000539939 -0.225757)
(-1.0208e-05 0.000549884 -0.225558)
(-2.91812e-05 0.000538564 -0.225795)
(-3.02342e-05 0.000520919 -0.226162)
(-1.80961e-05 0.000513695 -0.226343)
(-7.66244e-06 0.00052285 -0.22609)
(-1.11136e-05 0.000536758 -0.225666)
(-2.14244e-05 0.000527338 -0.225892)
(-7.05105e-06 0.000504587 -0.226592)
(1.22083e-05 0.000503748 -0.226731)
(3.71211e-06 0.000535215 -0.23062)
(1.17572e-05 0.000543377 -0.230395)
(1.10902e-05 0.000563297 -0.229967)
(-9.25643e-06 0.000573877 -0.229773)
(-2.84246e-05 0.000561888 -0.229999)
(-2.96816e-05 0.000543145 -0.230353)
(-1.78599e-05 0.00053555 -0.230528)
(-8.06221e-06 0.000545196 -0.230287)
(-1.13127e-05 0.000559687 -0.22988)
(-2.04679e-05 0.000549663 -0.230098)
(-5.89381e-06 0.000525914 -0.230768)
(1.22506e-05 0.000525196 -0.230899)
(5.36532e-06 0.000556195 -0.234556)
(1.27826e-05 0.000564799 -0.234342)
(1.18965e-05 0.000585792 -0.233933)
(-8.15661e-06 0.000597025 -0.233745)
(-2.74326e-05 0.000584351 -0.23396)
(-2.88966e-05 0.000564475 -0.234298)
(-1.74447e-05 0.000556508 -0.234467)
(-8.3524e-06 0.000566655 -0.234239)
(-1.13917e-05 0.000581713 -0.233852)
(-1.93217e-05 0.000571064 -0.23406)
(-4.61233e-06 0.000546333 -0.234697)
(1.23201e-05 0.000545756 -0.234819)
(7.22275e-06 0.000576081 -0.238239)
(1.3921e-05 0.000585136 -0.238038)
(1.27564e-05 0.000607214 -0.23765)
(-6.90648e-06 0.000619113 -0.23747)
(-2.6192e-05 0.000605744 -0.237671)
(-2.78618e-05 0.000584703 -0.237992)
(-1.683e-05 0.000576364 -0.238154)
(-8.50856e-06 0.000587022 -0.237941)
(-1.13305e-05 0.000602625 -0.237575)
(-1.7978e-05 0.00059133 -0.237772)
(-3.20548e-06 0.000565642 -0.238374)
(1.24257e-05 0.000565225 -0.238486)
(9.29174e-06 0.000594672 -0.241666)
(1.51771e-05 0.000604189 -0.241478)
(1.36686e-05 0.000627355 -0.241113)
(-5.506e-06 0.000639929 -0.240941)
(-2.46922e-05 0.000625855 -0.241128)
(-2.65608e-05 0.000603623 -0.24143)
(-1.59954e-05 0.000594916 -0.241584)
(-8.50461e-06 0.000606092 -0.241386)
(-1.11083e-05 0.000622212 -0.241044)
(-1.6431e-05 0.000610252 -0.24123)
(-1.67418e-06 0.000583641 -0.241793)
(1.25766e-05 0.000583403 -0.241896)
(1.15762e-05 0.000611777 -0.244833)
(1.65538e-05 0.000621765 -0.244658)
(1.46312e-05 0.000646014 -0.244319)
(-3.95749e-06 0.000659267 -0.244156)
(-2.2925e-05 0.000644483 -0.244328)
(-2.49791e-05 0.00062104 -0.244608)
(-1.49209e-05 0.000611972 -0.244754)
(-8.31329e-06 0.00062367 -0.244573)
(-1.0704e-05 0.000640271 -0.244256)
(-1.46777e-05 0.000627634 -0.24443)
(-2.16001e-08 0.000600141 -0.244951)
(1.27819e-05 0.000600102 -0.245045)
(1.40757e-05 0.00062722 -0.247737)
(1.80512e-05 0.00063769 -0.247577)
(1.56412e-05 0.000663008 -0.247265)
(-2.26597e-06 0.000676934 -0.247112)
(-2.08862e-05 0.00066144 -0.247268)
(-2.31045e-05 0.000636774 -0.247525)
(-1.35881e-05 0.000627354 -0.247662)
(-7.90698e-06 0.000639575 -0.247499)
(-1.00964e-05 0.000656616 -0.247209)
(-1.27179e-05 0.000643291 -0.247369)
(1.7466e-06 0.000614968 -0.247847)
(1.30505e-05 0.000615143 -0.247933)
(1.67847e-05 0.000640822 -0.25038)
(1.96669e-05 0.000651781 -0.250235)
(1.66946e-05 0.000678148 -0.24995)
(-4.39591e-07 0.000692739 -0.249809)
(-1.85759e-05 0.000676539 -0.249947)
(-2.09285e-05 0.00065064 -0.250181)
(-1.19811e-05 0.000640879 -0.250308)
(-7.25845e-06 0.000653628 -0.250164)
(-9.26511e-06 0.000671065 -0.249901)
(-1.05546e-05 0.000657039 -0.250047)
(3.62175e-06 0.000627934 -0.250482)
(1.339e-05 0.000628346 -0.250558)
(1.96915e-05 0.000652436 -0.252764)
(2.13947e-05 0.000663892 -0.252633)
(1.77867e-05 0.000691269 -0.252378)
(1.51054e-06 0.000706503 -0.252249)
(-1.59994e-05 0.000689605 -0.252369)
(-1.84474e-05 0.000662481 -0.252578)
(-1.00872e-05 0.0006524 -0.252695)
(-6.34193e-06 0.00066567 -0.25257)
(-8.19104e-06 0.000683446 -0.252335)
(-8.19529e-06 0.000668716 -0.252467)
(5.59285e-06 0.000638915 -0.252857)
(1.38076e-05 0.000639585 -0.252925)
(2.27769e-05 0.000661995 -0.254893)
(2.32252e-05 0.000673956 -0.254777)
(1.89121e-05 0.00070229 -0.254552)
(3.56922e-06 0.000718129 -0.254434)
(-1.31687e-05 0.000700551 -0.254537)
(-1.56631e-05 0.000672222 -0.254721)
(-7.89849e-06 0.000661844 -0.254828)
(-5.13411e-06 0.000675625 -0.254721)
(-6.85716e-06 0.000693675 -0.254515)
(-5.65071e-06 0.000678249 -0.254632)
(7.64573e-06 0.00064783 -0.254978)
(1.43101e-05 0.000648771 -0.255038)
(2.60138e-05 0.000669415 -0.256775)
(2.51444e-05 0.000681891 -0.256674)
(2.00645e-05 0.000711119 -0.256478)
(5.71841e-06 0.000727523 -0.256373)
(-1.01021e-05 0.000709285 -0.256457)
(-1.25841e-05 0.000679775 -0.256616)
(-5.41296e-06 0.000669126 -0.256713)
(-3.61581e-06 0.000683411 -0.256625)
(-5.25002e-06 0.000701672 -0.256447)
(-2.93529e-06 0.000685553 -0.25655)
(9.76462e-06 0.0006546 -0.256852)
(1.49032e-05 0.000655826 -0.256905)
(2.93668e-05 0.000674645 -0.25842)
(2.71332e-05 0.000687643 -0.258333)
(2.1236e-05 0.000717693 -0.258166)
(7.93672e-06 0.000734606 -0.258073)
(-6.82469e-06 0.000715732 -0.25814)
(-9.22663e-06 0.00068508 -0.258274)
(-2.63626e-06 0.000674191 -0.258361)
(-1.77454e-06 0.000688967 -0.258292)
(-3.36082e-06 0.000707372 -0.25814)
(-6.656e-08 0.000690574 -0.258229)
(1.19325e-05 0.000659178 -0.258489)
(1.5591e-05 0.000660701 -0.258536)
(3.27915e-05 0.000677673 -0.259839)
(2.91672e-05 0.000691201 -0.259766)
(2.2417e-05 0.000721987 -0.259626)
(1.01998e-05 0.000739343 -0.259545)
(-3.36826e-06 0.000719859 -0.259596)
(-5.61485e-06 0.000688113 -0.259706)
(4.16829e-07 0.000677021 -0.259783)
(3.93261e-07 0.000692275 -0.259731)
(-1.18692e-06 0.000710757 -0.259606)
(2.93483e-06 0.000693297 -0.25968)
(1.41313e-05 0.000661551 -0.259901)
(1.63753e-05 0.000663379 -0.259942)
(3.62346e-05 0.000678508 -0.261046)
(3.12159e-05 0.000692576 -0.260986)
(2.35957e-05 0.000724003 -0.260873)
(1.24803e-05 0.000741724 -0.260803)
(2.28848e-07 0.00072166 -0.260838)
(-1.78224e-06 0.000688881 -0.260926)
(3.72068e-06 0.000677623 -0.260993)
(2.87993e-06 0.000693342 -0.260958)
(1.26665e-06 0.000711834 -0.260857)
(6.04488e-06 0.000693736 -0.260918)
(1.6342e-05 0.000661734 -0.261102)
(1.72547e-05 0.000663868 -0.261138)
(3.96338e-05 0.000677187 -0.262056)
(3.32427e-05 0.000691802 -0.262009)
(2.47579e-05 0.000723767 -0.26192)
(1.47493e-05 0.000741765 -0.261861)
(3.92268e-06 0.000721152 -0.261881)
(2.22844e-06 0.000687408 -0.261948)
(7.23778e-06 0.000676028 -0.262007)
(5.66424e-06 0.000692196 -0.261987)
(3.98538e-06 0.000710638 -0.261908)
(9.23636e-06 0.000691931 -0.261957)
(1.85454e-05 0.000659761 -0.262107)
(1.82231e-05 0.000662203 -0.262138)
(4.29216e-05 0.000673796 -0.262887)
(3.52053e-05 0.000688959 -0.262851)
(2.58863e-05 0.000721346 -0.262785)
(1.69775e-05 0.000739522 -0.262736)
(7.66611e-06 0.000718396 -0.262743)
(6.36671e-06 0.00068377 -0.262789)
(1.09196e-05 0.000672313 -0.26284)
(8.70907e-06 0.00068891 -0.262834)
(6.9419e-06 0.000707238 -0.262775)
(1.2479e-05 0.00068796 -0.262814)
(2.07252e-05 0.000655724 -0.262932)
(1.92735e-05 0.000658475 -0.26296)
(4.60375e-05 0.000668489 -0.263557)
(3.7065e-05 0.000684203 -0.263532)
(2.69636e-05 0.000716889 -0.263485)
(1.91383e-05 0.000735136 -0.263445)
(1.14111e-05 0.000713533 -0.26344)
(1.05749e-05 0.000678118 -0.263469)
(1.47099e-05 0.000666635 -0.263513)
(1.19656e-05 0.000683638 -0.263519)
(1.00966e-05 0.000701796 -0.263477)
(1.57394e-05 0.000681993 -0.263506)
(2.28681e-05 0.00064978 -0.263598)
(2.03981e-05 0.000652835 -0.263623)
(4.89357e-05 0.000661424 -0.264089)
(3.88004e-05 0.000677686 -0.264072)
(2.79862e-05 0.000710548 -0.264042)
(2.12137e-05 0.000728755 -0.264009)
(1.51134e-05 0.000706709 -0.263995)
(1.48007e-05 0.000670604 -0.264009)
(1.85603e-05 0.000659145 -0.264047)
(1.53899e-05 0.000676532 -0.264063)
(1.34106e-05 0.000694473 -0.264036)
(1.89921e-05 0.000674191 -0.264056)
(2.49671e-05 0.000642086 -0.264125)
(2.15909e-05 0.000645436 -0.264149)
(5.15781e-05 0.000652773 -0.264504)
(4.03945e-05 0.000669583 -0.264495)
(2.89549e-05 0.000702497 -0.264478)
(2.31911e-05 0.000720549 -0.264452)
(1.87331e-05 0.000698092 -0.264429)
(1.8996e-05 0.0006614 -0.264431)
(2.24261e-05 0.000650014 -0.264464)
(1.89383e-05 0.000667765 -0.264487)
(1.68485e-05 0.00068545 -0.264474)
(2.22179e-05 0.00066474 -0.264487)
(2.70165e-05 0.000632816 -0.264537)
(2.28395e-05 0.000636448 -0.264558)
(5.39306e-05 0.000642698 -0.264821)
(4.18282e-05 0.000660054 -0.264817)
(2.98628e-05 0.000692903 -0.264812)
(2.50579e-05 0.000710684 -0.264791)
(2.22321e-05 0.000687846 -0.264762)
(2.3109e-05 0.000650667 -0.264754)
(2.62566e-05 0.000639404 -0.264782)
(2.25574e-05 0.000657501 -0.264812)
(2.03679e-05 0.000674905 -0.264808)
(2.53951e-05 0.00065382 -0.264816)
(2.90093e-05 0.000622137 -0.26485)
(2.41268e-05 0.000626031 -0.264871)
(5.59682e-05 0.000631347 -0.265056)
(4.30874e-05 0.000649246 -0.265058)
(3.07045e-05 0.000681917 -0.265061)
(2.6805e-05 0.000699315 -0.265044)
(2.55777e-05 0.00067612 -0.265011)
(2.70925e-05 0.000638557 -0.264995)
(3.00031e-05 0.000627463 -0.265019)
(2.6193e-05 0.000645891 -0.265054)
(2.39237e-05 0.000662998 -0.265058)
(2.85049e-05 0.000641593 -0.265061)
(3.0942e-05 0.0006102 -0.265083)
(2.54364e-05 0.000614333 -0.265102)
(5.76767e-05 0.000618858 -0.265226)
(4.41637e-05 0.000637294 -0.265232)
(3.14766e-05 0.000669685 -0.265242)
(2.84271e-05 0.00068659 -0.265228)
(2.87432e-05 0.000663059 -0.265191)
(3.09052e-05 0.00062521 -0.265169)
(3.36231e-05 0.00061433 -0.26519)
(2.97955e-05 0.000633074 -0.265229)
(2.74743e-05 0.00064988 -0.265239)
(3.15324e-05 0.000628211 -0.265238)
(3.28123e-05 0.000597146 -0.26525)
(2.67517e-05 0.000601493 -0.265269)
(5.90518e-05 0.000605355 -0.265343)
(4.50541e-05 0.000624323 -0.265352)
(3.21764e-05 0.000656337 -0.265367)
(2.9922e-05 0.000672647 -0.265355)
(3.1708e-05 0.000648795 -0.265316)
(3.45128e-05 0.000610756 -0.265289)
(3.70813e-05 0.00060013 -0.265308)
(3.33213e-05 0.000619178 -0.265349)
(3.09826e-05 0.00063569 -0.265365)
(3.44662e-05 0.000613812 -0.26536)
(3.46183e-05 0.000583104 -0.265365)
(2.80571e-05 0.000587639 -0.265382)
(6.00983e-05 0.000590947 -0.265419)
(4.57607e-05 0.000610438 -0.265431)
(3.2803e-05 0.000641991 -0.265448)
(3.129e-05 0.00065761 -0.265438)
(3.44568e-05 0.000633449 -0.265397)
(3.78884e-05 0.000595308 -0.265368)
(4.03501e-05 0.000584974 -0.265385)
(3.67352e-05 0.000604316 -0.265428)
(3.4418e-05 0.000620547 -0.265446)
(3.72978e-05 0.000598519 -0.26544)
(3.63585e-05 0.000568189 -0.265439)
(2.93382e-05 0.000572882 -0.265455)
(6.08272e-05 0.000575723 -0.265462)
(4.62898e-05 0.000595728 -0.265476)
(3.33572e-05 0.000626745 -0.265496)
(3.25332e-05 0.000641585 -0.265487)
(3.69791e-05 0.000617126 -0.265445)
(4.10115e-05 0.000578965 -0.265414)
(4.34095e-05 0.000568955 -0.265429)
(4.00107e-05 0.000588583 -0.265473)
(3.77561e-05 0.000604556 -0.265494)
(4.00216e-05 0.000582433 -0.265486)
(3.80309e-05 0.000552497 -0.26548)
(3.05833e-05 0.000557317 -0.265495)
(6.12536e-05 0.000559758 -0.265481)
(4.66499e-05 0.000580264 -0.265497)
(3.38407e-05 0.000610681 -0.265518)
(3.36542e-05 0.000624664 -0.265509)
(3.92677e-05 0.000599912 -0.265468)
(4.38673e-05 0.000561807 -0.265435)
(4.62459e-05 0.000552149 -0.26545)
(4.31297e-05 0.000572057 -0.265494)
(4.09796e-05 0.000587801 -0.265516)
(4.26334e-05 0.000565641 -0.265507)
(3.96332e-05 0.000536106 -0.265498)
(3.1783e-05 0.000541022 -0.265512)
(6.13944e-05 0.000543107 -0.265482)
(4.68513e-05 0.000564102 -0.265499)
(3.42559e-05 0.000593864 -0.26552)
(3.46557e-05 0.00060692 -0.265512)
(4.13172e-05 0.00058188 -0.265471)
(4.64445e-05 0.000543898 -0.265438)
(4.88502e-05 0.000534614 -0.265451)
(4.60804e-05 0.000554797 -0.265495)
(4.40759e-05 0.000570347 -0.265519)
(4.51299e-05 0.000548209 -0.265509)
(4.11624e-05 0.000519081 -0.265497)
(3.29308e-05 0.00052406 -0.265509)
(6.12659e-05 0.000525814 -0.265468)
(4.69038e-05 0.000547282 -0.265486)
(3.46054e-05 0.000576345 -0.265508)
(3.55391e-05 0.000588415 -0.2655)
(4.31228e-05 0.000563089 -0.265459)
(4.87339e-05 0.000525288 -0.265427)
(5.12157e-05 0.000516397 -0.265439)
(4.88552e-05 0.00053685 -0.265483)
(4.70364e-05 0.000552248 -0.265507)
(4.75078e-05 0.000530191 -0.265496)
(4.26149e-05 0.000501471 -0.265482)
(3.40223e-05 0.000506477 -0.265493)
(6.08826e-05 0.000507909 -0.265445)
(4.68166e-05 0.000529834 -0.265464)
(3.48912e-05 0.000558161 -0.265484)
(3.63046e-05 0.000569196 -0.265477)
(4.46793e-05 0.000543586 -0.265437)
(5.07269e-05 0.000506016 -0.265405)
(5.33363e-05 0.00049753 -0.265417)
(5.14487e-05 0.000518249 -0.26546)
(4.98542e-05 0.000533541 -0.265484)
(4.97627e-05 0.000511625 -0.265473)
(4.39861e-05 0.000483313 -0.265457)
(3.50547e-05 0.000488312 -0.265467)
(6.02569e-05 0.000489412 -0.265414)
(4.65977e-05 0.000511776 -0.265433)
(3.51145e-05 0.000539342 -0.265454)
(3.69506e-05 0.000549302 -0.265446)
(4.59803e-05 0.000523407 -0.265408)
(5.24139e-05 0.000486109 -0.265376)
(5.52053e-05 0.000478033 -0.265388)
(5.38558e-05 0.000499018 -0.26543)
(5.25229e-05 0.000514255 -0.265454)
(5.1889e-05 0.000492541 -0.265442)
(4.52702e-05 0.000464634 -0.265425)
(3.60258e-05 0.000469588 -0.265433)
(5.93987e-05 0.000470334 -0.265379)
(4.62534e-05 0.000493119 -0.265398)
(3.52758e-05 0.000519906 -0.265417)
(3.74742e-05 0.000528763 -0.26541)
(4.70181e-05 0.000502584 -0.265373)
(5.37844e-05 0.000465587 -0.265343)
(5.6814e-05 0.000457921 -0.265354)
(5.60698e-05 0.000479171 -0.265395)
(5.5035e-05 0.000494409 -0.265418)
(5.38791e-05 0.00047296 -0.265406)
(4.64604e-05 0.000445455 -0.265388)
(3.69333e-05 0.000450323 -0.265395)
(5.83157e-05 0.000450682 -0.26534)
(4.5789e-05 0.000473867 -0.265359)
(3.53749e-05 0.00049987 -0.265378)
(3.78714e-05 0.000507605 -0.26537)
(4.77842e-05 0.000481141 -0.265335)
(5.48263e-05 0.000444466 -0.265306)
(5.81513e-05 0.0004372 -0.265317)
(5.8082e-05 0.000458716 -0.265356)
(5.73818e-05 0.000474017 -0.265379)
(5.5724e-05 0.000452897 -0.265367)
(4.75489e-05 0.000425787 -0.265348)
(3.77745e-05 0.000430529 -0.265353)
(5.70143e-05 0.000430459 -0.265299)
(4.52087e-05 0.000454024 -0.265319)
(3.54112e-05 0.000479244 -0.265336)
(3.81379e-05 0.000485852 -0.265329)
(4.82699e-05 0.000459101 -0.265295)
(5.5527e-05 0.000422756 -0.265267)
(5.92048e-05 0.000415875 -0.265278)
(5.98818e-05 0.000437659 -0.265316)
(5.95527e-05 0.000453089 -0.265339)
(5.74132e-05 0.000432364 -0.265326)
(4.85273e-05 0.000405643 -0.265307)
(3.8546e-05 0.000410215 -0.26531)
(5.55002e-05 0.000409662 -0.265259)
(4.45166e-05 0.000433588 -0.265278)
(3.53846e-05 0.000458039 -0.265294)
(3.82699e-05 0.000463526 -0.265287)
(4.84671e-05 0.000436485 -0.265255)
(5.5874e-05 0.000400466 -0.265228)
(5.99604e-05 0.000393945 -0.265238)
(6.14564e-05 0.000416 -0.265275)
(6.15359e-05 0.000431631 -0.265297)