-0.0075 	0 	0 	0
-0.0075 	6.58795e-34 	-7.14397e-37 	-9.14184e-33
-0.00745622 	0.000865855 	-9.38932e-07 	-0.0120151
-0.00745622 	0.000865855 	-9.38932e-07 	-0.0120151
-0.00741165 	0.00125559 	-4.59163e-06 	-0.0235282
-0.00741165 	0.00125559 	-4.59163e-06 	-0.0235282
-0.00736628 	0.00136675 	-1.30956e-05 	-0.0348781
-0.00736628 	0.00136675 	-1.30956e-05 	-0.0348781
-0.0073201 	0.00144521 	-2.35644e-05 	-0.0462693
-0.0073201 	0.00144521 	-2.35644e-05 	-0.0462693
-0.00727309 	0.00153763 	-3.54014e-05 	-0.0576251
-0.00727309 	0.00153763 	-3.54014e-05 	-0.0576251
-0.00722524 	0.0016151 	-4.87145e-05 	-0.0687918
-0.00722524 	0.0016151 	-4.87145e-05 	-0.0687918
-0.00717653 	0.00166787 	-6.3328e-05 	-0.0796517
-0.00717653 	0.00166787 	-6.3328e-05 	-0.0796517
-0.00712695 	0.00169351 	-7.92343e-05 	-0.0901061
-0.00712695 	0.00169351 	-7.92343e-05 	-0.0901061
-0.00707647 	0.001693 	-9.63632e-05 	-0.100073
-0.00707647 	0.001693 	-9.63632e-05 	-0.100073
-0.0070251 	0.00167003 	-0.00011462 	-0.109495
-0.0070251 	0.00167003 	-0.00011462 	-0.109495
-0.0069728 	0.00162982 	-0.000133919 	-0.118352
-0.0069728 	0.00162982 	-0.000133919 	-0.118352
-0.00691956 	0.00157715 	-0.000153749 	-0.12666
-0.00691956 	0.00157715 	-0.000153749 	-0.12666
-0.00686537 	0.00151574 	-0.000173791 	-0.134452
-0.00686537 	0.00151574 	-0.000173791 	-0.134452
-0.00681021 	0.0014481 	-0.000194245 	-0.141764
-0.00681021 	0.0014481 	-0.000194245 	-0.141764
-0.00675406 	0.00137558 	-0.000215141 	-0.148633
-0.00675406 	0.00137558 	-0.000215141 	-0.148633
-0.0066969 	0.00129966 	-0.000236332 	-0.155095
-0.0066969 	0.00129966 	-0.000236332 	-0.155095
-0.00663871 	0.00122201 	-0.000257716 	-0.161179
-0.00663871 	0.00122201 	-0.000257716 	-0.161179
-0.00657949 	0.00114404 	-0.000279236 	-0.166914
-0.00657949 	0.00114404 	-0.000279236 	-0.166914
-0.0065192 	0.00106694 	-0.000300894 	-0.172322
-0.0065192 	0.00106694 	-0.000300894 	-0.172322
-0.00645783 	0.000991658 	-0.000322749 	-0.177429
-0.00645783 	0.000991658 	-0.000322749 	-0.177429
-0.00639535 	0.000918984 	-0.000344871 	-0.182254
-0.00639535 	0.000918984 	-0.000344871 	-0.182254
-0.00633176 	0.000849548 	-0.000367228 	-0.186814
-0.00633176 	0.000849548 	-0.000367228 	-0.186814
-0.00626703 	0.000783817 	-0.00038968 	-0.191122
-0.00626703 	0.000783817 	-0.00038968 	-0.191122
-0.00620114 	0.000722113 	-0.000411749 	-0.195191
-0.00620114 	0.000722113 	-0.000411749 	-0.195191
-0.00613406 	0.000664509 	-0.000432574 	-0.199043
-0.00613406 	0.000664509 	-0.000432574 	-0.199043
-0.00606579 	0.000610807 	-0.000452586 	-0.202715
-0.00606579 	0.000610807 	-0.000452586 	-0.202715
-0.00599629 	0.000561052 	-0.000475206 	-0.206259
-0.00599629 	0.000561052 	-0.000475206 	-0.206259
-0.00592554 	0.000516157 	-0.000504002 	-0.209731
-0.00592554 	0.000516157 	-0.000504002 	-0.209731
-0.00585352 	0.00047741 	-0.000535993 	-0.213149
-0.00585352 	0.00047741 	-0.000535993 	-0.213149
-0.00578022 	0.000444547 	-0.000560595 	-0.216473
-0.00578022 	0.000444547 	-0.000560595 	-0.216473
-0.00570559 	0.000413813 	-0.000571772 	-0.219627
-0.00570559 	0.000413813 	-0.000571772 	-0.219627
-0.00562963 	0.000379205 	-0.000580077 	-0.222563
-0.00562963 	0.000379205 	-0.000580077 	-0.222563
-0.00555231 	0.000337874 	-0.000602644 	-0.225296
-0.00555231 	0.000337874 	-0.000602644 	-0.225296
-0.0054736 	0.000293407 	-0.000640592 	-0.227892
-0.0054736 	0.000293407 	-0.000640592 	-0.227892
-0.00539348 	0.000251169 	-0.000677887 	-0.230428
-0.00539348 	0.000251169 	-0.000677887 	-0.230428
-0.00531193 	0.00021247 	-0.00070155 	-0.232963
-0.00531193 	0.00021247 	-0.00070155 	-0.232963
-0.00522891 	0.000176407 	-0.000714821 	-0.235488
-0.00522891 	0.000176407 	-0.000714821 	-0.235488
-0.0051444 	0.000143837 	-0.000730127 	-0.237925
-0.0051444 	0.000143837 	-0.000730127 	-0.237925
-0.00505838 	0.000116617 	-0.000751992 	-0.240228
-0.00505838 	0.000116617 	-0.000751992 	-0.240228
-0.00497081 	9.46125e-05 	-0.000776735 	-0.242417
-0.00497081 	9.46125e-05 	-0.000776735 	-0.242417
-0.00488168 	7.47796e-05 	-0.000800733 	-0.244528
-0.00488168 	7.47796e-05 	-0.000800733 	-0.244528
-0.00479094 	5.40965e-05 	-0.00082223 	-0.246583
-0.00479094 	5.40965e-05 	-0.00082223 	-0.246583
-0.00469858 	3.14163e-05 	-0.000842553 	-0.248585
-0.00469858 	3.14163e-05 	-0.000842553 	-0.248585
-0.00460456 	6.28575e-06 	-0.000863092 	-0.250538
-0.00460456 	6.28575e-06 	-0.000863092 	-0.250538
-0.00450886 	-2.16798e-05 	-0.000883079 	-0.252445
-0.00450886 	-2.16798e-05 	-0.000883079 	-0.252445
-0.00441144 	-5.22382e-05 	-0.000899834 	-0.254307
-0.00441144 	-5.22382e-05 	-0.000899834 	-0.254307
-0.00431227 	-8.24047e-05 	-0.000912928 	-0.256108
-0.00431227 	-8.24047e-05 	-0.000912928 	-0.256108
-0.00421133 	-0.000105576 	-0.00092725 	-0.257818
-0.00421133 	-0.000105576 	-0.00092725 	-0.257818
-0.00410857 	-0.000117791 	-0.000948121 	-0.259449
-0.00410857 	-0.000117791 	-0.000948121 	-0.259449
-0.00400397 	-0.000132278 	-0.000976058 	-0.261152
-0.00400397 	-0.000132278 	-0.000976058 	-0.261152
-0.0038975 	-0.00018543 	-0.000996491 	-0.263184
-0.0038975 	-0.00018543 	-0.000996491 	-0.263184
-0.00378912 	-0.000293503 	-0.000997793 	-0.265527
-0.00378912 	-0.000293503 	-0.000997793 	-0.265527
-0.00367879 	-0.000420054 	-0.000995856 	-0.267777
-0.00367879 	-0.000420054 	-0.000995856 	-0.267777
-0.00356649 	-0.000528165 	-0.00100554 	-0.269704
-0.00356649 	-0.000528165 	-0.00100554 	-0.269704
-0.00345217 	-0.000614583 	-0.00102598 	-0.271413
-0.00345217 	-0.000614583 	-0.00102598 	-0.271413
-0.0033358 	-0.00069396 	-0.00104751 	-0.27303
-0.0033358 	-0.00069396 	-0.00104751 	-0.27303
-0.00321735 	-0.000782054 	-0.00106149 	-0.274615
-0.00321735 	-0.000782054 	-0.00106149 	-0.274615
-0.00309677 	-0.000885101 	-0.00107132 	-0.276174
-0.00309677 	-0.000885101 	-0.00107132 	-0.276174
-0.00297403 	-0.00100328 	-0.00107923 	-0.277705
-0.00297403 	-0.00100328 	-0.00107923 	-0.277705
-0.00284909 	-0.00113404 	-0.00108367 	-0.279205
-0.00284909 	-0.00113404 	-0.00108367 	-0.279205
-0.0027219 	-0.00127369 	-0.00108472 	-0.280662
-0.0027219 	-0.00127369 	-0.00108472 	-0.280662
-0.00259244 	-0.00141811 	-0.00108354 	-0.28206
-0.00259244 	-0.00141811 	-0.00108354 	-0.28206
-0.00246065 	-0.00156429 	-0.00108337 	-0.283382
-0.00246065 	-0.00156429 	-0.00108337 	-0.283382
-0.00232651 	-0.00171633 	-0.00108442 	-0.284653
-0.00232651 	-0.00171633 	-0.00108442 	-0.284653
-0.00218995 	-0.0018865 	-0.00108029 	-0.285939
-0.00218995 	-0.0018865 	-0.00108029 	-0.285939
-0.00205095 	-0.00208032 	-0.0010654 	-0.287256
-0.00205095 	-0.00208032 	-0.0010654 	-0.287256
-0.00190946 	-0.00228189 	-0.00104266 	-0.288505
-0.00190946 	-0.00228189 	-0.00104266 	-0.288505
-0.00176543 	-0.00246279 	-0.0010201 	-0.289558
-0.00176543 	-0.00246279 	-0.0010201 	-0.289558
-0.00161881 	-0.00260521 	-0.00100281 	-0.290358
-0.00161881 	-0.00260521 	-0.00100281 	-0.290358
-0.00146957 	-0.00272578 	-0.000992131 	-0.291003
-0.00146957 	-0.00272578 	-0.000992131 	-0.291003
-0.00131765 	-0.00290143 	-0.000979727 	-0.291894
-0.00131765 	-0.00290143 	-0.000979727 	-0.291894
-0.001163 	-0.00320813 	-0.000938575 	-0.293434
-0.001163 	-0.00320813 	-0.000938575 	-0.293434
-0.00100559 	-0.00354664 	-0.000880728 	-0.295009
-0.00100559 	-0.00354664 	-0.000880728 	-0.295009
-0.000845345 	-0.0037983 	-0.000847108 	-0.295933
-0.000845345 	-0.0037983 	-0.000847108 	-0.295933
-0.000682232 	-0.00397061 	-0.00082515 	-0.296354
-0.000682232 	-0.00397061 	-0.00082515 	-0.296354
-0.000516194 	-0.00409061 	-0.000789221 	-0.296484
-0.000516194 	-0.00409061 	-0.000789221 	-0.296484
-0.000347178 	-0.00418587 	-0.000739888 	-0.296436
-0.000347178 	-0.00418587 	-0.000739888 	-0.296436
-0.000175132 	-0.00426133 	-0.000665706 	-0.29621
-0.000175132 	-0.00426133 	-0.000665706 	-0.29621
0 	-0.00430879 	-0.000584746 	-0.295774
0 	-0.00430879 	-0.000584746 	-0.295774
0 	-0.00430879 	-0.000584746 	-0.295774
0 	-0.00430879 	-0.000584746 	-0.295774
0.000175132 	-0.00432229 	-0.000520211 	-0.295125
0.000175132 	-0.00882328 	0.022539 	-0.286242
0.000347178 	-0.00430271 	-0.00048835 	-0.29429
0.000347178 	-0.00863482 	0.0230312 	-0.285983
0.000516194 	-0.0042665 	-0.000536336 	-0.293331
0.000516194 	-0.00839091 	0.0233983 	-0.285694
0.000682232 	-0.00426546 	-0.000579553 	-0.292341
0.000682232 	-0.00814867 	0.0237156 	-0.285376
0.000845345 	-0.00433852 	-0.000394532 	-0.291305
0.000845345 	-0.00796984 	0.0240184 	-0.285049
0.00100559 	-0.00434722 	3.26906e-05 	-0.289882
0.00100559 	-0.00787046 	0.0242979 	-0.284849
0.001163 	-0.00397311 	0.000191142 	-0.287547
0.001163 	-0.00781014 	0.0245314 	-0.284801
0.00131765 	-0.00327154 	-0.000113475 	-0.284552
0.00131765 	-0.00773654 	0.0247154 	-0.284702
0.00146957 	-0.00266516 	-0.000367495 	-0.281722
0.00146957 	-0.00761237 	0.0248597 	-0.284415
0.00161881 	-0.00235943 	-0.000316429 	-0.279539
0.00161881 	-0.00743374 	0.0249706 	-0.283982
0.00176543 	-0.0022951 	-0.000141787 	-0.277965
0.00176543 	-0.00722806 	0.0250541 	-0.283461
0.00190946 	-0.00232302 	-4.06305e-05 	-0.276609
0.00190946 	-0.0070147 	0.025114 	-0.282885
0.00205095 	-0.00235389 	-2.96761e-05 	-0.275217
0.00205095 	-0.00678398 	0.0251531 	-0.282267
0.00218995 	-0.00237676 	-1.9905e-05 	-0.273753
0.00218995 	-0.00651483 	0.0251742 	-0.28162
0.00232651 	-0.00239251 	1.28058e-05 	-0.272232
0.00232651 	-0.00619296 	0.0251803 	-0.280953
0.00246065 	-0.00238787 	3.58744e-05 	-0.270632
0.00246065 	-0.00580863 	0.0251714 	-0.280278
0.00259244 	-0.00235174 	4.22674e-05 	-0.268928
0.00259244 	-0.00535433 	0.0251447 	-0.279594
0.0027219 	-0.00229124 	5.24819e-05 	-0.267173
0.0027219 	-0.00482973 	0.0251052 	-0.278859
0.00284909 	-0.00222087 	8.52841e-05 	-0.26548
0.00284909 	-0.00424244 	0.0250649 	-0.278046
0.00297403 	-0.00213669 	0.00013023 	-0.263874
0.00297403 	-0.00359897 	0.0250229 	-0.27728
0.00309677 	-0.00202134 	0.000166117 	-0.262281
0.00309677 	-0.00289752 	0.0249521 	-0.276769
0.00321735 	-0.0018653 	0.000218249 	-0.260645
0.00321735 	-0.00214544 	0.0248434 	-0.276399
0.0033358 	-0.00166615 	0.000243177 	-0.25896
0.0033358 	-0.00136404 	0.0247194 	-0.275833
0.00345217 	-0.00146457 	0.000130627 	-0.257252
0.00345217 	-0.000577939 	0.024591 	-0.274986
0.00356649 	-0.00139428 	-1.83781e-05 	-0.255582
0.00356649 	0.000160658 	0.0244314 	-0.273957
0.00367879 	-0.00155821 	2.31921e-05 	-0.253987
0.00367879 	0.000772873 	0.0242693 	-0.272841
0.00378912 	0.00116674 	0.0241892 	-0.271657
0.00378912 	-0.00177602 	0.000429636 	-0.252333
0.0038975 	-0.00139401 	0.000887407 	-0.250218
0.0038975 	0.00126167 	0.0241115 	-0.270355
0.00400397 	4.47155e-05 	0.000751703 	-0.247443
0.00400397 	0.00113441 	0.0238334 	-0.268893
0.00410857 	0.00183751 	0.00030128 	-0.244578
0.00410857 	0.0011416 	0.0232059 	-0.267397
0.00421133 	0.00313365 	0.000125877 	-0.242141
0.00421133 	0.00195623 	0.0225062 	-0.266257
0.00431227 	0.00380806 	0.000235786 	-0.240026
0.00431227 	0.00390003 	0.0222541 	-0.26566
0.00441144 	0.0040686 	0.000379893 	-0.238031
0.00441144 	0.00610063 	0.022188 	-0.265051
0.00450886 	0.00421405 	0.000364873 	-0.23604
0.00450886 	0.0076436 	0.0218316 	-0.263929
0.00460456 	0.00437033 	0.000309561 	-0.234018
0.00460456 	0.00847706 	0.0212288 	-0.262383
0.00469858 	0.00454246 	0.000294037 	-0.23196
0.00469858 	0.00891257 	0.0206109 	-0.260647
0.00479094 	0.00472581 	0.000278535 	-0.229865
0.00479094 	0.00928823 	0.0201234 	-0.258975
0.00488168 	0.00491432 	0.000256429 	-0.227729
0.00488168 	0.00971463 	0.0196499 	-0.257527
0.00497081 	0.00510306 	0.000230241 	-0.225551
0.00497081 	0.0101769 	0.0191233 	-0.256213
0.00505838 	0.00528885 	0.000203931 	-0.223326
0.00505838 	0.0106571 	0.0185936 	-0.254768
0.0051444 	0.00546955 	0.000178634 	-0.221048
0.0051444 	0.0111382 	0.018073 	-0.253054
0.00522891 	0.00564366 	0.00015372 	-0.218711
0.00522891 	0.0116102 	0.0175557 	-0.251119
0.00531193 	0.0120729 	0.0170369 	-0.249051
0.00531193 	0.00581009 	0.000129526 	-0.216308
0.00539348 	0.00596802 	0.000106777 	-0.213832
0.00539348 	0.0125308 	0.0165168 	-0.246903
0.0054736 	0.00611688 	8.47708e-05 	-0.211276
0.0054736 	0.0129886 	0.0159944 	-0.244687
0.00555231 	0.00625571 	6.25825e-05 	-0.208632
0.00555231 	0.0134487 	0.0154634 	-0.242394
0.00562963 	0.00638239 	3.92844e-05 	-0.205887
0.00562963 	0.0139097 	0.0149194 	-0.240003
0.00570559 	0.0064923 	1.52254e-05 	-0.20303
0.00570559 	0.0143639 	0.0143694 	-0.237488
0.00578022 	0.00657846 	-6.85493e-06 	-0.200046
0.00578022 	0.0147982 	0.0138231 	-0.234822
0.00585352 	0.0066353 	-2.57286e-05 	-0.196921
0.00585352 	0.0151994 	0.0132794 	-0.231981
0.00592554 	0.00666109 	-4.1406e-05 	-0.193635
0.00592554 	0.0155594 	0.0127355 	-0.228948
0.00599629 	0.00665856 	-5.51138e-05 	-0.190167
0.00599629 	0.0158772 	0.0121902 	-0.22571
0.00606579 	0.0161583 	0.0116443 	-0.222254
0.00606579 	0.00663349 	-6.82807e-05 	-0.186487
0.00613406 	0.00659122 	-7.95882e-05 	-0.182563
0.00613406 	0.0164104 	0.0111007 	-0.218559
0.00620114 	0.00653579 	-8.82115e-05 	-0.17836
0.00620114 	0.0166378 	0.0105589 	-0.214595
0.00626703 	0.00647034 	-9.44909e-05 	-0.173851
0.00626703 	0.016842 	0.0100182 	-0.210327
0.00633176 	0.00639704 	-9.86059e-05 	-0.169026
0.00633176 	0.0170243 	0.00947828 	-0.205721
0.00639535 	0.00631781 	-0.000100818 	-0.163875
0.00639535 	0.0171853 	0.0089383 	-0.200737
0.00645783 	0.00623409 	-0.000101088 	-0.158374
0.00645783 	0.017324 	0.0083983 	-0.195336
0.0065192 	0.00614532 	-9.95991e-05 	-0.152498
0.0065192 	0.0174347 	0.00785866 	-0.189477
0.00657949 	0.00604611 	-9.70382e-05 	-0.146223
0.00657949 	0.017505 	0.00731911 	-0.183111
0.00663871 	0.00592412 	-9.33699e-05 	-0.139529
0.00663871 	0.017516 	0.0067811 	-0.176185
0.0066969 	0.00576453 	-8.7439e-05 	-0.132401
0.0066969 	0.0174443 	0.00624779 	-0.168651
0.00675406 	0.00555837 	-7.89328e-05 	-0.124821
0.00675406 	0.0172653 	0.00571766 	-0.160474
0.00681021 	0.0053068 	-6.95091e-05 	-0.11677
0.00681021 	0.0169558 	0.00518563 	-0.151609
0.00686537 	0.00502024 	-6.09982e-05 	-0.108257
0.00686537 	0.0164925 	0.00465152 	-0.141978
0.00691956 	0.00471143 	-5.32579e-05 	-0.0993279
0.00691956 	0.0158541 	0.00412447 	-0.131517
0.0069728 	0.00438929 	-4.55373e-05 	-0.0900759
0.0069728 	0.0150256 	0.00361459 	-0.120239
0.0070251 	0.00405956 	-3.83583e-05 	-0.0806342
0.0070251 	0.0139988 	0.00312559 	-0.108249
0.00707647 	0.00372507 	-3.23941e-05 	-0.0711627
0.00707647 	0.0127776 	0.00266063 	-0.0957466
0.00712695 	0.00338409 	-2.77266e-05 	-0.061821
0.00712695 	0.0113843 	0.00222447 	-0.0830149
0.00717653 	0.00302926 	-2.43792e-05 	-0.0527421
0.00717653 	0.00986098 	0.00181968 	-0.0703681
0.00722524 	0.00264595 	-2.23378e-05 	-0.0440145
0.00722524 	0.00826685 	0.00144297 	-0.0580911
0.00727309 	0.00220766 	-2.15117e-05 	-0.0356815
0.00727309 	0.006674 	0.00109814 	-0.0463992
0.0073201 	0.00166701 	-2.17798e-05 	-0.0277532
0.0073201 	0.0051669 	0.000809761 	-0.0354455
0.00736628 	0.000941044 	-1.86626e-05 	-0.0202192
0.00736628 	0.00385149 	0.00046823 	-0.0253653
0.00741165 	0.000144321 	-1.45115e-05 	-0.0130834
0.00741165 	0.00270912 	0.000279824 	-0.0162613
0.00745622 	-0.000262932 	-8.52849e-06 	-0.00636621
0.00745622 	0.00149089 	0.000128209 	-0.00796908
0.0075 	0 	0 	0
0.0075 	0 	0 	0
