0 	0 	0 	0
0 	-4.71134e-37 	-2.91803e-36 	1.85062e-31
5.01672e-05 	-1.48789e-07 	-3.14144e-07 	0.0172642
5.01672e-05 	-1.48789e-07 	-3.14144e-07 	0.0172642
0.000100334 	-1.05714e-06 	-9.91354e-07 	0.0332191
0.000150502 	-2.04642e-06 	-2.08296e-06 	0.0480374
0.000150502 	-2.04642e-06 	-2.08296e-06 	0.0480374
0.000200669 	-2.85913e-06 	-3.57908e-06 	0.0618019
0.000200669 	-2.85913e-06 	-3.57908e-06 	0.0618019
0.000250836 	-3.54274e-06 	-5.4926e-06 	0.0745875
0.000301003 	-4.15147e-06 	-7.8112e-06 	0.086457
0.000301003 	-4.15147e-06 	-7.8112e-06 	0.086457
0.000351171 	-4.70342e-06 	-1.05321e-05 	0.0974516
0.000401338 	-5.2052e-06 	-1.36619e-05 	0.107591
0.000451505 	-5.65858e-06 	-1.72238e-05 	0.116888
0.000451505 	-5.65858e-06 	-1.72238e-05 	0.116888
0.000501672 	-6.06322e-06 	-2.12542e-05 	0.125369
0.000551839 	-6.41846e-06 	-2.57909e-05 	0.133079
0.000551839 	-6.41846e-06 	-2.57909e-05 	0.133079
0.000602007 	-6.72441e-06 	-3.0863e-05 	0.14008
0.000602007 	-6.72441e-06 	-3.0863e-05 	0.14008
0.000652174 	-6.9825e-06 	-3.64919e-05 	0.146443
0.000652174 	-6.9825e-06 	-3.64919e-05 	0.146443
0.000702341 	-7.19546e-06 	-4.26967e-05 	0.15224
0.000702341 	-7.19546e-06 	-4.26967e-05 	0.15224
0.000752508 	-7.36679e-06 	-4.94934e-05 	0.157542
0.000802676 	-7.49972e-06 	-5.68968e-05 	0.162404
0.000852843 	-7.59264e-06 	-6.50037e-05 	0.166818
0.000852843 	-7.59264e-06 	-6.50037e-05 	0.166818
0.00090301 	-7.6547e-06 	-7.36865e-05 	0.170896
0.00090301 	-7.6547e-06 	-7.36865e-05 	0.170896
0.000953177 	-7.68893e-06 	-8.28947e-05 	0.174675
0.00100334 	-7.69819e-06 	-9.25762e-05 	0.178192
0.00100334 	-7.69819e-06 	-9.25762e-05 	0.178192
0.00105351 	-7.68512e-06 	-0.000102681 	0.18148
0.00105351 	-7.68512e-06 	-0.000102681 	0.18148
0.00110368 	-7.65171e-06 	-0.000113172 	0.18456
0.00115385 	-7.59568e-06 	-0.000124091 	0.187412
0.00120401 	-7.52489e-06 	-0.000135286 	0.190114
0.00120401 	-7.52489e-06 	-0.000135286 	0.190114
0.00130435 	-7.34519e-06 	-0.000158369 	0.195124
0.00130435 	-7.34519e-06 	-0.000158369 	0.195124
0.00135452 	-7.23578e-06 	-0.000170245 	0.197425
0.00135452 	-7.23578e-06 	-0.000170245 	0.197425
0.00140468 	-7.11585e-06 	-0.000182275 	0.199617
0.00145485 	-6.98774e-06 	-0.000194408 	0.201725
0.00145485 	-6.98774e-06 	-0.000194408 	0.201725
0.00150502 	-6.85206e-06 	-0.000206627 	0.203756
0.00150502 	-6.85206e-06 	-0.000206627 	0.203756
0.00155518 	-6.70537e-06 	-0.000218929 	0.205679
0.00155518 	-6.70537e-06 	-0.000218929 	0.205679
0.00160535 	-6.55244e-06 	-0.000231246 	0.207542
0.00160535 	-6.55244e-06 	-0.000231246 	0.207542
0.00165552 	-6.39403e-06 	-0.000243567 	0.209351
0.00165552 	-6.39403e-06 	-0.000243567 	0.209351
0.00170569 	-6.22843e-06 	-0.000255855 	0.21109
0.00170569 	-6.22843e-06 	-0.000255855 	0.21109
0.00175585 	-6.05739e-06 	-0.000268066 	0.212773
0.00175585 	-6.05739e-06 	-0.000268066 	0.212773
0.00180602 	-5.8827e-06 	-0.000280208 	0.214419
0.00180602 	-5.8827e-06 	-0.000280208 	0.214419
0.00185619 	-5.70297e-06 	-0.000292217 	0.216011
0.00185619 	-5.70297e-06 	-0.000292217 	0.216011
0.00190635 	-5.51909e-06 	-0.000304057 	0.217557
0.00190635 	-5.51909e-06 	-0.000304057 	0.217557
0.00195652 	-5.33267e-06 	-0.00031578 	0.219076
0.00195652 	-5.33267e-06 	-0.00031578 	0.219076
0.00200669 	-5.14204e-06 	-0.000327259 	0.220546
0.00200669 	-5.14204e-06 	-0.000327259 	0.220546
0.00205686 	-4.94868e-06 	-0.000338525 	0.221984
0.00210702 	-4.7535e-06 	-0.000349648 	0.223401
0.00210702 	-4.7535e-06 	-0.000349648 	0.223401
0.00215719 	-4.55441e-06 	-0.000360368 	0.224768
0.00220736 	-4.35399e-06 	-0.000370913 	0.226118
0.00225753 	-4.15144e-06 	-0.000381176 	0.227438
0.00225753 	-4.15144e-06 	-0.000381176 	0.227438
0.00230769 	-3.9467e-06 	-0.000391071 	0.228727
0.00230769 	-3.9467e-06 	-0.000391071 	0.228727
0.00235786 	-3.74103e-06 	-0.000400806 	0.230001
0.00235786 	-3.74103e-06 	-0.000400806 	0.230001
0.00240803 	-3.53291e-06 	-0.000410021 	0.231235
0.00240803 	-3.53291e-06 	-0.000410021 	0.231235
0.00245819 	-3.32407e-06 	-0.000419044 	0.232455
0.00245819 	-3.32407e-06 	-0.000419044 	0.232455
0.00250836 	-3.11378e-06 	-0.000427678 	0.233648
0.00250836 	-3.11378e-06 	-0.000427678 	0.233648
0.00255853 	-2.90243e-06 	-0.000435955 	0.234818
0.0026087 	-2.69033e-06 	-0.000443979 	0.235971
0.0026087 	-2.69033e-06 	-0.000443979 	0.235971
0.00265886 	-2.477e-06 	-0.000451488 	0.237092
0.00270903 	-2.26338e-06 	-0.000458875 	0.238206
0.00270903 	-2.26338e-06 	-0.000458875 	0.238206
0.0027592 	-2.04841e-06 	-0.000465604 	0.239281
0.00280936 	-1.83323e-06 	-0.000472226 	0.24035
0.00280936 	-1.83323e-06 	-0.000472226 	0.24035
0.00285953 	-1.61694e-06 	-0.00047828 	0.241386
0.00285953 	-1.61694e-06 	-0.00047828 	0.241386
0.0029097 	-1.40027e-06 	-0.00048414 	0.242411
0.0029097 	-1.40027e-06 	-0.00048414 	0.242411
0.00295987 	-1.18263e-06 	-0.000489515 	0.243408
0.00295987 	-1.18263e-06 	-0.000489515 	0.243408
0.00301003 	-9.64456e-07 	-0.000494638 	0.244391
0.0030602 	-7.45412e-07 	-0.000499346 	0.24535
0.00311037 	-5.25796e-07 	-0.000503777 	0.246293
0.00311037 	-5.25796e-07 	-0.000503777 	0.246293
0.00316054 	-3.05439e-07 	-0.000507848 	0.247214
0.00316054 	-3.05439e-07 	-0.000507848 	0.247214
0.00326087 	1.36937e-07 	-0.000515122 	0.249
0.00326087 	1.36937e-07 	-0.000515122 	0.249
0.00331104 	3.58995e-07 	-0.000518356 	0.249865
0.0033612 	5.81753e-07 	-0.000521289 	0.25071
0.0033612 	5.81753e-07 	-0.000521289 	0.25071
0.00341137 	8.05366e-07 	-0.000524029 	0.251539
0.00341137 	8.05366e-07 	-0.000524029 	0.251539
0.00346154 	1.03027e-06 	-0.000526477 	0.252345
0.00346154 	1.03027e-06 	-0.000526477 	0.252345
0.00351171 	1.25625e-06 	-0.000528792 	0.25314
0.00356187 	1.48458e-06 	-0.000530814 	0.253909
0.00356187 	1.48458e-06 	-0.000530814 	0.253909
0.00361204 	1.71366e-06 	-0.000532765 	0.254671
0.00366221 	1.94593e-06 	-0.000534415 	0.255405
0.00366221 	1.94593e-06 	-0.000534415 	0.255405
0.00371237 	2.1783e-06 	-0.000536055 	0.256138
0.00371237 	2.1783e-06 	-0.000536055 	0.256138
0.00376254 	2.41381e-06 	-0.000537376 	0.256839
0.00376254 	2.41381e-06 	-0.000537376 	0.256839
0.00381271 	2.64932e-06 	-0.000538697 	0.257541
0.00381271 	2.64932e-06 	-0.000538697 	0.257541
0.00386288 	2.88646e-06 	-0.000539775 	0.258215
0.00391304 	3.12394e-06 	-0.000540805 	0.258884
0.00391304 	3.12394e-06 	-0.000540805 	0.258884
0.00396321 	3.36198e-06 	-0.000541682 	0.259534
0.00401338 	3.6004e-06 	-0.000542454 	0.260171
0.00401338 	3.6004e-06 	-0.000542454 	0.260171
0.00406355 	3.83891e-06 	-0.000543156 	0.260798
0.00406355 	3.83891e-06 	-0.000543156 	0.260798
0.00411371 	4.07762e-06 	-0.000543705 	0.261402
0.00411371 	4.07762e-06 	-0.000543705 	0.261402
0.00421405 	4.55472e-06 	-0.000544618 	0.26258
0.00421405 	4.55472e-06 	-0.000544618 	0.26258
0.00426421 	4.7931e-06 	-0.00054498 	0.263152
0.00426421 	4.7931e-06 	-0.00054498 	0.263152
0.00431438 	5.03083e-06 	-0.000545246 	0.263704
0.00431438 	5.03083e-06 	-0.000545246 	0.263704
0.00436455 	5.26818e-06 	-0.000545455 	0.264245
0.00436455 	5.26818e-06 	-0.000545455 	0.264245
0.00441472 	5.50511e-06 	-0.000545638 	0.264777
0.00441472 	5.50511e-06 	-0.000545638 	0.264777
0.00446488 	5.74065e-06 	-0.000545731 	0.265285
0.00446488 	5.74065e-06 	-0.000545731 	0.265285
0.00451505 	5.97618e-06 	-0.000545824 	0.265793
0.00451505 	5.97618e-06 	-0.000545824 	0.265793
0.00456522 	6.20958e-06 	-0.000545852 	0.266276
0.00456522 	6.20958e-06 	-0.000545852 	0.266276
0.00461538 	6.44238e-06 	-0.000545862 	0.266751
0.00461538 	6.44238e-06 	-0.000545862 	0.266751
0.00466555 	6.67411e-06 	-0.000545857 	0.267218
0.00471572 	6.9032e-06 	-0.000545817 	0.267661
0.00476589 	7.13229e-06 	-0.000545777 	0.268104
0.00476589 	7.13229e-06 	-0.000545777 	0.268104
0.00486622 	7.58219e-06 	-0.000545663 	0.268934
0.00486622 	7.58219e-06 	-0.000545663 	0.268934
0.00491639 	7.80556e-06 	-0.000545605 	0.269339
0.00496656 	8.02422e-06 	-0.000545553 	0.269717
0.00496656 	8.02422e-06 	-0.000545553 	0.269717
0.00501672 	8.24289e-06 	-0.000545501 	0.270096
0.00506689 	8.45785e-06 	-0.000545466 	0.270457
0.00511706 	8.66977e-06 	-0.000545444 	0.270803
0.00511706 	8.66977e-06 	-0.000545444 	0.270803
0.00521739 	9.0868e-06 	-0.000545443 	0.271468
0.00521739 	9.0868e-06 	-0.000545443 	0.271468
0.00526756 	9.29093e-06 	-0.00054547 	0.271783
0.00526756 	9.29093e-06 	-0.00054547 	0.271783
0.00531773 	9.49371e-06 	-0.000545506 	0.272093
0.00536789 	9.68903e-06 	-0.000545594 	0.272376
0.00536789 	9.68903e-06 	-0.000545594 	0.272376
0.00541806 	9.88435e-06 	-0.000545681 	0.272659
0.00546823 	1.00759e-05 	-0.000545794 	0.27293
0.00551839 	1.02615e-05 	-0.000545948 	0.273182
0.00551839 	1.02615e-05 	-0.000545948 	0.273182
0.00556856 	1.04471e-05 	-0.000546103 	0.273434
0.00556856 	1.04471e-05 	-0.000546103 	0.273434
0.0056689 	1.08015e-05 	-0.000546518 	0.273891
0.0056689 	1.08015e-05 	-0.000546518 	0.273891
0.00571906 	1.09764e-05 	-0.000546741 	0.274112
0.00576923 	1.1143e-05 	-0.000547006 	0.274314
0.00576923 	1.1143e-05 	-0.000547006 	0.274314
0.0058194 	1.13059e-05 	-0.000547291 	0.274506
0.0058194 	1.13059e-05 	-0.000547291 	0.274506
0.00591973 	1.16215e-05 	-0.000547901 	0.274868
0.00591973 	1.16215e-05 	-0.000547901 	0.274868
0.0059699 	1.1771e-05 	-0.000548237 	0.275031
0.0059699 	1.1771e-05 	-0.000548237 	0.275031
0.00602007 	1.19205e-05 	-0.000548573 	0.275194
0.00607023 	1.2058e-05 	-0.000548937 	0.275336
0.0061204 	1.21923e-05 	-0.000549308 	0.275471
0.0061204 	1.21923e-05 	-0.000549308 	0.275471
0.00617057 	1.23267e-05 	-0.00054968 	0.275607
0.00622074 	1.24482e-05 	-0.000550063 	0.275722
0.00622074 	1.24482e-05 	-0.000550063 	0.275722
0.0062709 	1.25657e-05 	-0.000550451 	0.275831
0.00632107 	1.26832e-05 	-0.000550838 	0.27594
0.00632107 	1.26832e-05 	-0.000550838 	0.27594
0.00637124 	1.2788e-05 	-0.000551224 	0.276031
0.00637124 	1.2788e-05 	-0.000551224 	0.276031
0.0064214 	1.2887e-05 	-0.000551609 	0.276114
0.0064214 	1.2887e-05 	-0.000551609 	0.276114
0.00647157 	1.29859e-05 	-0.000551994 	0.276197
0.00647157 	1.29859e-05 	-0.000551994 	0.276197
0.00652174 	1.30736e-05 	-0.000552357 	0.276266
0.00657191 	1.31519e-05 	-0.000552701 	0.276323
0.00657191 	1.31519e-05 	-0.000552701 	0.276323
0.00662207 	1.32302e-05 	-0.000553045 	0.276381
0.00667224 	1.33006e-05 	-0.000553374 	0.27643
0.00672241 	1.33562e-05 	-0.000553675 	0.276463
0.00672241 	1.33562e-05 	-0.000553675 	0.276463
0.00677258 	1.34119e-05 	-0.000553976 	0.276496
0.00682274 	1.34651e-05 	-0.000554274 	0.276526
0.00682274 	1.34651e-05 	-0.000554274 	0.276526
0.00687291 	1.34958e-05 	-0.00055454 	0.276535
0.00687291 	1.34958e-05 	-0.00055454 	0.276535
0.00692308 	1.35265e-05 	-0.000554805 	0.276543
0.00697324 	1.35572e-05 	-0.000555071 	0.276552
0.00702341 	1.35664e-05 	-0.000555275 	0.276542
0.00707358 	1.357e-05 	-0.000555461 	0.276526
0.00707358 	1.357e-05 	-0.000555461 	0.276526
0.00717391 	1.35639e-05 	-0.00055582 	0.276485
0.00717391 	1.35639e-05 	-0.00055582 	0.276485
0.00722408 	1.35363e-05 	-0.000555971 	0.276446
0.00722408 	1.35363e-05 	-0.000555971 	0.276446
0.00727425 	1.35087e-05 	-0.000556122 	0.276406
0.00727425 	1.35087e-05 	-0.000556122 	0.276406
0.00732441 	1.3481e-05 	-0.000556274 	0.276367
0.00732441 	1.3481e-05 	-0.000556274 	0.276367
0.00737458 	1.34184e-05 	-0.000556345 	0.276304
0.00737458 	1.34184e-05 	-0.000556345 	0.276304
0.00742475 	1.33554e-05 	-0.000556416 	0.276241
0.00747492 	1.32924e-05 	-0.000556487 	0.276178
0.00752508 	1.32115e-05 	-0.000556484 	0.276104
0.00752508 	1.32115e-05 	-0.000556484 	0.276104
0.00757525 	1.31128e-05 	-0.000556406 	0.276017
0.00762542 	1.3014e-05 	-0.000556328 	0.27593
0.00767559 	1.29149e-05 	-0.000556249 	0.275843
0.00767559 	1.29149e-05 	-0.000556249 	0.275843
0.00772575 	1.27818e-05 	-0.000556072 	0.275733
0.00777592 	1.26486e-05 	-0.000555895 	0.275622
0.00777592 	1.26486e-05 	-0.000555895 	0.275622
0.00782609 	1.25154e-05 	-0.000555717 	0.275512
0.00787625 	1.23654e-05 	-0.000555452 	0.275388
0.00787625 	1.23654e-05 	-0.000555452 	0.275388
0.00792642 	1.22033e-05 	-0.000555123 	0.275254
0.00797659 	1.20411e-05 	-0.000554794 	0.275121
0.00802676 	1.18741e-05 	-0.000554435 	0.274982
0.00802676 	1.18741e-05 	-0.000554435 	0.274982
0.00807692 	1.16885e-05 	-0.000553964 	0.274826
0.00807692 	1.16885e-05 	-0.000553964 	0.274826
0.00812709 	1.15029e-05 	-0.000553493 	0.27467
0.00817726 	1.13174e-05 	-0.000553022 	0.274513
0.00817726 	1.13174e-05 	-0.000553022 	0.274513
0.00822742 	1.11134e-05 	-0.000552469 	0.274337
0.00827759 	1.09074e-05 	-0.000551906 	0.274158
0.00827759 	1.09074e-05 	-0.000551906 	0.274158
0.00832776 	1.07013e-05 	-0.000551344 	0.273979
0.00832776 	1.07013e-05 	-0.000551344 	0.273979
0.00837793 	1.0484e-05 	-0.000550705 	0.273785
0.00842809 	1.02604e-05 	-0.000550027 	0.273584
0.00842809 	1.02604e-05 	-0.000550027 	0.273584
0.00847826 	1.00369e-05 	-0.000549348 	0.273382
0.00847826 	1.00369e-05 	-0.000549348 	0.273382
0.0085786 	9.56882e-06 	-0.000547823 	0.272947
0.0085786 	9.56882e-06 	-0.000547823 	0.272947
0.00862876 	9.33081e-06 	-0.000547029 	0.272723
0.00867893 	9.08909e-06 	-0.0005462 	0.272492
0.0087291 	8.83937e-06 	-0.000545293 	0.272245
0.00877926 	8.58966e-06 	-0.000544386 	0.271999
0.00882943 	8.3378e-06 	-0.000543453 	0.271748
0.0088796 	8.07896e-06 	-0.000542434 	0.271479
0.0088796 	8.07896e-06 	-0.000542434 	0.271479
0.00892977 	7.82011e-06 	-0.000541414 	0.27121
0.00892977 	7.82011e-06 	-0.000541414 	0.27121
0.00897993 	7.55986e-06 	-0.000540372 	0.270937
0.00897993 	7.55986e-06 	-0.000540372 	0.270937
0.0090301 	7.29421e-06 	-0.00053924 	0.270646
0.00908027 	7.02856e-06 	-0.000538109 	0.270354
0.00908027 	7.02856e-06 	-0.000538109 	0.270354
0.00913043 	6.76182e-06 	-0.000536951 	0.270058
0.0091806 	6.49145e-06 	-0.000535708 	0.269744
0.0091806 	6.49145e-06 	-0.000535708 	0.269744
0.00923077 	6.22108e-06 	-0.000534464 	0.26943
0.00928094 	5.94981e-06 	-0.000533185 	0.269109
0.00928094 	5.94981e-06 	-0.000533185 	0.269109
0.0093311 	5.67654e-06 	-0.000531829 	0.268772
0.00938127 	5.40328e-06 	-0.000530473 	0.268435
0.00938127 	5.40328e-06 	-0.000530473 	0.268435
0.00943144 	5.12944e-06 	-0.000529067 	0.268088
0.00943144 	5.12944e-06 	-0.000529067 	0.268088
0.00948161 	4.85487e-06 	-0.000527597 	0.267729
0.00948161 	4.85487e-06 	-0.000527597 	0.267729
0.00953177 	4.58031e-06 	-0.000526126 	0.267369
0.00953177 	4.58031e-06 	-0.000526126 	0.267369
0.00958194 	4.30581e-06 	-0.000524585 	0.266994
0.00958194 	4.30581e-06 	-0.000524585 	0.266994
0.00963211 	4.03135e-06 	-0.000522999 	0.266611
0.00968227 	3.75689e-06 	-0.000521413 	0.266227
0.00968227 	3.75689e-06 	-0.000521413 	0.266227
0.00973244 	3.48357e-06 	-0.000519726 	0.265824
0.00978261 	3.21046e-06 	-0.000518022 	0.265416
0.00978261 	3.21046e-06 	-0.000518022 	0.265416
0.00983278 	2.93765e-06 	-0.000516302 	0.265006
0.00983278 	2.93765e-06 	-0.000516302 	0.265006
0.00988294 	2.66698e-06 	-0.000514476 	0.264574
0.00993311 	2.3963e-06 	-0.000512649 	0.264143
0.00993311 	2.3963e-06 	-0.000512649 	0.264143
0.00998328 	2.12716e-06 	-0.000510766 	0.2637
0.0100334 	1.85989e-06 	-0.000508814 	0.263243
0.0100836 	1.59261e-06 	-0.000506861 	0.262787
0.0100836 	1.59261e-06 	-0.000506861 	0.262787
0.0101338 	1.32884e-06 	-0.000504801 	0.262309
0.0101839 	1.06582e-06 	-0.000502717 	0.261827
0.0101839 	1.06582e-06 	-0.000502717 	0.261827
0.0102341 	8.04012e-07 	-0.0005006 	0.261339
0.0102341 	8.04012e-07 	-0.0005006 	0.261339
0.0102843 	5.46004e-07 	-0.00049838 	0.260831
0.0103344 	2.87996e-07 	-0.000496159 	0.260323
0.0103344 	2.87996e-07 	-0.000496159 	0.260323
0.0103846 	3.40293e-08 	-0.000493837 	0.259796
0.0103846 	3.40293e-08 	-0.000493837 	0.259796
0.0104348 	-2.18273e-07 	-0.000491473 	0.259261
0.0104348 	-2.18273e-07 	-0.000491473 	0.259261
0.0104849 	-4.69198e-07 	-0.000489076 	0.25872
0.0104849 	-4.69198e-07 	-0.000489076 	0.25872
0.0105351 	-7.1517e-07 	-0.000486561 	0.258158
0.0105853 	-9.61143e-07 	-0.000484046 	0.257595
0.0105853 	-9.61143e-07 	-0.000484046 	0.257595
0.0106856 	-1.44088e-06 	-0.000478734 	0.256419
0.0106856 	-1.44088e-06 	-0.000478734 	0.256419
0.0107358 	-1.67724e-06 	-0.000475999 	0.255817
0.010786 	-1.90892e-06 	-0.000473157 	0.255197
0.010786 	-1.90892e-06 	-0.000473157 	0.255197
0.0108361 	-2.14055e-06 	-0.000470315 	0.254576
0.0108863 	-2.36437e-06 	-0.000467298 	0.253924
0.0108863 	-2.36437e-06 	-0.000467298 	0.253924
0.0109365 	-2.58819e-06 	-0.000464282 	0.253273
0.0109365 	-2.58819e-06 	-0.000464282 	0.253273
0.0109866 	-2.80633e-06 	-0.00046114 	0.252599
0.0110368 	-3.02186e-06 	-0.00045794 	0.251916
0.0110368 	-3.02186e-06 	-0.00045794 	0.251916
0.011087 	-3.23384e-06 	-0.000454661 	0.251219
0.011087 	-3.23384e-06 	-0.000454661 	0.251219
0.0111371 	-3.44066e-06 	-0.000451266 	0.250502
0.0111873 	-3.64591e-06 	-0.000447837 	0.249779
0.0111873 	-3.64591e-06 	-0.000447837 	0.249779
0.0112375 	-3.84353e-06 	-0.000444233 	0.249028
0.0112876 	-4.04114e-06 	-0.00044063 	0.248276
0.0112876 	-4.04114e-06 	-0.00044063 	0.248276
0.0113378 	-4.22934e-06 	-0.000436808 	0.247489
0.0113378 	-4.22934e-06 	-0.000436808 	0.247489
0.011388 	-4.41724e-06 	-0.000432979 	0.246701
0.0114381 	-4.59695e-06 	-0.000428946 	0.245881
0.0114381 	-4.59695e-06 	-0.000428946 	0.245881
0.0114883 	-4.77473e-06 	-0.000424864 	0.245053
0.0115385 	-4.94521e-06 	-0.000420583 	0.244196
0.0115385 	-4.94521e-06 	-0.000420583 	0.244196
0.0115886 	-5.11236e-06 	-0.000416211 	0.243326
0.0116388 	-5.27266e-06 	-0.000411637 	0.242426
0.0116388 	-5.27266e-06 	-0.000411637 	0.242426
0.011689 	-5.42843e-06 	-0.000406929 	0.241508
0.0117391 	-5.57763e-06 	-0.000402007 	0.240561
0.0117893 	-5.72154e-06 	-0.000396912 	0.239591
0.0118395 	-5.85906e-06 	-0.000391582 	0.23859
0.0118395 	-5.85906e-06 	-0.000391582 	0.23859
0.0118896 	-5.99118e-06 	-0.000386053 	0.237562
0.0119398 	-6.11684e-06 	-0.000380263 	0.2365
0.0119398 	-6.11684e-06 	-0.000380263 	0.2365
0.01199 	-6.23754e-06 	-0.00037427 	0.23541
0.0120401 	-6.35128e-06 	-0.00036798 	0.234278
0.0120401 	-6.35128e-06 	-0.00036798 	0.234278
0.0120903 	-6.46082e-06 	-0.000361509 	0.233121
0.0120903 	-6.46082e-06 	-0.000361509 	0.233121
0.0121906 	-6.66063e-06 	-0.000347737 	0.230684
0.0121906 	-6.66063e-06 	-0.000347737 	0.230684
0.0122408 	-6.74926e-06 	-0.000340374 	0.229391
0.012291 	-6.83606e-06 	-0.000332934 	0.228086
0.012291 	-6.83606e-06 	-0.000332934 	0.228086
0.0123411 	-6.91107e-06 	-0.00032501 	0.2267
0.0123913 	-6.98377e-06 	-0.000316995 	0.225297
0.0123913 	-6.98377e-06 	-0.000316995 	0.225297
0.0124415 	-7.04673e-06 	-0.000308594 	0.223825
0.0124415 	-7.04673e-06 	-0.000308594 	0.223825
0.0124916 	-7.10461e-06 	-0.000300002 	0.222315
0.0124916 	-7.10461e-06 	-0.000300002 	0.222315
0.0125418 	-7.15531e-06 	-0.00029114 	0.220751
0.012592 	-7.19768e-06 	-0.000281986 	0.219123
0.0126421 	-7.23593e-06 	-0.000272686 	0.217463
0.0126421 	-7.23593e-06 	-0.000272686 	0.217463
0.0126923 	-7.26213e-06 	-0.000263004 	0.215707
0.0127425 	-7.28431e-06 	-0.000253207 	0.213917
0.0127425 	-7.28431e-06 	-0.000253207 	0.213917
0.0127926 	-7.29716e-06 	-0.000243152 	0.212049
0.0128428 	-7.30203e-06 	-0.000232916 	0.210113
0.0128428 	-7.30203e-06 	-0.000232916 	0.210113
0.0129431 	-7.28885e-06 	-0.000211996 	0.206038
0.0129431 	-7.28885e-06 	-0.000211996 	0.206038
0.0129933 	-7.27041e-06 	-0.000201366 	0.203894
0.0130435 	-7.24391e-06 	-0.000190649 	0.201675
0.0130435 	-7.24391e-06 	-0.000190649 	0.201675
0.0131438 	-7.16256e-06 	-0.000169115 	0.196963
0.0131438 	-7.16256e-06 	-0.000169115 	0.196963
0.013194 	-7.10903e-06 	-0.000158368 	0.19448
0.0132441 	-7.04495e-06 	-0.000147712 	0.191886
0.0132441 	-7.04495e-06 	-0.000147712 	0.191886
0.0132943 	-6.97379e-06 	-0.000137142 	0.189217
0.0133445 	-6.89267e-06 	-0.00012672 	0.186439
0.0133445 	-6.89267e-06 	-0.00012672 	0.186439
0.0133946 	-6.80008e-06 	-0.000116534 	0.183529
0.0133946 	-6.80008e-06 	-0.000116534 	0.183529
0.0134448 	-6.69954e-06 	-0.00010654 	0.180524
0.0134448 	-6.69954e-06 	-0.00010654 	0.180524
0.013495 	-6.59031e-06 	-9.67713e-05 	0.177415
0.0135452 	-6.46708e-06 	-8.74258e-05 	0.174127
0.0135452 	-6.46708e-06 	-8.74258e-05 	0.174127
0.0135953 	-6.33478e-06 	-7.83853e-05 	0.17072
0.0135953 	-6.33478e-06 	-7.83853e-05 	0.17072
0.0136455 	-6.19297e-06 	-6.96765e-05 	0.167182
0.0136455 	-6.19297e-06 	-6.96765e-05 	0.167182
0.0136957 	-6.03946e-06 	-6.1397e-05 	0.16348
0.0136957 	-6.03946e-06 	-6.1397e-05 	0.16348
0.0137458 	-5.87245e-06 	-5.3657e-05 	0.159568
0.013796 	-5.69524e-06 	-4.63598e-05 	0.155484
0.013796 	-5.69524e-06 	-4.63598e-05 	0.155484
0.0138462 	-5.50771e-06 	-3.95356e-05 	0.151214
0.0138462 	-5.50771e-06 	-3.95356e-05 	0.151214
0.0138963 	-5.30975e-06 	-3.32154e-05 	0.146742
0.0139465 	-5.09828e-06 	-2.75888e-05 	0.141981
0.0139465 	-5.09828e-06 	-2.75888e-05 	0.141981
0.0139967 	-4.87658e-06 	-2.2515e-05 	0.136972
0.0139967 	-4.87658e-06 	-2.2515e-05 	0.136972
0.0140468 	-4.64508e-06 	-1.79935e-05 	0.131702
0.0140468 	-4.64508e-06 	-1.79935e-05 	0.131702
0.014097 	-4.40389e-06 	-1.40329e-05 	0.126149
0.0141472 	-4.15302e-06 	-1.06337e-05 	0.120291
0.0141472 	-4.15302e-06 	-1.06337e-05 	0.120291
0.0141973 	-3.89219e-06 	-7.78263e-06 	0.1141
0.0142475 	-3.61969e-06 	-5.52318e-06 	0.107478
0.0142977 	-3.33877e-06 	-3.72495e-06 	0.10044
0.0142977 	-3.33877e-06 	-3.72495e-06 	0.10044
0.0143478 	-3.05361e-06 	-2.34491e-06 	0.0929737
0.014398 	-2.77003e-06 	-1.34441e-06 	0.0850982
0.014398 	-2.77003e-06 	-1.34441e-06 	0.0850982
0.0144482 	-2.4945e-06 	-6.74222e-07 	0.0768711
0.0144983 	-2.2333e-06 	-2.73458e-07 	0.0683969
0.0144983 	-2.2333e-06 	-2.73458e-07 	0.0683969
0.0145485 	-1.99163e-06 	-7.3447e-08 	0.0598266
0.0145485 	-1.99163e-06 	-7.3447e-08 	0.0598266
0.0145987 	-1.77206e-06 	-4.16243e-09 	0.0513422
0.0146488 	-1.573e-06 	-2.87555e-09 	0.043127
0.014699 	-1.38766e-06 	-2.20036e-08 	0.0353309
0.014699 	-1.38766e-06 	-2.20036e-08 	0.0353309
0.0147492 	-1.20306e-06 	-3.27896e-08 	0.0280505
0.0147993 	-9.96271e-07 	-2.53595e-08 	0.0213306
0.0147993 	-9.96271e-07 	-2.53595e-08 	0.0213306
0.0148495 	-7.23112e-07 	-9.71429e-10 	0.0151809
0.0148495 	-7.23112e-07 	-9.71429e-10 	0.0151809
0.0148997 	-3.59904e-07 	1.76181e-08 	0.00959243
0.0148997 	-3.59904e-07 	1.76181e-08 	0.00959243
0.0149498 	-3.831e-08 	1.98553e-08 	0.00454669
0.0149498 	-3.831e-08 	1.98553e-08 	0.00454669
0.015 	0 	0 	0
0.015 	0 	0 	0
