/*--------------------------------*- C++ -*----------------------------------*\
| =========                 |                                                 |
| \\      /  F ield         | OpenFOAM: The Open Source CFD Toolbox           |
|  \\    /   O peration     | Version:  v1912                                 |
|   \\  /    A nd           | Website:  www.openfoam.com                      |
|    \\/     M anipulation  |                                                 |
\*---------------------------------------------------------------------------*/
FoamFile
{
    version     2.0;
    format      ascii;
    class       volScalarField;
    location    "9.2";
    object      heatTransferCoeff(T);
}
// * * * * * * * * * * * * * * * * * * * * * * * * * * * * * * * * * * * * * //

dimensions      [1 0 -3 -1 0 0 0];


internalField   uniform 0;

boundaryField
{
    leftWall
    {
        type            calculated;
        value           nonuniform List<scalar> 
216
(
-223.231
-227.63
-235.575
-240.931
-250.457
-257.194
-268.648
-277.322
-291.811
-304.878
-326.119
-347.675
-378.557
-411.653
-463.932
-547.092
-814.149
-2784.43
-221.324
-225.964
-234.192
-239.698
-249.319
-256.08
-267.634
-276.571
-291.375
-304.545
-325.257
-345.949
-376.64
-411.487
-466.49
-550.125
-813.881
-2779.74
-219.885
-224.938
-233.626
-239.516
-249.519
-256.597
-268.438
-277.476
-291.952
-304.152
-323.345
-342.786
-373.241
-408.829
-464.493
-548.716
-813.901
-2781.66
-220.948
-225.896
-234.412
-240.262
-250.188
-257.247
-268.862
-277.521
-291.349
-302.936
-321.74
-341.267
-371.812
-406.732
-460.789
-544.657
-812.249
-2786.28
-222.016
-226.68
-234.876
-240.565
-250.37
-257.502
-269.335
-278.592
-293.485
-306.667
-326.925
-346.72
-375.566
-408.124
-461.405
-546.59
-813.393
-2786.41
-223.895
-228.076
-235.673
-240.753
-249.962
-256.613
-268.184
-277.465
-292.685
-306.277
-326.791
-346.471
-375.072
-407.852
-462.608
-549.658
-816.778
-2790.57
-225.931
-229.943
-237.386
-242.279
-251.358
-257.888
-269.364
-278.451
-293.303
-306.316
-326.207
-345.459
-373.891
-406.726
-461.892
-550.11
-817.786
-2786.42
-225.254
-229.586
-237.527
-242.9
-252.499
-259.466
-271.328
-280.771
-295.979
-309.35
-329.366
-348.336
-376.031
-408.217
-463.169
-551.225
-816.617
-2782.59
-221.708
-226.245
-234.284
-239.759
-249.181
-255.86
-267.065
-275.831
-290.299
-303.496
-324.031
-344.621
-374.226
-407.183
-460.113
-545.37
-813.856
-2786.23
-218.354
-223.151
-231.437
-237.276
-246.953
-253.926
-265.154
-273.81
-287.78
-300.411
-320.446
-341.229
-371.683
-405.353
-457.512
-542.352
-815.383
-2786.64
-219.349
-224.519
-233.266
-239.832
-250.328
-258.387
-270.718
-280.513
-295.14
-307.683
-326.551
-345.753
-375.238
-409.504
-463.262
-549.392
-819.889
-2782.31
-222.98
-228.191
-236.701
-243.241
-253.521
-261.611
-273.904
-283.972
-298.975
-312.261
-331.797
-351.182
-379.741
-412.723
-466.011
-550.897
-817.757
-2788.61
)
;
    }
    rightWall
    {
        type            calculated;
        value           nonuniform List<scalar> 
216
(
-205.8
-209.678
-214.909
-219.639
-226.206
-232.247
-240.671
-248.624
-259.58
-270.244
-284.78
-300.076
-322.123
-349.252
-394.48
-465.179
-701.788
-2806.36
-206.629
-210.62
-215.94
-220.674
-227.144
-232.965
-241.06
-248.646
-259.252
-269.711
-284.179
-299.539
-321.638
-348.52
-393.671
-466.139
-705.995
-2821.77
-207.922
-211.901
-217.208
-221.848
-228.226
-233.81
-241.663
-248.82
-259.002
-268.87
-282.883
-297.772
-319.773
-346.9
-392.478
-464.786
-705.339
-2833.05
-208.035
-212.132
-217.651
-222.569
-229.368
-235.403
-243.828
-251.434
-261.997
-271.862
-285.636
-299.791
-320.961
-347.287
-392.485
-464.044
-702.102
-2826.17
-206.471
-210.469
-215.932
-220.823
-227.65
-233.793
-242.429
-250.392
-261.502
-272.104
-286.864
-302.008
-323.776
-349.551
-392.916
-462.655
-699.288
-2816.96
-204.564
-208.377
-213.604
-218.231
-224.729
-230.52
-238.763
-246.399
-257.286
-267.974
-283.117
-299.066
-321.948
-348.872
-393.322
-464.041
-700.186
-2820.44
-204.689
-208.48
-213.636
-218.133
-224.453
-229.956
-237.857
-244.981
-255.306
-265.238
-279.659
-295.013
-317.818
-345.217
-390.763
-462.827
-702.004
-2823.82
-205.706
-209.641
-214.987
-219.668
-226.239
-231.981
-240.184
-247.532
-258.083
-268.007
-282.304
-297.152
-319.307
-345.838
-390.894
-463.282
-705.159
-2826.95
-207.854
-212.179
-217.963
-223.034
-229.991
-236.018
-244.433
-251.849
-262.365
-272.139
-286.255
-300.854
-322.762
-348.837
-393.196
-464.664
-705.846
-2826.18
-208.912
-213.055
-218.608
-223.374
-229.994
-235.618
-243.676
-250.769
-261.188
-271.129
-285.842
-301.364
-324.327
-351.008
-394.798
-464.021
-702.219
-2826.2
-209.98
-213.953
-219.264
-223.824
-230.196
-235.596
-243.418
-250.263
-260.437
-270.095
-284.506
-299.679
-322.347
-348.622
-392.079
-461.623
-700.696
-2827.02
-209.648
-213.806
-219.174
-223.98
-230.437
-236.049
-243.898
-250.78
-260.736
-270.002
-283.703
-297.919
-319.53
-345.238
-389.696
-462.742
-706.451
-2821.64
)
;
    }
    leftSides_periodic0
    {
        type            cyclic;
    }
    leftSides_periodic1
    {
        type            cyclic;
    }
    rightSides_periodic0
    {
        type            cyclic;
    }
    rightSides_periodic1
    {
        type            cyclic;
    }
    leftInOut_periodic0
    {
        type            calculated;
        value           nonuniform 0();
    }
    leftInOut_periodic1
    {
        type            calculated;
        value           uniform 0;
    }
    rightInOut_periodic0
    {
        type            calculated;
        value           nonuniform 0();
    }
    rightInOut_periodic1
    {
        type            calculated;
        value           uniform 0;
    }
    procBoundary4to1
    {
        type            processor;
        value           uniform 0;
    }
    procBoundary4to3
    {
        type            processor;
        value           uniform 0;
    }
    procBoundary4to5
    {
        type            processor;
        value           uniform 0;
    }
}


// ************************************************************************* //
