0 	0 	0 	0
0 	0 	0 	0
0.00752508 	0.000128536 	0.00107073 	-0.282817
0.00752508 	0.000128536 	0.00107073 	-0.282817
0.00757525 	7.42192e-05 	0.0010529 	-0.28241
0.00762542 	1.99026e-05 	0.00103507 	-0.282003
0.00762542 	1.99026e-05 	0.00103507 	-0.282003
0.00767559 	-3.41343e-05 	0.00101828 	-0.281599
0.00772575 	-5.75107e-05 	0.0011163 	-0.281438
0.00777592 	-8.08871e-05 	0.00121432 	-0.281277
0.00782609 	-0.000104263 	0.00131234 	-0.281116
0.00782609 	-0.000104263 	0.00131234 	-0.281116
0.00787625 	-0.00010067 	0.00136858 	-0.280864
0.00792642 	-7.75135e-05 	0.00139452 	-0.280547
0.00797659 	-5.43569e-05 	0.00142045 	-0.280229
0.00802676 	-2.98928e-05 	0.00142211 	-0.279862
0.00802676 	-2.98928e-05 	0.00142211 	-0.279862
0.00807692 	-5.26104e-07 	0.00133273 	-0.279308
0.00812709 	2.88406e-05 	0.00124335 	-0.278755
0.00812709 	2.88406e-05 	0.00124335 	-0.278755
0.00817726 	5.82074e-05 	0.00115397 	-0.278201
0.00822742 	6.01939e-05 	0.00112443 	-0.277708
0.00822742 	6.01939e-05 	0.00112443 	-0.277708
0.00827759 	5.91665e-05 	0.00110147 	-0.277221
0.00832776 	5.81392e-05 	0.00107852 	-0.276734
0.00832776 	5.81392e-05 	0.00107852 	-0.276734
0.00837793 	3.73175e-05 	0.00108354 	-0.276214
0.00842809 	5.81132e-06 	0.00110367 	-0.275675
0.00842809 	5.81132e-06 	0.00110367 	-0.275675
0.00847826 	-2.56948e-05 	0.00112379 	-0.275136
0.00847826 	-2.56948e-05 	0.00112379 	-0.275136
0.00852843 	-7.43407e-05 	0.00114243 	-0.27447
0.00852843 	-7.43407e-05 	0.00114243 	-0.27447
0.0085786 	-0.000143489 	0.0011593 	-0.273651
0.0085786 	-0.000143489 	0.0011593 	-0.273651
0.00862876 	-0.000212638 	0.00117617 	-0.272833
0.00867893 	-0.000287016 	0.00119786 	-0.271949
0.00867893 	-0.000287016 	0.00119786 	-0.271949
0.0087291 	-0.000372633 	0.00122994 	-0.270921
0.00877926 	-0.000458251 	0.00126202 	-0.269893
0.00877926 	-0.000458251 	0.00126202 	-0.269893
0.00882943 	-0.000540683 	0.00128399 	-0.268953
0.0088796 	-0.000612741 	0.00127299 	-0.268297
0.0088796 	-0.000612741 	0.00127299 	-0.268297
0.00897993 	-0.000752871 	0.00124189 	-0.267094
0.00897993 	-0.000752871 	0.00124189 	-0.267094
0.0090301 	-0.000805636 	0.00118684 	-0.266964
0.00908027 	-0.000858401 	0.00113179 	-0.266834
0.00908027 	-0.000858401 	0.00113179 	-0.266834
0.00913043 	-0.000909929 	0.00108385 	-0.266726
0.0091806 	-0.000957353 	0.00105953 	-0.266686
0.0091806 	-0.000957353 	0.00105953 	-0.266686
0.00923077 	-0.00100478 	0.0010352 	-0.266647
0.00928094 	-0.0010511 	0.00101933 	-0.266567
0.00928094 	-0.0010511 	0.00101933 	-0.266567
0.0093311 	-0.00109497 	0.00102236 	-0.266396
0.00938127 	-0.00113883 	0.00102539 	-0.266226
0.00938127 	-0.00113883 	0.00102539 	-0.266226
0.00943144 	-0.00117905 	0.00102747 	-0.266006
0.00943144 	-0.00117905 	0.00102747 	-0.266006
0.00948161 	-0.00121457 	0.00102834 	-0.265723
0.00948161 	-0.00121457 	0.00102834 	-0.265723
0.00953177 	-0.0012501 	0.00102922 	-0.26544
0.00953177 	-0.0012501 	0.00102922 	-0.26544
0.00958194 	-0.00128078 	0.00102831 	-0.265132
0.00958194 	-0.00128078 	0.00102831 	-0.265132
0.00963211 	-0.00130846 	0.00102629 	-0.264807
0.00963211 	-0.00130846 	0.00102629 	-0.264807
0.00968227 	-0.00133614 	0.00102427 	-0.264483
0.00968227 	-0.00133614 	0.00102427 	-0.264483
0.00973244 	-0.00135935 	0.00101011 	-0.264132
0.00978261 	-0.00138176 	0.000993744 	-0.263776
0.00983278 	-0.00140444 	0.000975155 	-0.263403
0.00988294 	-0.00142904 	0.00094097 	-0.262908
0.00988294 	-0.00142904 	0.00094097 	-0.262908
0.00993311 	-0.00145364 	0.000906785 	-0.262414
0.00998328 	-0.00148679 	0.000886889 	-0.261787
0.00998328 	-0.00148679 	0.000886889 	-0.261787
0.0100334 	-0.00153036 	0.00088439 	-0.260998
0.0100334 	-0.00153036 	0.00088439 	-0.260998
0.0100836 	-0.00157393 	0.00088189 	-0.260209
0.0101338 	-0.00164906 	0.000951539 	-0.25906
0.0101338 	-0.00164906 	0.000951539 	-0.25906
0.0102341 	-0.00180718 	0.00111509 	-0.256631
0.0102341 	-0.00180718 	0.00111509 	-0.256631
0.0102843 	-0.00186598 	0.00117321 	-0.255499
0.0103344 	-0.00192478 	0.00123133 	-0.254367
0.0103344 	-0.00192478 	0.00123133 	-0.254367
0.0103846 	-0.001921 	0.00120145 	-0.253572
0.0103846 	-0.001921 	0.00120145 	-0.253572
0.0104348 	-0.00189143 	0.00113532 	-0.252915
0.0104849 	-0.00184973 	0.001058 	-0.25222
0.0104849 	-0.00184973 	0.001058 	-0.25222
0.0105351 	-0.00176445 	0.000940516 	-0.251387
0.0105853 	-0.00167916 	0.000823031 	-0.250554
0.0105853 	-0.00167916 	0.000823031 	-0.250554
0.0106355 	-0.0015768 	0.000711828 	-0.249287
0.0106856 	-0.00146938 	0.000602489 	-0.247891
0.0106856 	-0.00146938 	0.000602489 	-0.247891
0.0107358 	-0.00136744 	0.000534531 	-0.246531
0.0107358 	-0.00136744 	0.000534531 	-0.246531
0.010786 	-0.00127494 	0.000537783 	-0.245233
0.010786 	-0.00127494 	0.000537783 	-0.245233
0.0108361 	-0.00118277 	0.000541448 	-0.243939
0.0108361 	-0.00118277 	0.000541448 	-0.243939
0.0108863 	-0.00114355 	0.000609735 	-0.243254
0.0109365 	-0.00110433 	0.000678022 	-0.242568
0.0109365 	-0.00110433 	0.000678022 	-0.242568
0.0109866 	-0.00110599 	0.000722966 	-0.241968
0.0109866 	-0.00110599 	0.000722966 	-0.241968
0.0110368 	-0.0011263 	0.000757264 	-0.241406
0.011087 	-0.00116645 	0.000791288 	-0.240702
0.011087 	-0.00116645 	0.000791288 	-0.240702
0.0111371 	-0.0012354 	0.000824917 	-0.239791
0.0111873 	-0.0013074 	0.000858203 	-0.238827
0.0111873 	-0.0013074 	0.000858203 	-0.238827
0.0112375 	-0.00139438 	0.000889807 	-0.237608
0.0112876 	-0.00148136 	0.00092141 	-0.236388
0.0112876 	-0.00148136 	0.00092141 	-0.236388
0.0113378 	-0.00151212 	0.00087646 	-0.235377
0.011388 	-0.00154116 	0.00082916 	-0.234373
0.011388 	-0.00154116 	0.00082916 	-0.234373
0.0114883 	-0.00144843 	0.000605361 	-0.233066
0.0114883 	-0.00144843 	0.000605361 	-0.233066
0.0115385 	-0.00138094 	0.000528108 	-0.232464
0.0115886 	-0.00130745 	0.000469693 	-0.23187
0.0115886 	-0.00130745 	0.000469693 	-0.23187
0.0116388 	-0.00124551 	0.000456844 	-0.23119
0.011689 	-0.00119121 	0.000474061 	-0.230453
0.011689 	-0.00119121 	0.000474061 	-0.230453
0.0117391 	-0.00114478 	0.000492502 	-0.229665
0.0117893 	-0.00110469 	0.000511927 	-0.228834
0.0117893 	-0.00110469 	0.000511927 	-0.228834
0.0118395 	-0.00106406 	0.000512785 	-0.227981
0.0118896 	-0.00102298 	0.000497955 	-0.227111
0.0118896 	-0.00102298 	0.000497955 	-0.227111
0.0119398 	-0.000977966 	0.000478004 	-0.226223
0.0119398 	-0.000977966 	0.000478004 	-0.226223
0.01199 	-0.00092994 	0.000454116 	-0.225321
0.01199 	-0.00092994 	0.000454116 	-0.225321
0.0120401 	-0.000877585 	0.000434855 	-0.224395
0.0120401 	-0.000877585 	0.000434855 	-0.224395
0.0120903 	-0.000822614 	0.000418389 	-0.223455
0.0120903 	-0.000822614 	0.000418389 	-0.223455
0.0121405 	-0.000762265 	0.000401951 	-0.222485
0.0121405 	-0.000762265 	0.000401951 	-0.222485
0.0121906 	-0.00069978 	0.000385524 	-0.221502
0.0121906 	-0.00069978 	0.000385524 	-0.221502
0.0122408 	-0.000630418 	0.000369505 	-0.220482
0.0122408 	-0.000630418 	0.000369505 	-0.220482
0.012291 	-0.000559756 	0.000353564 	-0.219455
0.012291 	-0.000559756 	0.000353564 	-0.219455
0.0123411 	-0.000480935 	0.000338222 	-0.218381
0.0123411 	-0.000480935 	0.000338222 	-0.218381
0.0123913 	-0.000400714 	0.000322624 	-0.217298
0.0123913 	-0.000400714 	0.000322624 	-0.217298
0.0124415 	-0.000314598 	0.000305953 	-0.216176
0.0124916 	-0.000226261 	0.000287555 	-0.215034
0.0124916 	-0.000226261 	0.000287555 	-0.215034
0.012592 	-4.16956e-05 	0.000245067 	-0.212655
0.012592 	-4.16956e-05 	0.000245067 	-0.212655
0.0126421 	5.22106e-05 	0.000223004 	-0.211427
0.0126923 	0.000148049 	0.000205965 	-0.210132
0.0126923 	0.000148049 	0.000205965 	-0.210132
0.0127425 	0.000245697 	0.000191157 	-0.208809
0.0127425 	0.000245697 	0.000191157 	-0.208809
0.0127926 	0.000347981 	0.000181727 	-0.207425
0.0128428 	0.000458473 	0.00017398 	-0.205987
0.0128428 	0.000458473 	0.00017398 	-0.205987
0.012893 	0.00057409 	0.000167283 	-0.204517
0.0129431 	0.00070886 	0.000155137 	-0.202969
0.0129431 	0.00070886 	0.000155137 	-0.202969
0.0129933 	0.000851541 	0.00014057 	-0.201388
0.0130435 	0.00100615 	0.000122343 	-0.19976
0.0130435 	0.00100615 	0.000122343 	-0.19976
0.0130936 	0.00117212 	0.000105344 	-0.198055
0.0131438 	0.00134257 	9.00716e-05 	-0.196302
0.0131438 	0.00134257 	9.00716e-05 	-0.196302
0.013194 	0.00151821 	7.8517e-05 	-0.194471
0.0132441 	0.00169674 	6.89509e-05 	-0.192546
0.0132441 	0.00169674 	6.89509e-05 	-0.192546
0.0132943 	0.00187715 	5.98325e-05 	-0.190556
0.0133445 	0.00206017 	5.03271e-05 	-0.18847
0.0133445 	0.00206017 	5.03271e-05 	-0.18847
0.0133946 	0.00224745 	4.05049e-05 	-0.186268
0.0134448 	0.00243778 	3.10301e-05 	-0.18398
0.0134448 	0.00243778 	3.10301e-05 	-0.18398
0.013495 	0.00263148 	2.22235e-05 	-0.181597
0.0135452 	0.00282818 	1.56958e-05 	-0.179042
0.0135452 	0.00282818 	1.56958e-05 	-0.179042
0.0136455 	0.00321648 	5.13059e-06 	-0.173544
0.0136455 	0.00321648 	5.13059e-06 	-0.173544
0.0136957 	0.0034028 	-4.07285e-07 	-0.17054
0.0137458 	0.0035781 	-6.52959e-06 	-0.167289
0.0137458 	0.0035781 	-6.52959e-06 	-0.167289
0.013796 	0.00374447 	-1.24438e-05 	-0.163829
0.0138462 	0.00390171 	-1.77315e-05 	-0.160142
0.0138462 	0.00390171 	-1.77315e-05 	-0.160142
0.0138963 	0.00404983 	-2.1941e-05 	-0.15621
0.0138963 	0.00404983 	-2.1941e-05 	-0.15621
0.0139465 	0.00418552 	-2.45855e-05 	-0.151927
0.0139967 	0.00430916 	-2.66286e-05 	-0.147351
0.0139967 	0.00430916 	-2.66286e-05 	-0.147351
0.0140468 	0.004418 	-2.83163e-05 	-0.142468
0.0140468 	0.004418 	-2.83163e-05 	-0.142468
0.014097 	0.00450903 	-2.98146e-05 	-0.137257
0.0141472 	0.00457938 	-3.11901e-05 	-0.131694
0.0141973 	0.00462669 	-3.23493e-05 	-0.125759
0.0141973 	0.00462669 	-3.23493e-05 	-0.125759
0.0142475 	0.0046448 	-3.31847e-05 	-0.119367
0.0142977 	0.00463523 	-3.36291e-05 	-0.112567
0.0143478 	0.00459394 	-3.36462e-05 	-0.10536
0.0143478 	0.00459394 	-3.36462e-05 	-0.10536
0.014398 	0.00451565 	-3.34235e-05 	-0.0977677
0.014398 	0.00451565 	-3.34235e-05 	-0.0977677
0.0144482 	0.00439647 	-3.28655e-05 	-0.0898369
0.0144983 	0.00423531 	-3.16694e-05 	-0.0816434
0.0144983 	0.00423531 	-3.16694e-05 	-0.0816434
0.0145485 	0.00403403 	-2.96484e-05 	-0.0732852
0.0145987 	0.00379662 	-2.67669e-05 	-0.0648691
0.0145987 	0.00379662 	-2.67669e-05 	-0.0648691
0.0146488 	0.00352765 	-2.30027e-05 	-0.0564903
0.014699 	0.00322976 	-1.837e-05 	-0.0482126
0.014699 	0.00322976 	-1.837e-05 	-0.0482126
0.0147492 	0.00290069 	-1.29842e-05 	-0.040057
0.0147993 	0.00252983 	-7.32112e-06 	-0.0319971
0.0147993 	0.00252983 	-7.32112e-06 	-0.0319971
0.0148495 	0.0020929 	-1.64778e-06 	-0.0239353
0.0148495 	0.0020929 	-1.64778e-06 	-0.0239353
0.0148997 	0.00153571 	1.53294e-06 	-0.0157699
0.0148997 	0.00153571 	1.53294e-06 	-0.0157699
0.0149498 	0.00080877 	1.78388e-06 	-0.00767608
0.0149498 	0.00080877 	1.78388e-06 	-0.00767608
0.015 	0 	0 	0
