0 	0 	0 	0
5.01672e-05 	-2.21451e-05 	-4.49348e-06 	0.0203475
0.000100334 	-4.42902e-05 	-8.98697e-06 	0.040695
0.000150502 	-6.64352e-05 	-1.34805e-05 	0.0610425
0.000200669 	-8.85803e-05 	-1.79739e-05 	0.08139
0.000250836 	-0.000110725 	-2.24674e-05 	0.101737
0.000301003 	-0.00013287 	-2.69609e-05 	0.122085
0.000351171 	-0.000152982 	-3.2165e-05 	0.140324
0.000401338 	-0.000165406 	-4.00565e-05 	0.150588
0.000451505 	-0.000177829 	-4.79479e-05 	0.160852
0.000501672 	-0.000190252 	-5.58393e-05 	0.171116
0.000551839 	-0.000202675 	-6.37308e-05 	0.18138
0.000602007 	-0.000215098 	-7.16222e-05 	0.191644
0.000652174 	-0.000227522 	-7.95137e-05 	0.201908
0.000702341 	-0.000239945 	-8.74051e-05 	0.212172
0.000752508 	-0.000249609 	-9.55222e-05 	0.221006
0.000802676 	-0.000252432 	-0.000104199 	0.226296
0.000852843 	-0.000255255 	-0.000112875 	0.231586
0.00090301 	-0.000258078 	-0.000121552 	0.236876
0.000953177 	-0.000260901 	-0.000130228 	0.242166
0.00100334 	-0.000263724 	-0.000138905 	0.247456
0.00105351 	-0.000266547 	-0.000147582 	0.252746
0.00110368 	-0.00026937 	-0.000156258 	0.258036
0.00115385 	-0.000272193 	-0.000164935 	0.263325
0.00120401 	-0.000274817 	-0.000173569 	0.26851
0.00125418 	-0.00027336 	-0.000181347 	0.271527
0.00130435 	-0.000271903 	-0.000189124 	0.274544
0.00135452 	-0.000270446 	-0.000196902 	0.27756
0.00140468 	-0.000268989 	-0.000204679 	0.280577
0.00145485 	-0.000267532 	-0.000212457 	0.283594
0.00150502 	-0.000266075 	-0.000220234 	0.286611
0.00155518 	-0.000264618 	-0.000228012 	0.289628
0.00160535 	-0.000263161 	-0.000235789 	0.292645
0.00165552 	-0.000261704 	-0.000243567 	0.295662
0.00170569 	-0.000260247 	-0.000251344 	0.298679
0.00175585 	-0.000258536 	-0.000258718 	0.301406
0.00180602 	-0.000256126 	-0.00026498 	0.303339
0.00185619 	-0.000253716 	-0.000271241 	0.305272
0.00190635 	-0.000251307 	-0.000277503 	0.307204
0.00195652 	-0.000248897 	-0.000283765 	0.309137
0.00200669 	-0.000246487 	-0.000290027 	0.311069
0.00205686 	-0.000244077 	-0.000296289 	0.313002
0.00210702 	-0.000241667 	-0.000302551 	0.314935
0.00215719 	-0.000239257 	-0.000308812 	0.316867
0.00220736 	-0.000236847 	-0.000315074 	0.3188
0.00225753 	-0.000234437 	-0.000321336 	0.320732
0.00230769 	-0.000232027 	-0.000327598 	0.322665
0.00235786 	-0.000229617 	-0.00033386 	0.324598
0.00240803 	-0.000227448 	-0.000338959 	0.326097
0.00245819 	-0.000225386 	-0.000343539 	0.327403
0.00250836 	-0.000223324 	-0.00034812 	0.328709
0.00255853 	-0.000221262 	-0.000352701 	0.330015
0.0026087 	-0.000219199 	-0.000357281 	0.331321
0.00265886 	-0.000217137 	-0.000361862 	0.332627
0.00270903 	-0.000215075 	-0.000366443 	0.333933
0.0027592 	-0.000213013 	-0.000371023 	0.335239
0.00280936 	-0.000210951 	-0.000375604 	0.336545
0.00285953 	-0.000208889 	-0.000380185 	0.337851
0.0029097 	-0.000206827 	-0.000384765 	0.339157
0.00295987 	-0.000204764 	-0.000389346 	0.340463
0.00301003 	-0.000202702 	-0.000393927 	0.341769
0.0030602 	-0.00020064 	-0.000398507 	0.343075
0.00311037 	-0.000198592 	-0.000403058 	0.344371
0.00316054 	-0.00019715 	-0.000406294 	0.345248
0.0032107 	-0.000195707 	-0.000409531 	0.346125
0.00326087 	-0.000194265 	-0.000412768 	0.347002
0.00331104 	-0.000192823 	-0.000416005 	0.347879
0.0033612 	-0.000191381 	-0.000419242 	0.348757
0.00341137 	-0.000189938 	-0.000422478 	0.349634
0.00346154 	-0.000188496 	-0.000425715 	0.350511
0.00351171 	-0.000187054 	-0.000428952 	0.351388
0.00356187 	-0.000185611 	-0.000432189 	0.352265
0.00361204 	-0.000184169 	-0.000435425 	0.353142
0.00366221 	-0.000182727 	-0.000438662 	0.354019
0.00371237 	-0.000181285 	-0.000441899 	0.354896
0.00376254 	-0.000179842 	-0.000445136 	0.355773
0.00381271 	-0.0001784 	-0.000448373 	0.35665
0.00386288 	-0.000176958 	-0.000451609 	0.357527
0.00391304 	-0.000175515 	-0.000454846 	0.358404
0.00396321 	-0.000174073 	-0.000458083 	0.359281
0.00401338 	-0.000173035 	-0.000460476 	0.35986
0.00406355 	-0.000172036 	-0.000462786 	0.36041
0.00411371 	-0.000171037 	-0.000465096 	0.36096
0.00416388 	-0.000170038 	-0.000467406 	0.361509
0.00421405 	-0.000169039 	-0.000469716 	0.362059
0.00426421 	-0.00016804 	-0.000472026 	0.362609
0.00431438 	-0.000167041 	-0.000474336 	0.363159
0.00436455 	-0.000166043 	-0.000476646 	0.363708
0.00441472 	-0.000165044 	-0.000478957 	0.364258
0.00446488 	-0.000164045 	-0.000481267 	0.364808
0.00451505 	-0.000163046 	-0.000483577 	0.365357
0.00456522 	-0.000162047 	-0.000485887 	0.365907
0.00461538 	-0.000161048 	-0.000488197 	0.366457
0.00466555 	-0.000160049 	-0.000490507 	0.367006
0.00471572 	-0.000159051 	-0.000492817 	0.367556
0.00476589 	-0.000158052 	-0.000495127 	0.368106
0.00481605 	-0.000157053 	-0.000497437 	0.368656
0.00486622 	-0.000156054 	-0.000499747 	0.369205
0.00491639 	-0.000155055 	-0.000502058 	0.369755
0.00496656 	-0.000154056 	-0.000504368 	0.370305
0.00501672 	-0.000153264 	-0.000505958 	0.370605
0.00506689 	-0.000152483 	-0.000507511 	0.370892
0.00511706 	-0.000151702 	-0.000509063 	0.371179
0.00516722 	-0.000150921 	-0.000510615 	0.371466
0.00521739 	-0.00015014 	-0.000512168 	0.371752
0.00526756 	-0.000149359 	-0.00051372 	0.372039
0.00531773 	-0.000148577 	-0.000515272 	0.372326
0.00536789 	-0.000147796 	-0.000516825 	0.372613
0.00541806 	-0.000147015 	-0.000518377 	0.3729
0.00546823 	-0.000146234 	-0.000519929 	0.373187
0.00551839 	-0.000145453 	-0.000521481 	0.373474
0.00556856 	-0.000144672 	-0.000523034 	0.373761
0.00561873 	-0.000143891 	-0.000524586 	0.374047
0.0056689 	-0.00014311 	-0.000526138 	0.374334
0.00571906 	-0.000142328 	-0.000527691 	0.374621
0.00576923 	-0.000141547 	-0.000529243 	0.374908
0.0058194 	-0.000140766 	-0.000530795 	0.375195
0.00586957 	-0.000139985 	-0.000532347 	0.375482
0.00591973 	-0.000139204 	-0.0005339 	0.375769
0.0059699 	-0.000138423 	-0.000535452 	0.376056
0.00602007 	-0.000137642 	-0.000537004 	0.376342
0.00607023 	-0.000136861 	-0.000538557 	0.376629
0.0061204 	-0.00013608 	-0.000540109 	0.376916
0.00617057 	-0.000135396 	-0.000541145 	0.377057
0.00622074 	-0.000134761 	-0.000541919 	0.377123
0.0062709 	-0.000134127 	-0.000542694 	0.37719
0.00632107 	-0.000133493 	-0.000543468 	0.377257
0.00637124 	-0.000132858 	-0.000544242 	0.377323
0.0064214 	-0.000132224 	-0.000545016 	0.37739
0.00647157 	-0.000131589 	-0.000545791 	0.377456
0.00652174 	-0.000130955 	-0.000546565 	0.377523
0.00657191 	-0.000130321 	-0.000547339 	0.377589
0.00662207 	-0.000129686 	-0.000548113 	0.377656
0.00667224 	-0.000129052 	-0.000548888 	0.377722
0.00672241 	-0.000128418 	-0.000549662 	0.377789
0.00677258 	-0.000127783 	-0.000550436 	0.377855
0.00682274 	-0.000127149 	-0.00055121 	0.377922
0.00687291 	-0.000126514 	-0.000551985 	0.377988
0.00692308 	-0.00012588 	-0.000552759 	0.378055
0.00697324 	-0.000125246 	-0.000553533 	0.378121
0.00702341 	-0.000124611 	-0.000554308 	0.378188
0.00707358 	-0.000123977 	-0.000555082 	0.378254
0.00712375 	-0.000123342 	-0.000555856 	0.378321
0.00717391 	-0.000122708 	-0.00055663 	0.378387
0.00722408 	-0.000122074 	-0.000557405 	0.378454
0.00727425 	-0.000121439 	-0.000558179 	0.378521
0.00732441 	-0.000120805 	-0.000558953 	0.378587
0.00737458 	-0.000120171 	-0.000559727 	0.378654
0.00742475 	-0.000119536 	-0.000560502 	0.37872
0.00747492 	-0.000118902 	-0.000561276 	0.378787
0.00752508 	-0.000118325 	-0.000561664 	0.378754
0.00757525 	-0.000117806 	-0.000561667 	0.378622
0.00762542 	-0.000117286 	-0.000561669 	0.378491
0.00767559 	-0.000116767 	-0.000561671 	0.378359
0.00772575 	-0.000116248 	-0.000561673 	0.378227
0.00777592 	-0.000115729 	-0.000561675 	0.378095
0.00782609 	-0.000115209 	-0.000561678 	0.377964
0.00787625 	-0.00011469 	-0.00056168 	0.377832
0.00792642 	-0.000114171 	-0.000561682 	0.3777
0.00797659 	-0.000113652 	-0.000561684 	0.377568
0.00802676 	-0.000113133 	-0.000561687 	0.377437
0.00807692 	-0.000112613 	-0.000561689 	0.377305
0.00812709 	-0.000112094 	-0.000561691 	0.377173
0.00817726 	-0.000111575 	-0.000561693 	0.377041
0.00822742 	-0.000111056 	-0.000561696 	0.37691
0.00827759 	-0.000110536 	-0.000561698 	0.376778
0.00832776 	-0.000110017 	-0.0005617 	0.376646
0.00837793 	-0.000109498 	-0.000561702 	0.376515
0.00842809 	-0.000108979 	-0.000561705 	0.376383
0.00847826 	-0.000108459 	-0.000561707 	0.376251
0.00852843 	-0.00010794 	-0.000561709 	0.376119
0.0085786 	-0.000107421 	-0.000561711 	0.375988
0.00862876 	-0.000106902 	-0.000561714 	0.375856
0.00867893 	-0.000106382 	-0.000561716 	0.375724
0.0087291 	-0.000105863 	-0.000561718 	0.375592
0.00877926 	-0.000105344 	-0.00056172 	0.375461
0.00882943 	-0.000104825 	-0.000561723 	0.375329
0.0088796 	-0.000104359 	-0.000561407 	0.375116
0.00892977 	-0.000104 	-0.000560465 	0.374745
0.00897993 	-0.000103641 	-0.000559523 	0.374373
0.0090301 	-0.000103282 	-0.00055858 	0.374001
0.00908027 	-0.000102923 	-0.000557638 	0.373629
0.00913043 	-0.000102564 	-0.000556696 	0.373257
0.0091806 	-0.000102205 	-0.000555754 	0.372886
0.00923077 	-0.000101846 	-0.000554811 	0.372514
0.00928094 	-0.000101487 	-0.000553869 	0.372142
0.0093311 	-0.000101128 	-0.000552927 	0.37177
0.00938127 	-0.000100769 	-0.000551985 	0.371398
0.00943144 	-0.000100411 	-0.000551043 	0.371027
0.00948161 	-0.000100052 	-0.0005501 	0.370655
0.00953177 	-9.96925e-05 	-0.000549158 	0.370283
0.00958194 	-9.93336e-05 	-0.000548216 	0.369911
0.00963211 	-9.89746e-05 	-0.000547274 	0.369539
0.00968227 	-9.86156e-05 	-0.000546332 	0.369168
0.00973244 	-9.82566e-05 	-0.000545389 	0.368796
0.00978261 	-9.78977e-05 	-0.000544447 	0.368424
0.00983278 	-9.75387e-05 	-0.000543505 	0.368052
0.00988294 	-9.71797e-05 	-0.000542563 	0.36768
0.00993311 	-9.68207e-05 	-0.00054162 	0.367309
0.00998328 	-9.64618e-05 	-0.000540678 	0.366937
0.0100334 	-9.61204e-05 	-0.00053968 	0.36655
0.0100836 	-9.61083e-05 	-0.000537635 	0.365895
0.0101338 	-9.60962e-05 	-0.000535591 	0.365239
0.0101839 	-9.60841e-05 	-0.000533546 	0.364584
0.0102341 	-9.6072e-05 	-0.000531501 	0.363928
0.0102843 	-9.60599e-05 	-0.000529456 	0.363272
0.0103344 	-9.60478e-05 	-0.000527412 	0.362617
0.0103846 	-9.60357e-05 	-0.000525367 	0.361961
0.0104348 	-9.60236e-05 	-0.000523322 	0.361306
0.0104849 	-9.60115e-05 	-0.000521277 	0.36065
0.0105351 	-9.59994e-05 	-0.000519233 	0.359994
0.0105853 	-9.59873e-05 	-0.000517188 	0.359339
0.0106355 	-9.59752e-05 	-0.000515143 	0.358683
0.0106856 	-9.59631e-05 	-0.000513098 	0.358028
0.0107358 	-9.5951e-05 	-0.000511054 	0.357372
0.010786 	-9.59389e-05 	-0.000509009 	0.356716
0.0108361 	-9.59268e-05 	-0.000506964 	0.356061
0.0108863 	-9.59147e-05 	-0.000504919 	0.355405
0.0109365 	-9.59026e-05 	-0.000502875 	0.35475
0.0109866 	-9.58905e-05 	-0.00050083 	0.354094
0.0110368 	-9.5934e-05 	-0.000498643 	0.353406
0.011087 	-9.65441e-05 	-0.000495006 	0.352383
0.0111371 	-9.71543e-05 	-0.000491369 	0.35136
0.0111873 	-9.77644e-05 	-0.000487732 	0.350337
0.0112375 	-9.83746e-05 	-0.000484095 	0.349313
0.0112876 	-9.89848e-05 	-0.000480458 	0.34829
0.0113378 	-9.95949e-05 	-0.000476821 	0.347267
0.011388 	-0.000100205 	-0.000473184 	0.346244
0.0114381 	-0.000100815 	-0.000469547 	0.345221
0.0114883 	-0.000101425 	-0.00046591 	0.344198
0.0115385 	-0.000102036 	-0.000462273 	0.343175
0.0115886 	-0.000102646 	-0.000458635 	0.342152
0.0116388 	-0.000103256 	-0.000454998 	0.341129
0.011689 	-0.000103866 	-0.000451361 	0.340106
0.0117391 	-0.000104476 	-0.000447724 	0.339083
0.0117893 	-0.000105086 	-0.000444087 	0.33806
0.0118395 	-0.000105696 	-0.00044045 	0.337037
0.0118896 	-0.000106307 	-0.000436813 	0.336014
0.0119398 	-0.000107797 	-0.00043069 	0.334453
0.01199 	-0.000109308 	-0.000424509 	0.33288
0.0120401 	-0.000110819 	-0.000418329 	0.331307
0.0120903 	-0.00011233 	-0.000412148 	0.329734
0.0121405 	-0.000113841 	-0.000405968 	0.328162
0.0121906 	-0.000115351 	-0.000399787 	0.326589
0.0122408 	-0.000116862 	-0.000393606 	0.325016
0.012291 	-0.000118373 	-0.000387426 	0.323443
0.0123411 	-0.000119884 	-0.000381245 	0.32187
0.0123913 	-0.000121395 	-0.000375064 	0.320297
0.0124415 	-0.000122906 	-0.000368884 	0.318724
0.0124916 	-0.000124416 	-0.000362703 	0.317151
0.0125418 	-0.000125927 	-0.000356523 	0.315578
0.012592 	-0.000127438 	-0.000350342 	0.314005
0.0126421 	-0.000129202 	-0.0003432 	0.312148
0.0126923 	-0.000131533 	-0.000333901 	0.309653
0.0127425 	-0.000133864 	-0.000324601 	0.307158
0.0127926 	-0.000136196 	-0.000315302 	0.304663
0.0128428 	-0.000138527 	-0.000306003 	0.302168
0.012893 	-0.000140858 	-0.000296703 	0.299673
0.0129431 	-0.000143189 	-0.000287404 	0.297178
0.0129933 	-0.000145521 	-0.000278105 	0.294683
0.0130435 	-0.000147852 	-0.000268806 	0.292188
0.0130936 	-0.000150183 	-0.000259506 	0.289693
0.0131438 	-0.000152514 	-0.000250207 	0.287198
0.013194 	-0.000154845 	-0.000240908 	0.284703
0.0132441 	-0.000157177 	-0.000231609 	0.282208
0.0132943 	-0.0001592 	-0.000220722 	0.278499
0.0133445 	-0.000161112 	-0.000209258 	0.274349
0.0133946 	-0.000163023 	-0.000197794 	0.2702
0.0134448 	-0.000164935 	-0.00018633 	0.26605
0.013495 	-0.000166846 	-0.000174866 	0.2619
0.0135452 	-0.000168758 	-0.000163402 	0.257751
0.0135953 	-0.000170669 	-0.000151938 	0.253601
0.0136455 	-0.000172581 	-0.000140475 	0.249451
0.0136957 	-0.000174492 	-0.000129011 	0.245302
0.0137458 	-0.000176404 	-0.000117547 	0.241152
0.013796 	-0.000178315 	-0.000106083 	0.237002
0.0138462 	-0.000176287 	-9.62674e-05 	0.229564
0.0138963 	-0.000174067 	-8.65322e-05 	0.221964
0.0139465 	-0.000171847 	-7.67971e-05 	0.214365
0.0139967 	-0.000169627 	-6.7062e-05 	0.206766
0.0140468 	-0.000167407 	-5.73269e-05 	0.199167
0.014097 	-0.000165187 	-4.75917e-05 	0.191568
0.0141472 	-0.000162967 	-3.78566e-05 	0.183968
0.0141973 	-0.000160747 	-2.81215e-05 	0.176369
0.0142475 	-0.000158527 	-1.83864e-05 	0.16877
0.0142977 	-0.000150997 	-1.3313e-05 	0.158233
0.0143478 	-0.000141324 	-1.01198e-05 	0.146512
0.014398 	-0.000131652 	-6.92657e-06 	0.13479
0.0144482 	-0.000121979 	-3.73336e-06 	0.123068
0.0144983 	-0.000112307 	-5.40141e-07 	0.111347
0.0145485 	-0.000102634 	2.65307e-06 	0.0996251
0.0145987 	-9.29617e-05 	5.84629e-06 	0.0879035
0.0146488 	-8.32892e-05 	9.0395e-06 	0.0761818
0.014699 	-7.18021e-05 	8.57681e-06 	0.0651438
0.0147492 	-5.98351e-05 	7.14734e-06 	0.0542865
0.0147993 	-4.78681e-05 	5.71787e-06 	0.0434292
0.0148495 	-3.5901e-05 	4.2884e-06 	0.0325719
0.0148997 	-2.3934e-05 	2.85894e-06 	0.0217146
0.0149498 	-1.1967e-05 	1.42947e-06 	0.0108573
0.015 	0 	0 	0
