-0.0075 	373
-0.00715932 	361.5
-0.00676191 	359.708
-0.00629832 	358.986
-0.00575752 	358.539
-0.00512667 	358.184
-0.00439077 	357.865
-0.00353231 	357.553
-0.00253089 	357.231
-0.00136271 	356.883
0 	356.496
0.00136271 	356.072
0.00253089 	355.627
0.00353231 	355.168
0.00439077 	354.681
0.00512667 	354.125
0.00575752 	353.421
0.00629832 	352.378
0.00676191 	350.131
0.00715932 	338.762
0.0075 	313
