-0.0075 	0 	0 	0
-0.0075 	-3.59788e-34 	5.59126e-36 	-6.77795e-33
-0.00745622 	-0.000472869 	7.3486e-06 	-0.00890826
-0.00745622 	-0.000472869 	7.3486e-06 	-0.00890826
-0.00741165 	-0.000950867 	1.63784e-05 	-0.0177411
-0.00741165 	-0.000950867 	1.63784e-05 	-0.0177411
-0.00736628 	-0.00142447 	2.72706e-05 	-0.0265967
-0.00736628 	-0.00142447 	2.72706e-05 	-0.0265967
-0.0073201 	-0.00187607 	3.66681e-05 	-0.0355016
-0.0073201 	-0.00187607 	3.66681e-05 	-0.0355016
-0.00727309 	-0.0022983 	4.87596e-05 	-0.0444588
-0.00727309 	-0.0022983 	4.87596e-05 	-0.0444588
-0.00722524 	-0.0026894 	6.23072e-05 	-0.0533988
-0.00722524 	-0.0026894 	6.23072e-05 	-0.0533988
-0.00717653 	-0.00304739 	7.77763e-05 	-0.0622356
-0.00717653 	-0.00304739 	7.77763e-05 	-0.0622356
-0.00712695 	-0.00337049 	9.5072e-05 	-0.0708965
-0.00712695 	-0.00337049 	9.5072e-05 	-0.0708965
-0.00707647 	-0.00365737 	0.000113898 	-0.0793202
-0.00707647 	-0.00365737 	0.000113898 	-0.0793202
-0.0070251 	-0.00390744 	0.000134166 	-0.0874578
-0.0070251 	-0.00390744 	0.000134166 	-0.0874578
-0.0069728 	-0.00412109 	0.000155828 	-0.0952776
-0.0069728 	-0.00412109 	0.000155828 	-0.0952776
-0.00691956 	-0.00429921 	0.000178676 	-0.102766
-0.00691956 	-0.00429921 	0.000178676 	-0.102766
-0.00686537 	-0.00444261 	0.000202697 	-0.109923
-0.00686537 	-0.00444261 	0.000202697 	-0.109923
-0.00681021 	-0.00455218 	0.000227775 	-0.116758
-0.00681021 	-0.00455218 	0.000227775 	-0.116758
-0.00675406 	-0.00462924 	0.000253848 	-0.123285
-0.00675406 	-0.00462924 	0.000253848 	-0.123285
-0.0066969 	-0.00467513 	0.000280881 	-0.129524
-0.0066969 	-0.00467513 	0.000280881 	-0.129524
-0.00663871 	-0.00469116 	0.000308576 	-0.135487
-0.00663871 	-0.00469116 	0.000308576 	-0.135487
-0.00657949 	-0.00467897 	0.000336778 	-0.141194
-0.00657949 	-0.00467897 	0.000336778 	-0.141194
-0.0065192 	-0.0046407 	0.000365555 	-0.146663
-0.0065192 	-0.0046407 	0.000365555 	-0.146663
-0.00645783 	-0.00457856 	0.000394994 	-0.151912
-0.00645783 	-0.00457856 	0.000394994 	-0.151912
-0.00639535 	-0.00449425 	0.000424916 	-0.156947
-0.00639535 	-0.00449425 	0.000424916 	-0.156947
-0.00633176 	-0.00438915 	0.000454746 	-0.16176
-0.00633176 	-0.00438915 	0.000454746 	-0.16176
-0.00626703 	-0.00426526 	0.000484108 	-0.166346
-0.00626703 	-0.00426526 	0.000484108 	-0.166346
-0.00620114 	-0.0041254 	0.000512999 	-0.170718
-0.00620114 	-0.0041254 	0.000512999 	-0.170718
-0.00613406 	-0.00397212 	0.000541438 	-0.174902
-0.00613406 	-0.00397212 	0.000541438 	-0.174902
-0.00606579 	-0.00380723 	0.000569545 	-0.178925
-0.00606579 	-0.00380723 	0.000569545 	-0.178925
-0.00599629 	-0.00363165 	0.000598392 	-0.182808
-0.00599629 	-0.00363165 	0.000598392 	-0.182808
-0.00592554 	-0.00344547 	0.000626068 	-0.186561
-0.00592554 	-0.00344547 	0.000626068 	-0.186561
-0.00585352 	-0.0032506 	0.000649032 	-0.190213
-0.00585352 	-0.0032506 	0.000649032 	-0.190213
-0.00578022 	-0.00305452 	0.00067153 	-0.193843
-0.00578022 	-0.00305452 	0.00067153 	-0.193843
-0.00570559 	-0.00286245 	0.0006999 	-0.197564
-0.00570559 	-0.00286245 	0.0006999 	-0.197564
-0.00562963 	-0.00266547 	0.000735323 	-0.2014
-0.00562963 	-0.00266547 	0.000735323 	-0.2014
-0.00555231 	-0.00244589 	0.000767179 	-0.205137
-0.00555231 	-0.00244589 	0.000767179 	-0.205137
-0.0054736 	-0.00219886 	0.000783506 	-0.208498
-0.0054736 	-0.00219886 	0.000783506 	-0.208498
-0.00539348 	-0.0019432 	0.000793292 	-0.211498
-0.00539348 	-0.0019432 	0.000793292 	-0.211498
-0.00531193 	-0.00170052 	0.000808624 	-0.21436
-0.00531193 	-0.00170052 	0.000808624 	-0.21436
-0.00522891 	-0.00147554 	0.000831137 	-0.217214
-0.00522891 	-0.00147554 	0.000831137 	-0.217214
-0.0051444 	-0.00125853 	0.000856226 	-0.220012
-0.0051444 	-0.00125853 	0.000856226 	-0.220012
-0.00505838 	-0.00103332 	0.000876207 	-0.222653
-0.00505838 	-0.00103332 	0.000876207 	-0.222653
-0.00497081 	-0.000787951 	0.00088992 	-0.225108
-0.00497081 	-0.000787951 	0.00088992 	-0.225108
-0.00488168 	-0.00052567 	0.000898805 	-0.227439
-0.00488168 	-0.00052567 	0.000898805 	-0.227439
-0.00479094 	-0.000268502 	0.000905855 	-0.229779
-0.00479094 	-0.000268502 	0.000905855 	-0.229779
-0.00469858 	-4.54495e-05 	0.00091844 	-0.232279
-0.00469858 	-4.54495e-05 	0.00091844 	-0.232279
-0.00460456 	0.000137568 	0.000935383 	-0.234939
-0.00460456 	0.000137568 	0.000935383 	-0.234939
-0.00450886 	0.000305665 	0.000944512 	-0.237543
-0.00450886 	0.000305665 	0.000944512 	-0.237543
-0.00441144 	0.00048333 	0.000942407 	-0.239895
-0.00441144 	0.00048333 	0.000942407 	-0.239895
-0.00431227 	0.000681083 	0.000938901 	-0.241962
-0.00431227 	0.000681083 	0.000938901 	-0.241962
-0.00421133 	0.000906167 	0.000943564 	-0.243752
-0.00421133 	0.000906167 	0.000943564 	-0.243752
-0.00410857 	0.00116633 	0.000942979 	-0.245234
-0.00410857 	0.00116633 	0.000942979 	-0.245234
-0.00400397 	0.00144822 	0.00091851 	-0.246517
-0.00400397 	0.00144822 	0.00091851 	-0.246517
-0.0038975 	0.00167602 	0.000898435 	-0.248158
-0.0038975 	0.00167602 	0.000898435 	-0.248158
-0.00378912 	0.00174671 	0.000925 	-0.251053
-0.00378912 	0.00174671 	0.000925 	-0.251053
-0.00367879 	0.00166968 	0.000982046 	-0.255314
-0.00367879 	0.00166968 	0.000982046 	-0.255314
-0.00356649 	0.00162924 	0.000981265 	-0.259108
-0.00356649 	0.00162924 	0.000981265 	-0.259108
-0.00345217 	0.00174369 	0.000918252 	-0.261129
-0.00345217 	0.00174369 	0.000918252 	-0.261129
-0.0033358 	0.00194434 	0.000878905 	-0.262156
-0.0033358 	0.00194434 	0.000878905 	-0.262156
-0.00321735 	0.00213774 	0.000878261 	-0.263066
-0.00321735 	0.00213774 	0.000878261 	-0.263066
-0.00309677 	0.00228892 	0.000882776 	-0.264106
-0.00309677 	0.00228892 	0.000882776 	-0.264106
-0.00297403 	0.00241166 	0.000872816 	-0.265192
-0.00297403 	0.00241166 	0.000872816 	-0.265192
-0.00284909 	0.00252078 	0.00085475 	-0.26624
-0.00284909 	0.00252078 	0.00085475 	-0.26624
-0.0027219 	0.00261925 	0.000836797 	-0.267231
-0.0027219 	0.00261925 	0.000836797 	-0.267231
-0.00259244 	0.0027078 	0.00081928 	-0.268161
-0.00259244 	0.0027078 	0.00081928 	-0.268161
-0.00246065 	0.00278702 	0.000801121 	-0.269032
-0.00246065 	0.00278702 	0.000801121 	-0.269032
-0.00232651 	0.00285869 	0.000783925 	-0.269839
-0.00232651 	0.00285869 	0.000783925 	-0.269839
-0.00218995 	0.00293509 	0.000771142 	-0.270533
-0.00218995 	0.00293509 	0.000771142 	-0.270533
-0.00205095 	0.00304111 	0.000760243 	-0.270997
-0.00205095 	0.00304111 	0.000760243 	-0.270997
-0.00190946 	0.00318193 	0.000743872 	-0.271203
-0.00190946 	0.00318193 	0.000743872 	-0.271203
-0.00176543 	0.0032796 	0.000720529 	-0.271543
-0.00176543 	0.0032796 	0.000720529 	-0.271543
-0.00161881 	0.00319812 	0.00071888 	-0.272695
-0.00161881 	0.00319812 	0.00071888 	-0.272695
-0.00146957 	0.00301125 	0.000740003 	-0.274192
-0.00146957 	0.00301125 	0.000740003 	-0.274192
-0.00131765 	0.00288404 	0.00073983 	-0.275147
-0.00131765 	0.00288404 	0.00073983 	-0.275147
-0.001163 	0.00283267 	0.000720599 	-0.275566
-0.001163 	0.00283267 	0.000720599 	-0.275566
-0.00100559 	0.00281898 	0.000708411 	-0.275701
-0.00100559 	0.00281898 	0.000708411 	-0.275701
-0.000845345 	0.00279946 	0.000697274 	-0.275757
-0.000845345 	0.00279946 	0.000697274 	-0.275757
-0.000682232 	0.00276351 	0.000686264 	-0.275764
-0.000682232 	0.00276351 	0.000686264 	-0.275764
-0.000516194 	0.00271506 	0.000683182 	-0.275702
-0.000516194 	0.00271506 	0.000683182 	-0.275702
-0.000347178 	0.00265528 	0.000680702 	-0.275558
-0.000347178 	0.00265528 	0.000680702 	-0.275558
-0.000175132 	0.00258209 	0.00069243 	-0.275329
-0.000175132 	0.00258209 	0.00069243 	-0.275329
0 	0.0024969 	0.000716419 	-0.275006
0 	0.0024969 	0.000716419 	-0.275006
0 	0.0024969 	0.000716419 	-0.275006
0 	0.0024969 	0.000716419 	-0.275006
0.000175132 	0.0024113 	0.000733985 	-0.274536
0.000175132 	0.00401018 	0.00460751 	-0.275345
0.000347178 	0.0023317 	0.000742641 	-0.273881
0.000347178 	0.0039258 	0.00464308 	-0.273566
0.000516194 	0.00224558 	0.000735088 	-0.273129
0.000516194 	0.00384513 	0.00465322 	-0.271828
0.000682232 	0.00213533 	0.000727464 	-0.272392
0.000682232 	0.00375677 	0.00463817 	-0.270147
0.000845345 	0.00199708 	0.000732751 	-0.271685
0.000845345 	0.00366191 	0.00464243 	-0.268496
0.00100559 	0.00183818 	0.000747424 	-0.270994
0.00100559 	0.00354107 	0.00472971 	-0.267144
0.001163 	0.00166135 	0.00076333 	-0.270396
0.001163 	0.00334288 	0.00483715 	-0.266934
0.00131765 	0.00146715 	0.000753914 	-0.269916
0.00131765 	0.00304635 	0.00476633 	-0.268094
0.00146957 	0.00126695 	0.000707491 	-0.269197
0.00146957 	0.00271053 	0.00444206 	-0.268048
0.00161881 	0.00109165 	0.000675778 	-0.267412
0.00161881 	0.00253073 	0.00422375 	-0.260888
0.00176543 	0.000953223 	0.00070951 	-0.264534
0.00176543 	0.00260219 	0.00444643 	-0.24644
0.00190946 	0.000818803 	0.00075577 	-0.261842
0.00190946 	0.00276531 	0.0047471 	-0.2339
0.00205095 	0.000665109 	0.000753862 	-0.259977
0.00205095 	0.00291481 	0.00476087 	-0.227937
0.00218995 	0.00049358 	0.000727712 	-0.258616
0.00218995 	0.00297796 	0.00463894 	-0.225863
0.00232651 	0.000311947 	0.000721796 	-0.257476
0.00232651 	0.00290489 	0.00462909 	-0.225197
0.00246065 	0.000126277 	0.000720234 	-0.256464
0.00246065 	0.00273972 	0.00468929 	-0.225292
0.00259244 	-7.30558e-05 	0.000671814 	-0.255602
0.00259244 	0.00250017 	0.00453033 	-0.226152
0.0027219 	-0.000305317 	0.000594068 	-0.254651
0.0027219 	0.00217957 	0.00409346 	-0.225677
0.00284909 	-0.00056726 	0.000602075 	-0.253011
0.00284909 	0.00183091 	0.00388804 	-0.21985
0.00297403 	-0.000803012 	0.000702915 	-0.250614
0.00297403 	0.00157662 	0.00409955 	-0.210596
0.00309677 	-0.000936301 	0.000732653 	-0.24776
0.00309677 	0.00144794 	0.00432745 	-0.203518
0.00321735 	-0.000995327 	0.000657199 	-0.244939
0.00321735 	0.0013519 	0.00438964 	-0.199805
0.0033358 	-0.00107269 	0.000590303 	-0.242691
0.0033358 	0.0011676 	0.00432312 	-0.198359
0.00345217 	-0.00119941 	0.00059134 	-0.240956
0.00345217 	0.000881164 	0.00421873 	-0.198056
0.00356649 	-0.00136038 	0.000606369 	-0.239536
0.00356649 	0.000591148 	0.00408989 	-0.198412
0.00367879 	-0.00153334 	0.000558776 	-0.238217
0.00367879 	0.000350426 	0.00385193 	-0.198875
0.00378912 	0.00011522 	0.0035518 	-0.196968
0.00378912 	-0.00171506 	0.000483107 	-0.236578
0.0038975 	-0.00190564 	0.0004712 	-0.234244
0.0038975 	-0.000148896 	0.00349766 	-0.190201
0.00400397 	-0.00209168 	0.000510358 	-0.231601
0.00400397 	-0.000391759 	0.00360394 	-0.181724
0.00410857 	-0.00225948 	0.000526072 	-0.229183
0.00410857 	-0.000585828 	0.00360319 	-0.176026
0.00421133 	-0.00240218 	0.000492469 	-0.226984
0.00421133 	-0.000739527 	0.00354781 	-0.173368
0.00431227 	-0.00252312 	0.000443037 	-0.2249
0.00431227 	-0.000870977 	0.003505 	-0.17227
0.00441144 	-0.00263641 	0.000416671 	-0.222881
0.00441144 	-0.00102024 	0.00346199 	-0.171405
0.00450886 	-0.00275351 	0.000397341 	-0.220895
0.00450886 	-0.00118051 	0.00329689 	-0.170296
0.00460456 	-0.00287769 	0.000373912 	-0.218862
0.00460456 	-0.00132463 	0.00308541 	-0.168639
0.00469858 	-0.00300535 	0.000356622 	-0.216684
0.00469858 	-0.00145177 	0.00300784 	-0.16614
0.00479094 	-0.00312966 	0.00034528 	-0.214376
0.00479094 	-0.00156557 	0.00300925 	-0.163146
0.00488168 	-0.00324597 	0.00033292 	-0.212022
0.00488168 	-0.00167209 	0.00297583 	-0.160337
0.00497081 	-0.00335247 	0.000312473 	-0.20966
0.00497081 	-0.00177338 	0.00286139 	-0.15797
0.00505838 	-0.00344937 	0.000287535 	-0.207271
0.00505838 	-0.0018651 	0.00271632 	-0.155915
0.0051444 	-0.00353851 	0.000266835 	-0.204832
0.0051444 	-0.00194913 	0.0026237 	-0.153969
0.00522891 	-0.00362112 	0.000248178 	-0.202332
0.00522891 	-0.00202607 	0.00255886 	-0.15202
0.00531193 	-0.00209242 	0.00248223 	-0.150031
0.00531193 	-0.0036973 	0.000228871 	-0.199771
0.00539348 	-0.00376679 	0.000210234 	-0.197145
0.00539348 	-0.00214621 	0.00239506 	-0.147995
0.0054736 	-0.00382916 	0.000192281 	-0.194447
0.0054736 	-0.002187 	0.00230151 	-0.145921
0.00555231 	-0.00388394 	0.000174809 	-0.191669
0.00555231 	-0.00221529 	0.00220782 	-0.143819
0.00562963 	-0.00393076 	0.0001578 	-0.188799
0.00562963 	-0.0022318 	0.00211698 	-0.141694
0.00570559 	-0.00396941 	0.000141437 	-0.185826
0.00570559 	-0.00223682 	0.00202864 	-0.139543
0.00578022 	-0.00399963 	0.000125793 	-0.182738
0.00578022 	-0.00222982 	0.00194123 	-0.137358
0.00585352 	-0.00402111 	0.000110861 	-0.179521
0.00585352 	-0.00220987 	0.00185402 	-0.135128
0.00592554 	-0.00403346 	9.6598e-05 	-0.176168
0.00592554 	-0.00217601 	0.00176683 	-0.132841
0.00599629 	-0.00403618 	8.30559e-05 	-0.172665
0.00599629 	-0.00212754 	0.0016794 	-0.130483
0.00606579 	-0.00206422 	0.00159203 	-0.128036
0.00606579 	-0.00402879 	7.04992e-05 	-0.168997
0.00613406 	-0.0040107 	5.90845e-05 	-0.165144
0.00613406 	-0.00198628 	0.00150537 	-0.125479
0.00620114 	-0.00398113 	4.87548e-05 	-0.16108
0.00620114 	-0.00189443 	0.00141996 	-0.122784
0.00626703 	-0.00393919 	3.94306e-05 	-0.156783
0.00626703 	-0.00178978 	0.00133599 	-0.119916
0.00633176 	-0.00388416 	3.11267e-05 	-0.152225
0.00633176 	-0.00167338 	0.00125318 	-0.116835
0.00639535 	-0.00381567 	2.39601e-05 	-0.147383
0.00639535 	-0.00154597 	0.00117147 	-0.113503
0.00645783 	-0.00373357 	1.81644e-05 	-0.142238
0.00645783 	-0.00140814 	0.00109168 	-0.109891
0.0065192 	-0.00363738 	1.38072e-05 	-0.136773
0.0065192 	-0.00125966 	0.00101434 	-0.105992
0.00657949 	-0.00352632 	1.05192e-05 	-0.130974
0.00657949 	-0.00109915 	0.000938921 	-0.101832
0.00663871 	-0.0034 	7.97669e-06 	-0.124827
0.00663871 	-0.000925709 	0.000864571 	-0.0974243
0.0066969 	-0.00325859 	6.2752e-06 	-0.118314
0.0066969 	-0.000740874 	0.000791089 	-0.0927325
0.00675406 	-0.00310239 	5.74101e-06 	-0.111411
0.00675406 	-0.000550786 	0.000719648 	-0.0877144
0.00681021 	-0.0029313 	6.36186e-06 	-0.104111
0.00681021 	-0.000365638 	0.000650776 	-0.0823571
0.00686537 	-0.00274497 	7.59561e-06 	-0.0964383
0.00686537 	-0.000196013 	0.000584055 	-0.0766772
0.00691956 	-0.00254364 	8.99833e-06 	-0.0884545
0.00691956 	-5.04548e-05 	0.000519542 	-0.0707141
0.0069728 	-0.00232885 	1.03457e-05 	-0.0802531
0.0069728 	6.56351e-05 	0.00045719 	-0.0645178
0.0070251 	-0.00210347 	1.12879e-05 	-0.0719527
0.0070251 	0.00015098 	0.000397054 	-0.0581438
0.00707647 	-0.00187143 	1.14876e-05 	-0.0636808
0.00707647 	0.000208762 	0.000339322 	-0.0516488
0.00712695 	-0.00163727 	1.07773e-05 	-0.055552
0.00712695 	0.000246057 	0.00028411 	-0.0450918
0.00717653 	-0.00140541 	9.1197e-06 	-0.0476516
0.00717653 	0.000272809 	0.000231656 	-0.038541
0.00722524 	-0.00117956 	6.60768e-06 	-0.0400308
0.00722524 	0.000301436 	0.000181897 	-0.0320904
0.00727309 	-0.000962637 	3.50003e-06 	-0.0327155
0.00727309 	0.000347966 	0.000135858 	-0.0258846
0.0073201 	-0.000757191 	2.65228e-07 	-0.0257206
0.0073201 	0.000435157 	9.72e-05 	-0.0201571
0.00736628 	-0.000566191 	-2.53941e-06 	-0.0190412
0.00736628 	0.000597799 	5.17403e-05 	-0.015264
0.00741165 	-0.000385022 	-3.17439e-06 	-0.0126083
0.00741165 	0.000735277 	2.86813e-05 	-0.0110825
0.00745622 	-0.000198358 	-2.21631e-06 	-0.00630139
0.00745622 	0.000566606 	1.19962e-05 	-0.00639537
0.0075 	0 	0 	0
0.0075 	0 	0 	0
