0 	0 	0 	0
0 	0 	0 	0
0.00752508 	0.00248464 	0.000718935 	-0.274939
0.00752508 	0.00248464 	0.000718935 	-0.274939
0.00757525 	0.00246012 	0.000723967 	-0.274804
0.00762542 	0.0024356 	0.000728999 	-0.27467
0.00762542 	0.0024356 	0.000728999 	-0.27467
0.00767559 	0.00241109 	0.000734008 	-0.274535
0.00772575 	0.00238788 	0.000736532 	-0.274344
0.00777592 	0.00236467 	0.000739056 	-0.274153
0.00782609 	0.00234146 	0.00074158 	-0.273961
0.00782609 	0.00234146 	0.00074158 	-0.273961
0.00787625 	0.00231688 	0.000741342 	-0.273752
0.00792642 	0.00229132 	0.0007391 	-0.273528
0.00797659 	0.00226576 	0.000736858 	-0.273305
0.00802676 	0.00223857 	0.000734603 	-0.273082
0.00802676 	0.00223857 	0.000734603 	-0.273082
0.00807692 	0.00220526 	0.000732299 	-0.272859
0.00812709 	0.00217194 	0.000729996 	-0.272637
0.00812709 	0.00217194 	0.000729996 	-0.272637
0.00817726 	0.00213863 	0.000727692 	-0.272414
0.00822742 	0.00209702 	0.000728929 	-0.272196
0.00822742 	0.00209702 	0.000728929 	-0.272196
0.00827759 	0.00205451 	0.000730555 	-0.271979
0.00832776 	0.00201199 	0.000732181 	-0.271761
0.00832776 	0.00201199 	0.000732181 	-0.271761
0.00837793 	0.00196478 	0.000735734 	-0.271544
0.00842809 	0.00191503 	0.000740328 	-0.271328
0.00842809 	0.00191503 	0.000740328 	-0.271328
0.00847826 	0.00186528 	0.000744922 	-0.271112
0.00847826 	0.00186528 	0.000744922 	-0.271112
0.00852843 	0.00181252 	0.000749732 	-0.270907
0.00852843 	0.00181252 	0.000749732 	-0.270907
0.0085786 	0.00175617 	0.000754801 	-0.270717
0.0085786 	0.00175617 	0.000754801 	-0.270717
0.00862876 	0.00169981 	0.00075987 	-0.270526
0.00867893 	0.00164135 	0.00076236 	-0.270347
0.00867893 	0.00164135 	0.00076236 	-0.270347
0.0087291 	0.00157835 	0.000759306 	-0.270191
0.00877926 	0.00151535 	0.000756251 	-0.270035
0.00877926 	0.00151535 	0.000756251 	-0.270035
0.00882943 	0.00145162 	0.000750313 	-0.26986
0.0088796 	0.00138551 	0.000734983 	-0.269623
0.0088796 	0.00138551 	0.000734983 	-0.269623
0.00897993 	0.00125477 	0.000705288 	-0.269073
0.00897993 	0.00125477 	0.000705288 	-0.269073
0.0090301 	0.00119585 	0.000694628 	-0.268473
0.00908027 	0.00113692 	0.000683968 	-0.267873
0.00908027 	0.00113692 	0.000683968 	-0.267873
0.00913043 	0.00108067 	0.000678452 	-0.267184
0.0091806 	0.00103331 	0.000689994 	-0.266199
0.0091806 	0.00103331 	0.000689994 	-0.266199
0.00923077 	0.000985943 	0.000701536 	-0.265214
0.00928094 	0.000938747 	0.000714492 	-0.264244
0.00928094 	0.000938747 	0.000714492 	-0.264244
0.0093311 	0.000891928 	0.000730604 	-0.263307
0.00938127 	0.000845108 	0.000746717 	-0.262369
0.00938127 	0.000845108 	0.000746717 	-0.262369
0.00943144 	0.000794927 	0.000755474 	-0.261553
0.00943144 	0.000794927 	0.000755474 	-0.261553
0.00948161 	0.000740434 	0.000754797 	-0.260891
0.00948161 	0.000740434 	0.000754797 	-0.260891
0.00953177 	0.000685942 	0.000754121 	-0.26023
0.00953177 	0.000685942 	0.000754121 	-0.26023
0.00958194 	0.00062687 	0.000748033 	-0.259674
0.00958194 	0.00062687 	0.000748033 	-0.259674
0.00963211 	0.000564963 	0.000738595 	-0.259182
0.00963211 	0.000564963 	0.000738595 	-0.259182
0.00968227 	0.000503056 	0.000729157 	-0.258691
0.00968227 	0.000503056 	0.000729157 	-0.258691
0.00973244 	0.000437066 	0.000725872 	-0.258261
0.00978261 	0.000370337 	0.000723698 	-0.257842
0.00983278 	0.00030327 	0.000721723 	-0.257429
0.00988294 	0.000233835 	0.000721139 	-0.25705
0.00988294 	0.000233835 	0.000721139 	-0.25705
0.00993311 	0.0001644 	0.000720554 	-0.256672
0.00998328 	9.20585e-05 	0.000711922 	-0.256316
0.00998328 	9.20585e-05 	0.000711922 	-0.256316
0.0100334 	1.61774e-05 	0.000693489 	-0.255988
0.0100334 	1.61774e-05 	0.000693489 	-0.255988
0.0100836 	-5.97036e-05 	0.000675057 	-0.25566
0.0101338 	-0.000147221 	0.000646988 	-0.255298
0.0101338 	-0.000147221 	0.000646988 	-0.255298
0.0102341 	-0.000330466 	0.000594836 	-0.254493
0.0102341 	-0.000330466 	0.000594836 	-0.254493
0.0102843 	-0.00043379 	0.000597995 	-0.253847
0.0103344 	-0.000537113 	0.000601154 	-0.2532
0.0103344 	-0.000537113 	0.000601154 	-0.2532
0.0103846 	-0.000634301 	0.000630752 	-0.25233
0.0103846 	-0.000634301 	0.000630752 	-0.25233
0.0104348 	-0.000728961 	0.000671241 	-0.251367
0.0104849 	-0.000814873 	0.000705561 	-0.25036
0.0104849 	-0.000814873 	0.000705561 	-0.25036
0.0105351 	-0.000869351 	0.000717716 	-0.249193
0.0105853 	-0.00092383 	0.00072987 	-0.248027
0.0105853 	-0.00092383 	0.00072987 	-0.248027
0.0106355 	-0.000955237 	0.000708446 	-0.246855
0.0106856 	-0.000979795 	0.000677053 	-0.245681
0.0106856 	-0.000979795 	0.000677053 	-0.245681
0.0107358 	-0.00100737 	0.000646786 	-0.244589
0.0107358 	-0.00100737 	0.000646786 	-0.244589
0.010786 	-0.00104013 	0.000618455 	-0.243637
0.010786 	-0.00104013 	0.000618455 	-0.243637
0.0108361 	-0.00107303 	0.000590306 	-0.242686
0.0108361 	-0.00107303 	0.000590306 	-0.242686
0.0108863 	-0.00112767 	0.000590753 	-0.241938
0.0109365 	-0.0011823 	0.0005912 	-0.24119
0.0109365 	-0.0011823 	0.0005912 	-0.24119
0.0109866 	-0.00124792 	0.00059587 	-0.240528
0.0109866 	-0.00124792 	0.00059587 	-0.240528
0.0110368 	-0.00131856 	0.000602465 	-0.239905
0.011087 	-0.00139191 	0.000597695 	-0.239296
0.011087 	-0.00139191 	0.000597695 	-0.239296
0.0111371 	-0.00146917 	0.000576435 	-0.238706
0.0111873 	-0.00154734 	0.000552947 	-0.23809
0.0111873 	-0.00154734 	0.000552947 	-0.23809
0.0112375 	-0.00162997 	0.000518539 	-0.237345
0.0112876 	-0.0017126 	0.000484131 	-0.2366
0.0112876 	-0.0017126 	0.000484131 	-0.2366
0.0113378 	-0.00180065 	0.00047776 	-0.23553
0.011388 	-0.00188886 	0.000472248 	-0.23445
0.011388 	-0.00188886 	0.000472248 	-0.23445
0.0114883 	-0.00206428 	0.000504592 	-0.23199
0.0114883 	-0.00206428 	0.000504592 	-0.23199
0.0115385 	-0.002147 	0.000515539 	-0.230804
0.0115886 	-0.00222748 	0.000523076 	-0.229644
0.0115886 	-0.00222748 	0.000523076 	-0.229644
0.0116388 	-0.00230145 	0.000516188 	-0.228536
0.011689 	-0.00237112 	0.000499782 	-0.227462
0.011689 	-0.00237112 	0.000499782 	-0.227462
0.0117391 	-0.00243549 	0.000478854 	-0.22641
0.0117893 	-0.0024956 	0.000454287 	-0.225374
0.0117893 	-0.0024956 	0.000454287 	-0.225374
0.0118395 	-0.00255419 	0.000435807 	-0.224346
0.0118896 	-0.0026115 	0.000422469 	-0.223325
0.0118896 	-0.0026115 	0.000422469 	-0.223325
0.0119398 	-0.0026705 	0.000411044 	-0.222303
0.0119398 	-0.0026705 	0.000411044 	-0.222303
0.01199 	-0.0027308 	0.00040109 	-0.22128
0.01199 	-0.0027308 	0.00040109 	-0.22128
0.0120401 	-0.00279409 	0.000389685 	-0.220231
0.0120401 	-0.00279409 	0.000389685 	-0.220231
0.0120903 	-0.00285919 	0.000377403 	-0.219165
0.0120903 	-0.00285919 	0.000377403 	-0.219165
0.0121405 	-0.00292645 	0.000367309 	-0.21803
0.0121405 	-0.00292645 	0.000367309 	-0.21803
0.0121906 	-0.00299457 	0.000358083 	-0.216868
0.0121906 	-0.00299457 	0.000358083 	-0.216868
0.0122408 	-0.00306218 	0.000351437 	-0.215629
0.0122408 	-0.00306218 	0.000351437 	-0.215629
0.012291 	-0.0031297 	0.000345276 	-0.214375
0.012291 	-0.0031297 	0.000345276 	-0.214375
0.0123411 	-0.00319401 	0.000338442 	-0.213074
0.0123411 	-0.00319401 	0.000338442 	-0.213074
0.0123913 	-0.00325747 	0.000330711 	-0.211767
0.0123913 	-0.00325747 	0.000330711 	-0.211767
0.0124415 	-0.00331741 	0.000319203 	-0.210437
0.0124916 	-0.00337552 	0.000306541 	-0.209092
0.0124916 	-0.00337552 	0.000306541 	-0.209092
0.012592 	-0.00348418 	0.000279451 	-0.206319
0.012592 	-0.00348418 	0.000279451 	-0.206319
0.0126421 	-0.00353617 	0.000267379 	-0.204896
0.0126923 	-0.00358534 	0.000256259 	-0.203415
0.0126923 	-0.00358534 	0.000256259 	-0.203415
0.0127425 	-0.00363357 	0.000245023 	-0.201914
0.0127425 	-0.00363357 	0.000245023 	-0.201914
0.0127926 	-0.0036796 	0.000233356 	-0.200366
0.0128428 	-0.00372361 	0.000221814 	-0.198777
0.0128428 	-0.00372361 	0.000221814 	-0.198777
0.012893 	-0.00376636 	0.00021035 	-0.197161
0.0129431 	-0.00380545 	0.000199106 	-0.195473
0.0129431 	-0.00380545 	0.000199106 	-0.195473
0.0129933 	-0.00384288 	0.000187906 	-0.193751
0.0130435 	-0.00387779 	0.00017677 	-0.191981
0.0130435 	-0.00387779 	0.00017677 	-0.191981
0.0130936 	-0.00390897 	0.000165717 	-0.190135
0.0131438 	-0.00393798 	0.000154746 	-0.188244
0.0131438 	-0.00393798 	0.000154746 	-0.188244
0.013194 	-0.0039635 	0.000143939 	-0.186281
0.0132441 	-0.00398502 	0.000133355 	-0.184231
0.0132441 	-0.00398502 	0.000133355 	-0.184231
0.0132943 	-0.00400376 	0.000122922 	-0.182119
0.0133445 	-0.00401846 	0.000112703 	-0.179918
0.0133445 	-0.00401846 	0.000112703 	-0.179918
0.0133946 	-0.00402816 	0.000102716 	-0.177606
0.0134448 	-0.0040342 	9.29082e-05 	-0.175213
0.0134448 	-0.0040342 	9.29082e-05 	-0.175213
0.013495 	-0.00403613 	8.33054e-05 	-0.17273
0.0135452 	-0.00403098 	7.42278e-05 	-0.170087
0.0135452 	-0.00403098 	7.42278e-05 	-0.170087
0.0136455 	-0.00400566 	5.73257e-05 	-0.164452
0.0136455 	-0.00400566 	5.73257e-05 	-0.164452
0.0136957 	-0.00398355 	4.95998e-05 	-0.161413
0.0137458 	-0.0039527 	4.24322e-05 	-0.158166
0.0137458 	-0.0039527 	4.24322e-05 	-0.158166
0.013796 	-0.00391458 	3.57161e-05 	-0.154744
0.0138462 	-0.00386866 	2.95049e-05 	-0.151129
0.0138462 	-0.00386866 	2.95049e-05 	-0.151129
0.0138963 	-0.0038144 	2.38704e-05 	-0.147304
0.0138963 	-0.0038144 	2.38704e-05 	-0.147304
0.0139465 	-0.00374847 	1.92161e-05 	-0.143172
0.0139967 	-0.00367271 	1.54075e-05 	-0.13878
0.0139967 	-0.00367271 	1.54075e-05 	-0.13878
0.0140468 	-0.00358649 	1.23005e-05 	-0.134115
0.0140468 	-0.00358649 	1.23005e-05 	-0.134115
0.014097 	-0.00348898 	9.76777e-06 	-0.129157
0.0141472 	-0.00337947 	7.72974e-06 	-0.123882
0.0141973 	-0.00325742 	6.2712e-06 	-0.118262
0.0141973 	-0.00325742 	6.2712e-06 	-0.118262
0.0142475 	-0.00312033 	5.80236e-06 	-0.112203
0.0142977 	-0.00296954 	6.22311e-06 	-0.105742
0.0143478 	-0.00280423 	7.20322e-06 	-0.0988785
0.0143478 	-0.00280423 	7.20322e-06 	-0.0988785
0.014398 	-0.00262378 	8.44003e-06 	-0.0916321
0.014398 	-0.00262378 	8.44003e-06 	-0.0916321
0.0144482 	-0.00242826 	9.72211e-06 	-0.0840487
0.0144983 	-0.00221883 	1.08056e-05 	-0.0762014
0.0144983 	-0.00221883 	1.08056e-05 	-0.0762014
0.0145485 	-0.00199779 	1.13789e-05 	-0.0681857
0.0145987 	-0.00176849 	1.11753e-05 	-0.0601075
0.0145987 	-0.00176849 	1.11753e-05 	-0.0601075
0.0146488 	-0.00153494 	1.00458e-05 	-0.0520654
0.014699 	-0.00130124 	7.96111e-06 	-0.0441367
0.014699 	-0.00130124 	7.96111e-06 	-0.0441367
0.0147492 	-0.00107111 	5.05402e-06 	-0.0363735
0.0147993 	-0.000847964 	1.69447e-06 	-0.0288112
0.0147993 	-0.000847964 	1.69447e-06 	-0.0288112
0.0148495 	-0.000635606 	-1.52012e-06 	-0.0214687
0.0148495 	-0.000635606 	-1.52012e-06 	-0.0214687
0.0148997 	-0.000432877 	-3.00666e-06 	-0.0143075
0.0148997 	-0.000432877 	-3.00666e-06 	-0.0143075
0.0149498 	-0.000225097 	-2.35356e-06 	-0.00720485
0.0149498 	-0.000225097 	-2.35356e-06 	-0.00720485
0.015 	0 	0 	0
