/*--------------------------------*- C++ -*----------------------------------*\
| =========                 |                                                 |
| \\      /  F ield         | OpenFOAM: The Open Source CFD Toolbox           |
|  \\    /   O peration     | Version:  v1912                                 |
|   \\  /    A nd           | Website:  www.openfoam.com                      |
|    \\/     M anipulation  |                                                 |
\*---------------------------------------------------------------------------*/
FoamFile
{
    version     2.0;
    format      ascii;
    class       volScalarField;
    location    "9.6";
    object      heatTransferCoeff(T);
}
// * * * * * * * * * * * * * * * * * * * * * * * * * * * * * * * * * * * * * //

dimensions      [1 0 -3 -1 0 0 0];


internalField   uniform 0;

boundaryField
{
    leftWall
    {
        type            calculated;
        value           nonuniform List<scalar> 
216
(
-225.504
-230.346
-238.505
-244.009
-253.45
-260.23
-271.865
-281.214
-296.426
-309.935
-330.587
-350.945
-380.498
-412.897
-464.915
-547.74
-811.497
-2784.71
-223.759
-228.818
-237.385
-243.086
-252.741
-259.397
-270.664
-279.344
-293.965
-307.374
-328.541
-349.65
-379.586
-412.11
-463.793
-544.387
-804.686
-2787.11
-221.849
-226.508
-234.679
-240.279
-249.863
-256.833
-268.353
-277.724
-293.063
-307.929
-330.59
-353.268
-383.406
-415.013
-464.665
-545.11
-811.956
-2773.25
-220.668
-225.563
-233.8
-239.893
-249.697
-257.101
-268.509
-277.674
-291.997
-305.834
-327.158
-349.368
-379.502
-412.459
-464.696
-549.867
-817.791
-2774.03
-218.689
-223.563
-231.811
-238.146
-248.237
-256.022
-267.614
-276.636
-290.217
-302.672
-322.082
-342.329
-371.558
-406.251
-463.254
-553.415
-823.616
-2790.32
-218.008
-222.529
-230.552
-236.689
-246.815
-254.817
-267.059
-276.971
-291.708
-304.712
-323.864
-342.858
-371.889
-408.421
-466.922
-552.52
-819.668
-2802.5
-219.442
-223.817
-231.603
-237.164
-246.535
-253.519
-264.971
-274.448
-289.648
-303.571
-324.081
-344.054
-373.816
-409.673
-466.611
-550.741
-813.998
-2786.86
-221.255
-225.615
-233.222
-238.353
-247.291
-253.76
-264.8
-273.753
-288.504
-301.974
-322.513
-343.064
-373.694
-409.179
-464.032
-546.568
-811.364
-2785.55
-223.878
-228.368
-236.061
-241.14
-250.313
-257.124
-268.971
-278.677
-294.064
-307.309
-326.777
-345.161
-373.062
-406.174
-460.904
-546.088
-814.872
-2785.65
-226.036
-230.614
-238.551
-243.746
-253.1
-259.831
-271.725
-281.219
-296.439
-309.041
-327.814
-345.367
-372.762
-404.841
-458.276
-543.766
-813.415
-2784.08
-226.319
-231.329
-239.885
-245.969
-256.271
-263.932
-276.387
-285.93
-300.533
-312.015
-329.536
-346.549
-374.97
-408.926
-462.116
-544.025
-810.546
-2780.04
-223.713
-229.576
-239.011
-246.106
-257.28
-265.746
-278.572
-288.214
-302.517
-313.972
-331.764
-349.272
-377.029
-409.492
-462.392
-547.149
-817.363
-2789.43
)
;
    }
    rightWall
    {
        type            calculated;
        value           nonuniform List<scalar> 
216
(
-207.148
-211.066
-216.433
-221.138
-227.772
-233.554
-241.822
-249.132
-259.61
-269.294
-283.45
-298.009
-320.113
-346.519
-391.19
-463.657
-706.582
-2828.67
-206.659
-210.642
-216.198
-221.024
-227.867
-233.784
-242.243
-249.7
-260.367
-270.289
-284.764
-299.743
-322.089
-348.21
-391.447
-461.059
-700.292
-2823.83
-206.46
-210.321
-215.76
-220.383
-227.069
-232.82
-241.155
-248.534
-259.105
-268.939
-282.952
-297.362
-318.739
-344.502
-388.27
-458.442
-698.745
-2816.88
-206.272
-210.027
-215.239
-219.821
-226.397
-232.301
-240.792
-248.636
-259.758
-270.381
-284.998
-299.646
-320.364
-345.271
-388.968
-459.952
-700.301
-2822.68
-205.368
-209.345
-214.685
-219.577
-226.383
-232.581
-241.287
-249.353
-260.724
-271.65
-286.814
-302.126
-323.928
-349.762
-393.958
-463.971
-699.221
-2832.33
-206.651
-210.682
-216.019
-220.741
-227.278
-232.991
-241.07
-248.29
-258.695
-268.673
-283.24
-298.579
-321.221
-348.02
-393.165
-465.402
-704.518
-2815.79
-210.161
-213.971
-219.006
-223.345
-229.326
-234.491
-241.858
-248.545
-258.327
-268.038
-282.312
-297.854
-320.665
-347.989
-392.907
-464.409
-704.106
-2821.67
-208.161
-211.933
-216.898
-221.387
-227.438
-232.978
-240.635
-247.945
-258.137
-268.452
-282.747
-298.221
-320.202
-346.891
-391.514
-463.516
-703.541
-2824.07
-206.358
-210.188
-215.253
-219.845
-226.101
-231.895
-239.9
-247.573
-258.031
-268.411
-282.507
-297.489
-318.679
-344.277
-387.901
-461.305
-706.467
-2819.63
-209.12
-213.06
-218.276
-222.833
-229.158
-234.727
-242.673
-249.949
-260.332
-270.379
-284.723
-299.657
-321.208
-346.814
-390.377
-462.749
-706.646
-2826.48
-208.768
-212.852
-218.366
-223.136
-229.907
-235.741
-244.28
-251.911
-263.094
-273.545
-288.573
-303.477
-325.309
-351.082
-394.942
-464.606
-704.46
-2835.27
-207.597
-211.742
-217.409
-222.273
-229.184
-234.99
-243.483
-250.773
-261.583
-271.499
-286.353
-301.536
-324.66
-351.613
-395.742
-464.23
-704.075
-2840.67
)
;
    }
    leftSides_periodic0
    {
        type            cyclic;
    }
    leftSides_periodic1
    {
        type            cyclic;
    }
    rightSides_periodic0
    {
        type            cyclic;
    }
    rightSides_periodic1
    {
        type            cyclic;
    }
    leftInOut_periodic0
    {
        type            calculated;
        value           nonuniform 0();
    }
    leftInOut_periodic1
    {
        type            calculated;
        value           uniform 0;
    }
    rightInOut_periodic0
    {
        type            calculated;
        value           nonuniform 0();
    }
    rightInOut_periodic1
    {
        type            calculated;
        value           uniform 0;
    }
    procBoundary5to2
    {
        type            processor;
        value           uniform 0;
    }
    procBoundary5to3throughleftSides_periodic0
    {
        type            processorCyclic;
        value           uniform 0;
    }
    procBoundary5to3throughrightSides_periodic0
    {
        type            processorCyclic;
        value           uniform 0;
    }
    procBoundary5to4
    {
        type            processor;
        value           uniform 0;
    }
}


// ************************************************************************* //
