/*--------------------------------*- C++ -*----------------------------------*\
| =========                 |                                                 |
| \\      /  F ield         | OpenFOAM: The Open Source CFD Toolbox           |
|  \\    /   O peration     | Version:  v1912                                 |
|   \\  /    A nd           | Website:  www.openfoam.com                      |
|    \\/     M anipulation  |                                                 |
\*---------------------------------------------------------------------------*/
FoamFile
{
    version     2.0;
    format      ascii;
    class       volScalarField;
    location    "9.6";
    object      nut;
}
// * * * * * * * * * * * * * * * * * * * * * * * * * * * * * * * * * * * * * //

dimensions      [0 2 -1 0 0 0 0];


internalField   nonuniform List<scalar> 
34128
(
4.47166e-12
4.36408e-12
4.23388e-12
4.24358e-12
4.28484e-12
4.30914e-12
4.14025e-12
4.08019e-12
4.27598e-12
4.47156e-12
4.68678e-12
4.74949e-12
4.4007e-12
4.28812e-12
4.15171e-12
4.15284e-12
4.19828e-12
4.2405e-12
4.08252e-12
4.0236e-12
4.21204e-12
4.39413e-12
4.59929e-12
4.66098e-12
7.96548e-12
7.64163e-12
7.24515e-12
7.08955e-12
7.25955e-12
7.67132e-12
7.53306e-12
7.43161e-12
7.69937e-12
7.83784e-12
8.08438e-12
8.19807e-12
3.36505e-11
3.19076e-11
2.97579e-11
2.85679e-11
2.9581e-11
3.24371e-11
3.23411e-11
3.19292e-11
3.2806e-11
3.27307e-11
3.33311e-11
3.38248e-11
1.3105e-10
1.24082e-10
1.15441e-10
1.10309e-10
1.14491e-10
1.26543e-10
1.26626e-10
1.25061e-10
1.28175e-10
1.27174e-10
1.2896e-10
1.30873e-10
3.9142e-10
3.71005e-10
3.45539e-10
3.29717e-10
3.4222e-10
3.78666e-10
3.79551e-10
3.75085e-10
3.83803e-10
3.79777e-10
3.83994e-10
3.89472e-10
9.38321e-10
8.91144e-10
8.31831e-10
7.93253e-10
8.22591e-10
9.09437e-10
9.13183e-10
9.03271e-10
9.22603e-10
9.10812e-10
9.18092e-10
9.30189e-10
1.89526e-09
1.8045e-09
1.68919e-09
1.61055e-09
1.66761e-09
1.84005e-09
1.85157e-09
1.83366e-09
1.86901e-09
1.84112e-09
1.84975e-09
1.87133e-09
3.34532e-09
3.19452e-09
3.00003e-09
2.86048e-09
2.95602e-09
3.2527e-09
3.28073e-09
3.25338e-09
3.30856e-09
3.2531e-09
3.25778e-09
3.29019e-09
5.30467e-09
5.0819e-09
4.78878e-09
4.56804e-09
4.70995e-09
5.16441e-09
5.22099e-09
5.18455e-09
5.26031e-09
5.16484e-09
5.1576e-09
5.19963e-09
7.72119e-09
7.42196e-09
7.01808e-09
6.70041e-09
6.89213e-09
7.52603e-09
7.62415e-09
7.58066e-09
7.67435e-09
7.52857e-09
7.50134e-09
7.54931e-09
1.04253e-08
1.00886e-08
9.60196e-09
9.17934e-09
9.4198e-09
1.02116e-08
1.03742e-08
1.03421e-08
1.04007e-08
1.01918e-08
1.0157e-08
1.01902e-08
1.28646e-08
1.24743e-08
1.19165e-08
1.14852e-08
1.17495e-08
1.26183e-08
1.28143e-08
1.27896e-08
1.28508e-08
1.26055e-08
1.25603e-08
1.25856e-08
1.54101e-08
1.49707e-08
1.43351e-08
1.38388e-08
1.41399e-08
1.51354e-08
1.53645e-08
1.53386e-08
1.54146e-08
1.51397e-08
1.5082e-08
1.50922e-08
1.80285e-08
1.75467e-08
1.68396e-08
1.62789e-08
1.66141e-08
1.77315e-08
1.79933e-08
1.79653e-08
1.80606e-08
1.77644e-08
1.76929e-08
1.76803e-08
2.06904e-08
2.01751e-08
1.94046e-08
1.87809e-08
1.91474e-08
2.03802e-08
2.0673e-08
2.06417e-08
2.07613e-08
2.04536e-08
2.03684e-08
2.03261e-08
2.33742e-08
2.28359e-08
2.20113e-08
2.13262e-08
2.17216e-08
2.30632e-08
2.33826e-08
2.33459e-08
2.34967e-08
2.3189e-08
2.30918e-08
2.30142e-08
2.60678e-08
2.5518e-08
2.4649e-08
2.3903e-08
2.43256e-08
2.57708e-08
2.61098e-08
2.6064e-08
2.62555e-08
2.59615e-08
2.5855e-08
2.57375e-08
2.87702e-08
2.82203e-08
2.73158e-08
2.65077e-08
2.69562e-08
2.85032e-08
2.88528e-08
2.87914e-08
2.90366e-08
2.87725e-08
2.86578e-08
2.84975e-08
3.14935e-08
3.09544e-08
3.00207e-08
2.9146e-08
2.96188e-08
3.12708e-08
3.16224e-08
3.15343e-08
3.18502e-08
3.16339e-08
3.15088e-08
3.1304e-08
3.42624e-08
3.37437e-08
3.27852e-08
3.18348e-08
3.23291e-08
3.4095e-08
3.44423e-08
3.43112e-08
3.47178e-08
3.45675e-08
3.44245e-08
3.41749e-08
3.71111e-08
3.66213e-08
3.56402e-08
3.46018e-08
3.51123e-08
3.70068e-08
3.73473e-08
3.71509e-08
3.76699e-08
3.76026e-08
3.74284e-08
3.71355e-08
4.00774e-08
3.96244e-08
3.86217e-08
3.7481e-08
3.80003e-08
4.00433e-08
4.03781e-08
4.00889e-08
4.0741e-08
4.07716e-08
4.05477e-08
4.02161e-08
4.31986e-08
4.27893e-08
4.17655e-08
4.05074e-08
4.10269e-08
4.3243e-08
4.35758e-08
4.31618e-08
4.39653e-08
4.41062e-08
4.38106e-08
4.34499e-08
4.65113e-08
4.61504e-08
4.51045e-08
4.37129e-08
4.42241e-08
4.66432e-08
4.69792e-08
4.64037e-08
4.73757e-08
4.76367e-08
4.72459e-08
4.68726e-08
5.00577e-08
4.97452e-08
4.86724e-08
4.7127e-08
4.7623e-08
5.02835e-08
5.06277e-08
4.98482e-08
5.10075e-08
5.1396e-08
5.08851e-08
5.05271e-08
5.38977e-08
5.36261e-08
5.25143e-08
5.07842e-08
5.12596e-08
5.42133e-08
5.45697e-08
5.35348e-08
5.49062e-08
5.54269e-08
5.47694e-08
5.44699e-08
5.8124e-08
5.78755e-08
5.67011e-08
5.47369e-08
5.51866e-08
5.85051e-08
5.88762e-08
5.75197e-08
5.91371e-08
5.97922e-08
5.89582e-08
5.87818e-08
6.28798e-08
6.26219e-08
6.13452e-08
5.90708e-08
5.94872e-08
6.32682e-08
6.36565e-08
6.18877e-08
6.37956e-08
6.45848e-08
6.35385e-08
6.35766e-08
6.83796e-08
6.80591e-08
6.66173e-08
6.39222e-08
6.42918e-08
6.86649e-08
6.9074e-08
6.67657e-08
6.90202e-08
6.99424e-08
6.86382e-08
6.9015e-08
7.49014e-08
7.44424e-08
7.27569e-08
6.94993e-08
6.97998e-08
7.4923e-08
7.53598e-08
7.23414e-08
7.49933e-08
7.60555e-08
7.44349e-08
7.5303e-08
8.27643e-08
8.20523e-08
8.00225e-08
7.60749e-08
7.62736e-08
8.22954e-08
8.27683e-08
7.8824e-08
8.19101e-08
8.31333e-08
8.11432e-08
8.26889e-08
9.2421e-08
9.12713e-08
8.87286e-08
8.39261e-08
8.39867e-08
9.11104e-08
9.16238e-08
8.64599e-08
9.0021e-08
9.14492e-08
8.90404e-08
9.15172e-08
1.0459e-07
1.02701e-07
9.93678e-08
9.3488e-08
9.33786e-08
1.01907e-07
1.02451e-07
9.56483e-08
9.9724e-08
1.01447e-07
9.85793e-08
1.02334e-07
1.20394e-07
1.17256e-07
1.12678e-07
1.05401e-07
1.05106e-07
1.15513e-07
1.16042e-07
1.06972e-07
1.11602e-07
1.13793e-07
1.1045e-07
1.15968e-07
1.41607e-07
1.36344e-07
1.29765e-07
1.20615e-07
1.20158e-07
1.33203e-07
1.336e-07
1.21283e-07
1.26506e-07
1.29502e-07
1.25715e-07
1.33698e-07
1.71151e-07
1.62171e-07
1.52289e-07
1.40565e-07
1.40058e-07
1.56999e-07
1.56987e-07
1.39848e-07
1.4572e-07
1.50112e-07
1.46036e-07
1.57537e-07
2.13748e-07
1.9835e-07
1.82771e-07
1.67443e-07
1.67198e-07
1.90224e-07
1.89189e-07
1.64604e-07
1.71098e-07
1.75474e-07
1.73394e-07
1.90514e-07
2.62852e-07
2.50542e-07
2.25189e-07
2.04685e-07
2.054e-07
2.37249e-07
2.34839e-07
1.9856e-07
1.99442e-07
1.99932e-07
1.98818e-07
2.26472e-07
3.18674e-07
3.08818e-07
2.85649e-07
2.57456e-07
2.59363e-07
2.83688e-07
2.84414e-07
2.43849e-07
2.31715e-07
2.32126e-07
2.32527e-07
2.68854e-07
3.89752e-07
3.7665e-07
3.64249e-07
3.27315e-07
3.15828e-07
3.44453e-07
3.44767e-07
2.91412e-07
2.74424e-07
2.74876e-07
2.77491e-07
3.24499e-07
4.77149e-07
4.59796e-07
4.4455e-07
4.02125e-07
3.88626e-07
4.19657e-07
4.19814e-07
3.52749e-07
3.29507e-07
3.29494e-07
3.34989e-07
3.93683e-07
5.82857e-07
5.6016e-07
5.41237e-07
4.94082e-07
4.79009e-07
5.11209e-07
5.11049e-07
4.28004e-07
3.97551e-07
3.96588e-07
4.05767e-07
4.78343e-07
7.07875e-07
6.78978e-07
6.55765e-07
6.05369e-07
5.896e-07
6.20977e-07
6.20442e-07
5.18786e-07
4.79976e-07
4.78045e-07
4.91848e-07
5.80683e-07
8.51839e-07
8.16333e-07
7.88495e-07
7.37447e-07
7.22654e-07
7.49749e-07
7.48934e-07
6.26931e-07
5.78448e-07
5.7561e-07
5.94976e-07
7.02168e-07
1.0131e-06
9.71046e-07
9.38321e-07
8.90278e-07
8.80438e-07
8.96768e-07
8.95624e-07
7.53679e-07
6.93935e-07
6.90304e-07
7.16089e-07
8.43023e-07
1.18949e-06
1.14031e-06
1.10253e-06
1.06185e-06
1.06519e-06
1.05949e-06
1.05857e-06
8.99195e-07
8.26401e-07
8.22103e-07
8.54972e-07
1.00185e-06
1.37209e-06
1.31916e-06
1.27691e-06
1.24793e-06
1.26863e-06
1.23369e-06
1.23388e-06
1.06201e-06
9.74578e-07
9.6974e-07
1.01006e-06
1.17553e-06
1.55459e-06
1.50142e-06
1.45586e-06
1.44233e-06
1.48091e-06
1.41392e-06
1.41594e-06
1.23921e-06
1.13594e-06
1.1307e-06
1.17847e-06
1.35946e-06
1.73154e-06
1.6807e-06
1.63256e-06
1.63759e-06
1.69182e-06
1.59429e-06
1.59885e-06
1.42658e-06
1.30687e-06
1.30144e-06
1.35632e-06
1.54818e-06
1.83637e-06
1.85139e-06
1.80047e-06
1.8262e-06
1.89245e-06
1.76922e-06
1.77664e-06
1.61645e-06
1.48307e-06
1.47773e-06
1.53925e-06
1.7362e-06
1.676e-06
2.00851e-06
1.95431e-06
2.00152e-06
2.07658e-06
1.93421e-06
1.94394e-06
1.80255e-06
1.65988e-06
1.65513e-06
1.72293e-06
1.91863e-06
1.5633e-06
2.06421e-06
2.09018e-06
2.15814e-06
2.23973e-06
2.08596e-06
2.09668e-06
1.97973e-06
1.83265e-06
1.82923e-06
1.9028e-06
2.09106e-06
1.51194e-06
1.86165e-06
2.20565e-06
2.29365e-06
2.3761e-06
2.22209e-06
2.2323e-06
2.14364e-06
1.99694e-06
1.99577e-06
2.07404e-06
2.24925e-06
1.50343e-06
1.70795e-06
2.2055e-06
2.40794e-06
2.48598e-06
2.34128e-06
2.34963e-06
2.29041e-06
2.14889e-06
2.15127e-06
2.21539e-06
2.38842e-06
1.52379e-06
1.6116e-06
1.96794e-06
2.31833e-06
2.57351e-06
2.44333e-06
2.44871e-06
2.41492e-06
2.28597e-06
2.29359e-06
2.25039e-06
2.37746e-06
1.56476e-06
1.55167e-06
1.77378e-06
2.19779e-06
2.64197e-06
2.52909e-06
2.53057e-06
2.51631e-06
2.40676e-06
2.40422e-06
2.35017e-06
2.39477e-06
1.62239e-06
1.51438e-06
1.63552e-06
2.09485e-06
2.69451e-06
2.60017e-06
2.59694e-06
2.59475e-06
2.51196e-06
2.49796e-06
2.52176e-06
2.45272e-06
1.69538e-06
1.49233e-06
1.53492e-06
2.01147e-06
2.73427e-06
2.65864e-06
2.64997e-06
2.65656e-06
2.6054e-06
2.62361e-06
2.70311e-06
2.54814e-06
1.78386e-06
1.48215e-06
1.46168e-06
1.94442e-06
2.76413e-06
2.70668e-06
2.69193e-06
2.70463e-06
2.67983e-06
2.70137e-06
2.77415e-06
2.67654e-06
1.88844e-06
1.48295e-06
1.41134e-06
1.89059e-06
2.78621e-06
2.74624e-06
2.72503e-06
2.74154e-06
2.73797e-06
2.76512e-06
2.83001e-06
2.81962e-06
2.00948e-06
1.49533e-06
1.38262e-06
1.84777e-06
2.80216e-06
2.77896e-06
2.75119e-06
2.7695e-06
2.7828e-06
2.81389e-06
2.87014e-06
2.87908e-06
2.14654e-06
1.52096e-06
1.37638e-06
1.81541e-06
2.81335e-06
2.80613e-06
2.77206e-06
2.79039e-06
2.8168e-06
2.85056e-06
2.8975e-06
2.89885e-06
2.29788e-06
1.56236e-06
1.39549e-06
1.79464e-06
2.82084e-06
2.82868e-06
2.78894e-06
2.80587e-06
2.84107e-06
2.87748e-06
2.91278e-06
2.91366e-06
2.45997e-06
1.62295e-06
1.4451e-06
1.78782e-06
2.82543e-06
2.84728e-06
2.80279e-06
2.81714e-06
2.85689e-06
2.89616e-06
2.92286e-06
2.92434e-06
2.62723e-06
1.70716e-06
1.53325e-06
1.79802e-06
2.82769e-06
2.86244e-06
2.81428e-06
2.82513e-06
2.86778e-06
2.90628e-06
2.92872e-06
2.93166e-06
2.79044e-06
1.82037e-06
1.67145e-06
1.82851e-06
2.82794e-06
2.87452e-06
2.82385e-06
2.83049e-06
2.87502e-06
2.90838e-06
2.93073e-06
2.93609e-06
2.87195e-06
1.96861e-06
1.87424e-06
1.88251e-06
2.75973e-06
2.88377e-06
2.83178e-06
2.83375e-06
2.87902e-06
2.90487e-06
2.92902e-06
2.93795e-06
2.88389e-06
2.15767e-06
2.15448e-06
1.96197e-06
2.69807e-06
2.8904e-06
2.83828e-06
2.83525e-06
2.88004e-06
2.89704e-06
2.92367e-06
2.93745e-06
2.89329e-06
2.38722e-06
2.48806e-06
2.06602e-06
2.65264e-06
2.89459e-06
2.84349e-06
2.79202e-06
2.87825e-06
2.88481e-06
2.9148e-06
2.93473e-06
2.89994e-06
2.63005e-06
2.65664e-06
2.18811e-06
2.62255e-06
2.89652e-06
2.84753e-06
2.81338e-06
2.87373e-06
2.86826e-06
2.90235e-06
2.92985e-06
2.90373e-06
2.77245e-06
2.66903e-06
2.31785e-06
2.60491e-06
2.89643e-06
2.85054e-06
2.83378e-06
2.86666e-06
2.84765e-06
2.88643e-06
2.92304e-06
2.90468e-06
2.77837e-06
2.67821e-06
2.44555e-06
2.59488e-06
2.89457e-06
2.85264e-06
2.83243e-06
2.85727e-06
2.82334e-06
2.86716e-06
2.91461e-06
2.903e-06
2.78167e-06
2.68346e-06
2.56383e-06
2.5861e-06
2.89125e-06
2.85395e-06
2.83084e-06
2.84571e-06
2.68979e-06
2.84483e-06
2.90498e-06
2.89902e-06
2.78262e-06
2.68528e-06
2.65048e-06
2.57181e-06
2.88677e-06
2.85471e-06
2.82917e-06
2.83236e-06
2.47947e-06
2.82017e-06
2.8947e-06
2.86655e-06
2.78179e-06
2.68446e-06
2.6464e-06
2.54576e-06
2.88143e-06
2.85519e-06
2.82768e-06
2.81796e-06
2.29378e-06
2.79432e-06
2.8844e-06
2.72234e-06
2.77984e-06
2.68192e-06
2.64211e-06
2.50504e-06
2.87558e-06
2.85571e-06
2.82658e-06
2.80331e-06
2.15203e-06
2.61887e-06
2.87485e-06
2.59106e-06
2.69427e-06
2.67907e-06
2.63818e-06
2.45086e-06
2.86946e-06
2.85656e-06
2.82585e-06
2.78942e-06
2.06291e-06
2.43544e-06
2.86677e-06
2.48703e-06
2.50519e-06
2.67702e-06
2.63536e-06
2.3875e-06
2.86343e-06
2.85789e-06
2.82573e-06
2.77736e-06
2.03146e-06
2.2995e-06
2.86076e-06
4.78753e-12
4.65076e-12
4.48965e-12
4.46768e-12
4.51845e-12
4.59368e-12
4.43634e-12
4.38194e-12
4.60002e-12
4.78455e-12
4.98322e-12
5.05087e-12
4.58928e-12
4.45366e-12
4.29653e-12
4.27284e-12
4.32516e-12
4.40112e-12
4.24728e-12
4.19901e-12
4.41593e-12
4.59067e-12
4.77525e-12
4.8395e-12
6.17894e-12
5.91608e-12
5.6535e-12
5.56083e-12
5.69636e-12
5.87769e-12
5.6193e-12
5.62747e-12
6.06316e-12
6.25305e-12
6.38549e-12
6.46441e-12
1.7636e-11
1.64793e-11
1.54896e-11
1.4913e-11
1.56084e-11
1.65269e-11
1.55233e-11
1.59306e-11
1.80317e-11
1.82579e-11
1.79519e-11
1.81458e-11
6.08881e-11
5.65177e-11
5.29192e-11
5.05102e-11
5.32085e-11
5.67854e-11
5.29813e-11
5.48722e-11
6.32417e-11
6.3518e-11
6.14495e-11
6.21159e-11
1.75224e-10
1.62846e-10
1.52788e-10
1.45471e-10
1.53127e-10
1.63311e-10
1.52135e-10
1.57984e-10
1.82936e-10
1.83031e-10
1.75804e-10
1.77791e-10
4.12744e-10
3.85032e-10
3.62728e-10
3.45159e-10
3.62173e-10
3.84795e-10
3.58481e-10
3.7268e-10
4.31917e-10
4.30945e-10
4.11817e-10
4.16649e-10
8.2416e-10
7.72644e-10
7.31598e-10
6.96447e-10
7.27592e-10
7.68694e-10
7.16598e-10
7.45476e-10
8.63454e-10
8.59554e-10
8.17769e-10
8.27687e-10
1.44159e-09
1.3591e-09
1.29419e-09
1.23349e-09
1.28211e-09
1.34515e-09
1.25492e-09
1.3061e-09
1.51084e-09
1.50141e-09
1.42316e-09
1.44109e-09
2.26862e-09
2.15171e-09
2.0612e-09
1.96833e-09
2.03459e-09
2.11755e-09
1.97663e-09
2.05761e-09
2.3764e-09
2.35875e-09
2.22929e-09
2.25893e-09
3.28096e-09
3.13123e-09
3.01789e-09
2.88945e-09
2.96944e-09
3.06327e-09
2.85984e-09
2.97648e-09
3.43204e-09
3.40447e-09
3.21097e-09
3.25699e-09
4.38209e-09
4.21452e-09
4.09998e-09
3.96673e-09
4.0524e-09
4.11748e-09
3.83937e-09
4.00277e-09
4.58854e-09
4.55284e-09
4.30534e-09
4.36182e-09
5.39476e-09
5.21509e-09
5.09948e-09
4.94802e-09
5.03269e-09
5.06664e-09
4.71699e-09
4.90986e-09
5.62918e-09
5.59108e-09
5.28441e-09
5.36343e-09
6.45187e-09
6.26935e-09
6.16193e-09
5.9943e-09
6.06217e-09
6.05419e-09
5.62888e-09
5.84689e-09
6.70361e-09
6.66567e-09
6.29656e-09
6.40419e-09
7.54097e-09
7.36602e-09
7.27721e-09
7.09694e-09
7.1342e-09
7.06786e-09
6.56425e-09
6.80129e-09
7.79571e-09
7.76075e-09
7.32747e-09
7.47088e-09
8.65253e-09
8.49605e-09
8.43695e-09
8.2483e-09
8.23983e-09
8.09816e-09
7.51476e-09
7.76288e-09
8.89195e-09
8.86317e-09
8.36586e-09
8.55339e-09
9.78114e-09
9.65354e-09
9.63533e-09
9.44312e-09
9.37293e-09
9.13917e-09
8.47552e-09
8.72482e-09
9.98253e-09
9.96383e-09
9.40436e-09
9.64538e-09
1.09262e-08
1.08365e-08
1.08698e-08
1.06791e-08
1.05306e-08
1.0189e-08
9.44573e-09
9.68433e-09
1.10623e-08
1.1058e-08
1.04399e-08
1.07445e-08
1.20924e-08
1.20475e-08
1.21419e-08
1.19576e-08
1.17135e-08
1.12501e-08
1.04293e-08
1.06434e-08
1.21316e-08
1.21461e-08
1.14738e-08
1.18528e-08
1.32903e-08
1.32945e-08
1.34584e-08
1.3285e-08
1.29274e-08
1.233e-08
1.14352e-08
1.16099e-08
1.31961e-08
1.32333e-08
1.25124e-08
1.29775e-08
1.45367e-08
1.45919e-08
1.48321e-08
1.46735e-08
1.41836e-08
1.34423e-08
1.24781e-08
1.25973e-08
1.42681e-08
1.43308e-08
1.35675e-08
1.41316e-08
1.58547e-08
1.59606e-08
1.62827e-08
1.61418e-08
1.55002e-08
1.46064e-08
1.3578e-08
1.36251e-08
1.53654e-08
1.54549e-08
1.46567e-08
1.53344e-08
1.72724e-08
1.74265e-08
1.78355e-08
1.77148e-08
1.69015e-08
1.58469e-08
1.47597e-08
1.47179e-08
1.65106e-08
1.66268e-08
1.58031e-08
1.66112e-08
1.88241e-08
1.90211e-08
1.95206e-08
1.94219e-08
1.84167e-08
1.71939e-08
1.60521e-08
1.59044e-08
1.77317e-08
1.78733e-08
1.70362e-08
1.79942e-08
2.0552e-08
2.07828e-08
2.13747e-08
2.12984e-08
2.00816e-08
1.86842e-08
1.749e-08
1.72186e-08
1.90635e-08
1.92287e-08
1.83929e-08
1.95239e-08
2.25133e-08
2.27639e-08
2.34466e-08
2.33898e-08
2.19416e-08
2.03651e-08
1.91177e-08
1.87029e-08
2.05521e-08
2.0739e-08
1.9921e-08
2.12536e-08
2.47898e-08
2.50389e-08
2.58064e-08
2.57603e-08
2.4059e-08
2.23011e-08
2.09958e-08
2.04141e-08
2.2261e-08
2.24684e-08
2.1685e-08
2.32561e-08
2.75006e-08
2.77166e-08
2.8557e-08
2.85047e-08
2.65235e-08
2.45828e-08
2.321e-08
2.24311e-08
2.4279e-08
2.45073e-08
2.37737e-08
2.56325e-08
3.08187e-08
3.09545e-08
3.18487e-08
3.17631e-08
2.94644e-08
2.73382e-08
2.58826e-08
2.48655e-08
2.67304e-08
2.69837e-08
2.63107e-08
2.85237e-08
3.49916e-08
3.49755e-08
3.58958e-08
3.57382e-08
3.30673e-08
3.07472e-08
2.91875e-08
2.78748e-08
2.97871e-08
3.00759e-08
2.94683e-08
3.21252e-08
4.03695e-08
4.00918e-08
4.09968e-08
4.07157e-08
3.75939e-08
3.50631e-08
3.337e-08
3.16795e-08
3.36852e-08
3.40322e-08
3.34859e-08
3.67074e-08
4.74501e-08
4.67375e-08
4.75644e-08
4.70908e-08
4.34079e-08
4.06332e-08
3.87698e-08
3.6586e-08
3.87492e-08
3.91968e-08
3.86974e-08
4.26451e-08
5.68156e-08
5.53831e-08
5.60303e-08
5.52591e-08
5.08561e-08
4.77815e-08
4.56984e-08
4.28516e-08
4.52629e-08
4.58913e-08
4.54152e-08
5.03249e-08
6.9432e-08
6.67989e-08
6.70918e-08
6.58588e-08
6.0505e-08
5.70429e-08
5.46702e-08
5.0912e-08
5.36974e-08
5.46519e-08
5.41683e-08
6.0387e-08
8.68882e-08
8.22174e-08
8.18376e-08
7.98701e-08
7.32238e-08
6.92475e-08
6.64798e-08
6.14391e-08
6.47799e-08
6.63218e-08
6.57979e-08
7.38519e-08
1.11746e-07
1.03633e-07
1.01984e-07
9.8801e-08
9.03506e-08
8.5678e-08
8.23464e-08
7.54567e-08
7.959e-08
8.21601e-08
8.16207e-08
9.23278e-08
1.40856e-07
1.33339e-07
1.30268e-07
1.25003e-07
1.13972e-07
1.08272e-07
1.04107e-07
9.45119e-08
9.73949e-08
9.91811e-08
1.02158e-07
1.16275e-07
1.77458e-07
1.65958e-07
1.68491e-07
1.62076e-07
1.47258e-07
1.3519e-07
1.30788e-07
1.18613e-07
1.18381e-07
1.21019e-07
1.2509e-07
1.4353e-07
2.2661e-07
2.09339e-07
2.11703e-07
2.09434e-07
1.89671e-07
1.67255e-07
1.62095e-07
1.46841e-07
1.45651e-07
1.49593e-07
1.55142e-07
1.79568e-07
2.9235e-07
2.6713e-07
2.68829e-07
2.67089e-07
2.41789e-07
2.09168e-07
2.02928e-07
1.84055e-07
1.81245e-07
1.87091e-07
1.94714e-07
2.27392e-07
3.76964e-07
3.41877e-07
3.42821e-07
3.43181e-07
3.11457e-07
2.64145e-07
2.56361e-07
2.33273e-07
2.27726e-07
2.36238e-07
2.46817e-07
2.90083e-07
4.83875e-07
4.36328e-07
4.35908e-07
4.40007e-07
4.00851e-07
3.33797e-07
3.24134e-07
2.97613e-07
2.87363e-07
2.98657e-07
3.13159e-07
3.69423e-07
6.1531e-07
5.53228e-07
5.50889e-07
5.60888e-07
5.13065e-07
4.19855e-07
4.07744e-07
3.78742e-07
3.61239e-07
3.75914e-07
3.95712e-07
4.68216e-07
7.70958e-07
6.93736e-07
6.89215e-07
7.07926e-07
6.50376e-07
5.24374e-07
5.09329e-07
4.79358e-07
4.51455e-07
4.70059e-07
4.96751e-07
5.88547e-07
9.4674e-07
8.56488e-07
8.50107e-07
8.80738e-07
8.12155e-07
6.48406e-07
6.30219e-07
6.01592e-07
5.59768e-07
5.82549e-07
6.17767e-07
7.31082e-07
1.13412e-06
1.0371e-06
1.02996e-06
1.07567e-06
9.91991e-07
7.91462e-07
7.70419e-07
7.46056e-07
6.87115e-07
7.13919e-07
7.59031e-07
8.94587e-07
1.32065e-06
1.22856e-06
1.22242e-06
1.28557e-06
1.17762e-06
9.51156e-07
9.28257e-07
9.11058e-07
8.33281e-07
8.63489e-07
9.19247e-07
1.07577e-06
1.50171e-06
1.42252e-06
1.41919e-06
1.50061e-06
1.36663e-06
1.12346e-06
1.10032e-06
1.09219e-06
9.9661e-07
1.02921e-06
1.09546e-06
1.26948e-06
1.39267e-06
1.61074e-06
1.61154e-06
1.71012e-06
1.55515e-06
1.30313e-06
1.28187e-06
1.28249e-06
1.17402e-06
1.20777e-06
1.28325e-06
1.46926e-06
1.27869e-06
1.78615e-06
1.79132e-06
1.90473e-06
1.73871e-06
1.48383e-06
1.46738e-06
1.47417e-06
1.36125e-06
1.39488e-06
1.47717e-06
1.66789e-06
1.20478e-06
1.72244e-06
1.79876e-06
1.95056e-06
1.91294e-06
1.65896e-06
1.65081e-06
1.66323e-06
1.55331e-06
1.58538e-06
1.67128e-06
1.7909e-06
1.16912e-06
1.61012e-06
1.74865e-06
1.94983e-06
2.07346e-06
1.62068e-06
1.82543e-06
1.84452e-06
1.74442e-06
1.77383e-06
1.74293e-06
1.72141e-06
1.16409e-06
1.52981e-06
1.68945e-06
1.94441e-06
2.18755e-06
1.58102e-06
1.98706e-06
2.01298e-06
1.92844e-06
1.93015e-06
1.71853e-06
1.66479e-06
1.18156e-06
1.47721e-06
1.63469e-06
1.93953e-06
2.22382e-06
1.57324e-06
2.11253e-06
2.16471e-06
2.10012e-06
1.96693e-06
1.73e-06
1.64236e-06
1.21645e-06
1.44347e-06
1.58958e-06
1.93996e-06
2.28673e-06
1.59955e-06
2.06811e-06
2.29774e-06
2.25604e-06
2.03654e-06
1.78487e-06
1.65303e-06
1.26658e-06
1.42239e-06
1.55339e-06
1.9516e-06
2.38385e-06
1.65732e-06
2.03361e-06
2.41384e-06
2.39622e-06
2.1476e-06
1.8745e-06
1.69417e-06
1.33189e-06
1.41038e-06
1.51935e-06
1.97286e-06
2.50816e-06
1.74358e-06
2.02156e-06
2.51232e-06
2.51084e-06
2.28903e-06
1.98818e-06
1.76125e-06
1.41375e-06
1.40521e-06
1.48211e-06
1.99513e-06
2.64059e-06
1.85539e-06
2.03398e-06
2.59326e-06
2.60053e-06
2.44967e-06
2.11634e-06
1.84762e-06
1.51444e-06
1.40559e-06
1.44176e-06
2.00875e-06
2.70928e-06
1.98961e-06
2.06715e-06
2.65785e-06
2.66488e-06
2.62193e-06
2.25217e-06
1.94641e-06
1.63694e-06
1.41107e-06
1.40151e-06
2.00664e-06
2.74261e-06
2.14292e-06
2.117e-06
2.7084e-06
2.71719e-06
2.78389e-06
2.3909e-06
2.05192e-06
1.78498e-06
1.42196e-06
1.36544e-06
1.98585e-06
2.76784e-06
2.31205e-06
2.1792e-06
2.74718e-06
2.75935e-06
2.82054e-06
2.52627e-06
2.16067e-06
1.9629e-06
1.43936e-06
1.33764e-06
1.94798e-06
2.78652e-06
2.49313e-06
2.2502e-06
2.7764e-06
2.79303e-06
2.84922e-06
2.6483e-06
2.27055e-06
2.17351e-06
1.46509e-06
1.32237e-06
1.89881e-06
2.7999e-06
2.67542e-06
2.32555e-06
2.79791e-06
2.81973e-06
2.87128e-06
2.74815e-06
2.37813e-06
2.41673e-06
1.50168e-06
1.32434e-06
1.8467e-06
2.80902e-06
2.80849e-06
2.39961e-06
2.81329e-06
2.84079e-06
2.88771e-06
2.82488e-06
2.47962e-06
2.69032e-06
1.55227e-06
1.34932e-06
1.80065e-06
2.81456e-06
2.83129e-06
2.46805e-06
2.78705e-06
2.85726e-06
2.89922e-06
2.88186e-06
2.57459e-06
2.84768e-06
1.62077e-06
1.4049e-06
1.76893e-06
2.7519e-06
2.8503e-06
2.527e-06
2.66901e-06
2.86979e-06
2.9063e-06
2.9215e-06
2.66727e-06
2.86304e-06
1.71216e-06
1.50135e-06
1.75926e-06
2.62886e-06
2.86601e-06
2.57212e-06
2.56101e-06
2.87897e-06
2.90916e-06
2.94369e-06
2.76431e-06
2.87634e-06
1.83238e-06
1.65174e-06
1.77813e-06
2.50833e-06
2.87877e-06
2.60035e-06
2.47767e-06
2.88504e-06
2.90783e-06
2.94284e-06
2.86651e-06
2.88747e-06
1.98647e-06
1.86852e-06
1.82971e-06
2.40618e-06
2.88879e-06
2.61154e-06
2.43156e-06
2.88808e-06
2.90236e-06
2.92084e-06
2.94881e-06
2.89624e-06
2.17392e-06
2.1516e-06
1.91578e-06
2.32874e-06
2.8962e-06
2.61017e-06
2.43139e-06
2.88804e-06
2.88418e-06
2.87178e-06
2.9436e-06
2.90247e-06
2.3811e-06
2.46056e-06
2.03421e-06
2.27817e-06
2.90116e-06
2.60658e-06
2.48661e-06
2.88479e-06
2.71461e-06
2.79741e-06
2.93522e-06
2.90603e-06
2.57425e-06
2.67009e-06
2.17622e-06
2.2532e-06
2.90377e-06
2.61561e-06
2.61476e-06
2.8784e-06
2.51108e-06
2.69866e-06
2.92528e-06
2.90692e-06
2.71028e-06
2.67781e-06
2.32774e-06
2.2497e-06
2.90417e-06
2.64914e-06
2.80629e-06
2.86873e-06
2.2945e-06
2.57625e-06
2.91452e-06
2.90528e-06
2.76889e-06
2.68358e-06
2.47523e-06
2.26141e-06
2.90252e-06
2.71133e-06
2.82238e-06
2.85634e-06
2.08495e-06
2.43187e-06
2.903e-06
2.90144e-06
2.75407e-06
2.68728e-06
2.60759e-06
2.28102e-06
2.89912e-06
2.79643e-06
2.81814e-06
2.8407e-06
1.89723e-06
2.27092e-06
2.89109e-06
2.89604e-06
2.67535e-06
2.68909e-06
2.63338e-06
2.30053e-06
2.89431e-06
2.86711e-06
2.8142e-06
2.82367e-06
1.74357e-06
2.10407e-06
2.87953e-06
2.81363e-06
2.5484e-06
2.68979e-06
2.63604e-06
2.31426e-06
2.88849e-06
2.86681e-06
2.81216e-06
2.80666e-06
1.63292e-06
1.9479e-06
2.7544e-06
2.63863e-06
2.39438e-06
2.68703e-06
2.6399e-06
2.32e-06
2.88214e-06
2.8663e-06
2.81118e-06
2.79078e-06
1.57172e-06
1.8206e-06
2.60046e-06
2.50761e-06
2.23666e-06
2.50867e-06
2.64507e-06
2.31811e-06
2.87568e-06
2.86608e-06
2.81094e-06
2.77738e-06
1.56482e-06
1.7373e-06
2.48147e-06
5.16984e-12
5.0355e-12
4.86397e-12
4.79656e-12
4.83488e-12
4.94888e-12
4.79871e-12
4.73984e-12
4.97859e-12
5.14666e-12
5.32222e-12
5.41061e-12
5.049e-12
4.92056e-12
4.7512e-12
4.676e-12
4.71099e-12
4.8294e-12
4.68703e-12
4.62898e-12
4.86087e-12
5.01538e-12
5.1784e-12
5.26873e-12
8.43849e-12
8.27719e-12
7.96375e-12
7.65972e-12
7.6711e-12
8.00259e-12
7.84573e-12
7.73569e-12
8.10137e-12
8.18124e-12
8.29002e-12
8.51558e-12
3.32318e-11
3.28069e-11
3.14957e-11
2.96561e-11
2.95218e-11
3.13045e-11
3.09896e-11
3.04923e-11
3.18311e-11
3.1494e-11
3.13001e-11
3.24505e-11
1.26879e-10
1.25555e-10
1.20651e-10
1.13059e-10
1.12305e-10
1.19484e-10
1.1866e-10
1.16642e-10
1.2151e-10
1.19572e-10
1.18086e-10
1.22649e-10
3.75502e-10
3.72191e-10
3.58362e-10
3.35623e-10
3.3289e-10
3.54042e-10
3.52356e-10
3.46182e-10
3.59782e-10
3.5339e-10
3.47868e-10
3.61163e-10
8.93414e-10
8.87037e-10
8.56196e-10
8.02469e-10
7.94673e-10
8.43709e-10
8.41676e-10
8.26739e-10
8.56654e-10
8.40535e-10
8.25269e-10
8.55752e-10
1.79177e-09
1.78218e-09
1.72492e-09
1.61918e-09
1.60071e-09
1.69512e-09
1.69548e-09
1.66539e-09
1.71951e-09
1.686e-09
1.65194e-09
1.71009e-09
3.14268e-09
3.13154e-09
3.03934e-09
2.85928e-09
2.82184e-09
2.97876e-09
2.98746e-09
2.9347e-09
3.01827e-09
2.95836e-09
2.89417e-09
2.99051e-09
4.95738e-09
4.94827e-09
4.81543e-09
4.54245e-09
4.47601e-09
4.70843e-09
4.73406e-09
4.65099e-09
4.76426e-09
4.67e-09
4.5655e-09
4.7085e-09
7.18765e-09
7.18523e-09
7.00959e-09
6.63282e-09
6.52743e-09
6.84204e-09
6.89401e-09
6.77346e-09
6.91138e-09
6.77814e-09
6.62753e-09
6.82229e-09
9.63541e-09
9.65057e-09
9.44589e-09
9.02592e-09
8.89927e-09
9.2647e-09
9.33775e-09
9.20387e-09
9.32604e-09
9.15536e-09
9.00407e-09
9.22348e-09
1.19004e-08
1.19224e-08
1.16814e-08
1.11841e-08
1.10294e-08
1.1463e-08
1.15663e-08
1.13913e-08
1.1521e-08
1.13273e-08
1.11509e-08
1.14017e-08
1.42756e-08
1.43061e-08
1.40297e-08
1.34548e-08
1.32641e-08
1.37747e-08
1.39158e-08
1.36914e-08
1.38219e-08
1.36102e-08
1.34074e-08
1.36884e-08
1.67349e-08
1.67759e-08
1.64655e-08
1.58138e-08
1.55847e-08
1.61765e-08
1.63619e-08
1.60785e-08
1.62021e-08
1.59791e-08
1.5751e-08
1.606e-08
1.92589e-08
1.93115e-08
1.89681e-08
1.82412e-08
1.79722e-08
1.865e-08
1.88849e-08
1.85306e-08
1.86408e-08
1.84152e-08
1.8163e-08
1.84986e-08
2.18379e-08
2.19006e-08
2.15237e-08
2.07234e-08
2.04136e-08
2.11841e-08
2.14727e-08
2.10329e-08
2.1125e-08
2.09073e-08
2.06315e-08
2.09929e-08
2.44721e-08
2.45406e-08
2.41273e-08
2.32551e-08
2.29031e-08
2.37752e-08
2.41226e-08
2.35792e-08
2.36514e-08
2.34532e-08
2.31519e-08
2.35391e-08
2.71723e-08
2.72389e-08
2.67844e-08
2.58405e-08
2.54436e-08
2.64284e-08
2.6841e-08
2.61736e-08
2.62258e-08
2.60584e-08
2.57273e-08
2.61416e-08
2.99603e-08
3.00145e-08
2.95128e-08
2.84955e-08
2.80487e-08
2.91585e-08
2.96441e-08
2.88305e-08
2.88632e-08
2.87369e-08
2.83691e-08
2.88143e-08
3.28688e-08
3.28974e-08
3.23426e-08
3.12484e-08
3.07429e-08
3.19897e-08
3.2557e-08
3.15745e-08
3.1587e-08
3.15107e-08
3.10979e-08
3.15802e-08
3.59396e-08
3.59274e-08
3.53135e-08
3.41374e-08
3.35615e-08
3.49541e-08
3.56119e-08
3.4438e-08
3.44277e-08
3.44099e-08
3.39426e-08
3.44707e-08
3.92213e-08
3.91501e-08
3.84727e-08
3.72089e-08
3.65467e-08
3.80886e-08
3.88452e-08
3.7457e-08
3.7421e-08
3.74712e-08
3.69388e-08
3.75238e-08
4.27699e-08
4.26178e-08
4.18738e-08
4.05159e-08
3.9746e-08
4.14323e-08
4.22949e-08
4.067e-08
4.06087e-08
4.07379e-08
4.01269e-08
4.07836e-08
4.66548e-08
4.63936e-08
4.55823e-08
4.41213e-08
4.32127e-08
4.50276e-08
4.60022e-08
4.41195e-08
4.40392e-08
4.42613e-08
4.3555e-08
4.43037e-08
5.09699e-08
5.0562e-08
4.96865e-08
4.81088e-08
4.7013e-08
4.89247e-08
5.00156e-08
4.78571e-08
4.77735e-08
4.8107e-08
4.72844e-08
4.81536e-08
5.5848e-08
5.52423e-08
5.4313e-08
5.25973e-08
5.12367e-08
5.31892e-08
5.43999e-08
5.19514e-08
5.18928e-08
5.23639e-08
5.13993e-08
5.24279e-08
6.14763e-08
6.06028e-08
5.96426e-08
5.7758e-08
5.60106e-08
5.79118e-08
5.92458e-08
5.64992e-08
5.65078e-08
5.71553e-08
5.6018e-08
5.7257e-08
6.811e-08
6.68731e-08
6.5924e-08
6.38285e-08
6.15114e-08
6.3217e-08
6.4679e-08
6.16356e-08
6.17676e-08
6.26494e-08
6.13061e-08
6.28186e-08
7.6082e-08
7.43532e-08
7.3484e-08
7.1124e-08
6.79764e-08
6.92731e-08
7.08703e-08
6.75446e-08
6.78695e-08
6.90722e-08
6.749e-08
6.93494e-08
8.58079e-08
8.34111e-08
8.2727e-08
8.00368e-08
7.57082e-08
7.63015e-08
7.80437e-08
7.4467e-08
7.50646e-08
7.67149e-08
7.48705e-08
7.71541e-08
9.78358e-08
9.45199e-08
9.41736e-08
9.10526e-08
8.507e-08
8.45838e-08
8.64715e-08
8.26901e-08
8.36579e-08
8.59394e-08
8.38285e-08
8.66184e-08
1.1304e-07
1.08418e-07
1.08632e-07
1.04902e-07
9.65616e-08
9.44952e-08
9.65303e-08
9.25899e-08
9.40648e-08
9.72616e-08
9.48944e-08
9.83094e-08
1.3281e-07
1.2626e-07
1.27352e-07
1.22717e-07
1.10982e-07
1.06651e-07
1.08827e-07
1.04765e-07
1.06939e-07
1.11505e-07
1.08923e-07
1.1313e-07
1.59383e-07
1.49834e-07
1.52224e-07
1.46205e-07
1.29561e-07
1.22012e-07
1.24297e-07
1.20118e-07
1.23272e-07
1.29958e-07
1.27256e-07
1.32491e-07
1.96438e-07
1.81993e-07
1.86139e-07
1.7793e-07
1.54185e-07
1.42068e-07
1.44402e-07
1.40026e-07
1.44594e-07
1.54546e-07
1.5199e-07
1.58643e-07
2.46302e-07
2.27203e-07
2.33692e-07
2.21767e-07
1.87846e-07
1.67793e-07
1.71262e-07
1.66658e-07
1.73089e-07
1.8231e-07
1.83518e-07
1.94821e-07
2.96175e-07
2.80287e-07
3.01432e-07
2.83632e-07
2.35253e-07
1.93459e-07
1.98188e-07
2.03243e-07
2.02375e-07
2.12538e-07
2.15076e-07
2.29627e-07
3.61189e-07
3.40615e-07
3.70842e-07
3.71548e-07
2.92587e-07
2.26922e-07
2.31132e-07
2.42242e-07
2.38364e-07
2.52161e-07
2.56732e-07
2.7545e-07
4.41856e-07
4.16045e-07
4.55796e-07
4.77049e-07
3.58298e-07
2.71043e-07
2.74875e-07
2.90291e-07
2.85587e-07
3.0443e-07
3.12093e-07
3.34993e-07
5.39755e-07
5.07687e-07
5.58403e-07
5.9189e-07
4.39442e-07
3.27743e-07
3.31783e-07
3.51859e-07
3.45546e-07
3.6988e-07
3.81777e-07
4.08954e-07
6.55886e-07
6.16951e-07
6.79358e-07
7.2872e-07
5.37848e-07
3.977e-07
4.02153e-07
4.27203e-07
4.19102e-07
4.5027e-07
4.67998e-07
4.99723e-07
7.89821e-07
7.44203e-07
8.17869e-07
8.86637e-07
6.54853e-07
4.82943e-07
4.88011e-07
5.1816e-07
5.0832e-07
5.47879e-07
5.73233e-07
6.09516e-07
9.3954e-07
8.88525e-07
9.71687e-07
1.06252e-06
7.90428e-07
5.85259e-07
5.91177e-07
6.26357e-07
6.15085e-07
6.64492e-07
6.99207e-07
7.39706e-07
1.10169e-06
1.04762e-06
1.13753e-06
1.25174e-06
9.42944e-07
7.05465e-07
7.12575e-07
7.52614e-07
7.40584e-07
8.01022e-07
8.4635e-07
8.90317e-07
1.27212e-06
1.21786e-06
1.31133e-06
1.45032e-06
1.10919e-06
8.42955e-07
8.51775e-07
8.96614e-07
8.84921e-07
9.57139e-07
1.01334e-06
1.05963e-06
1.44636e-06
1.39468e-06
1.48822e-06