/*--------------------------------*- C++ -*----------------------------------*\
| =========                 |                                                 |
| \\      /  F ield         | OpenFOAM: The Open Source CFD Toolbox           |
|  \\    /   O peration     | Version:  v1912                                 |
|   \\  /    A nd           | Website:  www.openfoam.com                      |
|    \\/     M anipulation  |                                                 |
\*---------------------------------------------------------------------------*/
FoamFile
{
    version     2.0;
    format      ascii;
    class       volSymmTensorField;
    location    "9.6";
    object      UPrime2Mean;
}
// * * * * * * * * * * * * * * * * * * * * * * * * * * * * * * * * * * * * * //

dimensions      [0 2 -2 0 0 0 0];


internalField   nonuniform List<symmTensor> 
34128
(
(2.33307e-10 -1.47623e-12 4.44807e-10 1.70774e-10 1.35535e-08 8.30114e-06)
(2.70545e-10 -9.93996e-13 6.04912e-10 1.70774e-10 1.3573e-08 8.3154e-06)
(2.44248e-10 -7.02997e-13 8.7327e-10 1.70787e-10 1.35737e-08 8.32101e-06)
(2.53588e-10 -8.16191e-13 7.96555e-10 1.70786e-10 1.3569e-08 8.32208e-06)
(4.03882e-10 -6.84662e-13 8.77092e-11 1.70793e-10 1.35631e-08 8.31347e-06)
(2.99876e-10 -2.68739e-13 -1.86049e-10 1.70785e-10 1.35569e-08 8.30594e-06)
(2.56228e-10 -2.93177e-13 2.16419e-10 1.70789e-10 1.35517e-08 8.30076e-06)
(3.22315e-10 3.65082e-13 1.32159e-10 1.70789e-10 1.35633e-08 8.31204e-06)
(3.58841e-10 -1.04927e-13 -2.80211e-10 1.70798e-10 1.35817e-08 8.3257e-06)
(2.77113e-10 -6.67981e-13 -6.38656e-10 1.70791e-10 1.35705e-08 8.31769e-06)
(2.40188e-10 -9.29784e-14 -5.81953e-10 1.70776e-10 1.35454e-08 8.29612e-06)
(1.72718e-10 1.69799e-12 2.92098e-10 1.70747e-10 1.3559e-08 8.29869e-06)
(1.99256e-09 8.95734e-12 1.94179e-09 3.78855e-10 -5.65796e-08 2.91811e-05)
(2.30811e-09 4.9182e-12 3.62172e-09 3.78724e-10 -5.65964e-08 2.92815e-05)
(2.05955e-09 1.1603e-11 6.37848e-09 3.78566e-10 -5.66174e-08 2.93293e-05)
(2.14337e-09 1.14455e-11 5.66246e-09 3.78828e-10 -5.65e-08 2.93422e-05)
(3.41821e-09 8.55542e-12 8.558e-10 3.78905e-10 -5.6405e-08 2.92737e-05)
(2.55561e-09 1.15399e-11 -2.65942e-10 3.78864e-10 -5.65202e-08 2.92172e-05)
(2.20135e-09 5.05614e-12 3.25967e-09 3.7883e-10 -5.65312e-08 2.91826e-05)
(2.74093e-09 -1.26709e-12 2.5759e-09 3.78808e-10 -5.64935e-08 2.92626e-05)
(3.03692e-09 3.8249e-12 2.83958e-10 3.78592e-10 -5.65405e-08 2.9356e-05)
(2.37471e-09 9.3846e-12 -2.21861e-09 3.78738e-10 -5.65321e-08 2.93025e-05)
(2.03829e-09 3.09285e-12 -1.97203e-09 3.78916e-10 -5.65437e-08 2.91475e-05)
(1.44984e-09 -3.53728e-12 4.50928e-09 3.79033e-10 -5.6524e-08 2.91655e-05)
(5.36234e-09 5.44785e-12 6.23829e-09 1.87493e-10 5.884e-08 5.26101e-05)
(6.20746e-09 2.55441e-12 1.04381e-08 1.87863e-10 5.91099e-08 5.28513e-05)
(5.49014e-09 2.88143e-11 1.6953e-08 1.87693e-10 5.91758e-08 5.29833e-05)
(5.72106e-09 1.48888e-11 1.3258e-08 1.89097e-10 5.95227e-08 5.30187e-05)
(9.12886e-09 1.05779e-11 1.53381e-09 1.89277e-10 5.96227e-08 5.28367e-05)
(6.86072e-09 3.48598e-11 -1.57134e-10 1.88515e-10 5.91092e-08 5.27021e-05)
(5.9483e-09 1.40935e-11 8.23245e-09 1.88204e-10 5.89831e-08 5.26254e-05)
(7.3446e-09 5.50172e-12 5.89713e-09 1.88684e-10 5.93502e-08 5.28136e-05)
(8.10627e-09 1.45818e-11 9.80349e-10 1.88462e-10 5.95165e-08 5.303e-05)
(6.40594e-09 2.37116e-11 -5.24831e-09 1.88346e-10 5.93665e-08 5.29084e-05)
(5.45846e-09 1.24737e-11 -5.14101e-09 1.8777e-10 5.88571e-08 5.25341e-05)
(3.84598e-09 2.43841e-11 1.05271e-08 1.87946e-10 5.89542e-08 5.25739e-05)
(1.02183e-08 3.02958e-11 1.23324e-08 1.00322e-10 -3.85323e-08 7.45459e-05)
(1.1823e-08 2.05916e-11 2.03185e-08 1.0009e-10 -3.81012e-08 7.49625e-05)
(1.03717e-08 9.1427e-11 3.11679e-08 9.90665e-11 -3.79025e-08 7.52214e-05)
(1.08196e-08 5.61265e-11 2.10186e-08 1.04883e-10 -3.6897e-08 7.52826e-05)
(1.72615e-08 4.05803e-11 9.68749e-10 1.0597e-10 -3.66252e-08 7.49344e-05)
(1.30387e-08 9.92832e-11 1.32595e-10 1.0315e-10 -3.7874e-08 7.47116e-05)
(1.13754e-08 4.41895e-11 1.40375e-08 1.02238e-10 -3.80931e-08 7.45926e-05)
(1.39307e-08 1.02631e-11 8.99676e-09 1.03303e-10 -3.73397e-08 7.49065e-05)
(1.5317e-08 4.20842e-11 1.59925e-09 1.01228e-10 -3.71896e-08 7.52667e-05)
(1.22314e-08 7.72302e-11 -9.34329e-09 1.01835e-10 -3.7395e-08 7.50697e-05)
(1.03538e-08 4.02376e-11 -9.91025e-09 1.01684e-10 -3.83604e-08 7.44223e-05)
(7.2258e-09 4.53107e-11 1.75617e-08 1.02943e-10 -3.81625e-08 7.44822e-05)
(1.64447e-08 5.47709e-11 1.90808e-08 6.45491e-11 3.92718e-08 9.33944e-05)
(1.90215e-08 4.77078e-11 3.24e-08 6.54346e-11 4.02887e-08 9.40064e-05)
(1.65587e-08 1.88482e-10 4.7659e-08 6.39325e-11 4.08927e-08 9.44333e-05)
(1.72904e-08 1.02991e-10 2.6822e-08 7.90115e-11 4.27818e-08 9.45167e-05)
(2.75585e-08 7.23027e-11 -1.75113e-09 8.14186e-11 4.29336e-08 9.39507e-05)
(2.0924e-08 1.94367e-10 6.12945e-10 7.31192e-11 4.05424e-08 9.36457e-05)
(1.83667e-08 8.94759e-11 1.98372e-08 7.06344e-11 4.01472e-08 9.34938e-05)
(2.23088e-08 2.91825e-11 1.11611e-08 7.4222e-11 4.16503e-08 9.39338e-05)
(2.44345e-08 8.26548e-11 2.14208e-09 7.01057e-11 4.21065e-08 9.44427e-05)
(1.97181e-08 1.46931e-10 -1.40109e-08 7.04817e-11 4.16543e-08 9.4174e-05)
(1.65912e-08 8.20465e-11 -1.58569e-08 6.82544e-11 3.95173e-08 9.32245e-05)
(1.14665e-08 1.10204e-10 2.53637e-08 7.11506e-11 3.98946e-08 9.32962e-05)
(2.39329e-08 9.53497e-11 2.5702e-08 1.43305e-10 6.19557e-08 0.000108586)
(2.76802e-08 1.00264e-10 4.60506e-08 1.45487e-10 6.37155e-08 0.000109402)
(2.39233e-08 3.43489e-10 6.54548e-08 1.43811e-10 6.5051e-08 0.000110033)
(2.50025e-08 1.75547e-10 2.9354e-08 1.76471e-10 6.82057e-08 0.00011013)
(3.97776e-08 1.18946e-10 -7.10616e-09 1.81029e-10 6.79479e-08 0.000109299)
(3.03614e-08 3.3341e-10 1.31078e-09 1.6197e-10 6.40736e-08 0.00010893)
(2.68116e-08 1.59126e-10 2.49764e-08 1.56914e-10 6.35508e-08 0.00010876)
(3.23007e-08 5.69665e-11 1.18306e-08 1.64914e-10 6.5959e-08 0.000109315)
(3.52403e-08 1.43622e-10 2.49835e-09 1.56563e-10 6.6715e-08 0.000109966)
(2.87396e-08 2.55223e-10 -1.89723e-08 1.57021e-10 6.60331e-08 0.000109637)
(2.4052e-08 1.49708e-10 -2.27333e-08 1.51717e-10 6.23394e-08 0.000108377)
(1.6458e-08 2.02665e-10 3.3572e-08 1.5795e-10 6.29193e-08 0.000108447)
(3.25828e-08 1.45699e-10 3.16393e-08 2.81263e-10 1.00899e-07 0.00012005)
(3.76892e-08 1.8412e-10 6.07573e-08 2.8619e-10 1.03683e-07 0.000121069)
(3.23562e-08 5.63749e-10 8.391e-08 2.8637e-10 1.06235e-07 0.000121935)
(3.38432e-08 2.66712e-10 2.81082e-08 3.4814e-10 1.11004e-07 0.000122034)
(5.3694e-08 1.71716e-10 -1.51091e-08 3.54902e-10 1.09788e-07 0.000120901)
(4.12075e-08 5.14065e-10 2.33529e-09 3.17e-10 1.04148e-07 0.000120492)
(3.66074e-08 2.52508e-10 2.90972e-08 3.08175e-10 1.03576e-07 0.000120322)
(4.37435e-08 9.68261e-11 1.07317e-08 3.23718e-10 1.07058e-07 0.000120972)
(4.75336e-08 2.23781e-10 2.60227e-09 3.0894e-10 1.08183e-07 0.000121753)
(3.91778e-08 3.98635e-10 -2.39347e-08 3.09256e-10 1.07267e-07 0.000121378)
(3.26327e-08 2.44827e-10 -3.02199e-08 2.97837e-10 1.01458e-07 0.000119813)
(2.2104e-08 3.37647e-10 4.19156e-08 3.09414e-10 1.02225e-07 0.000119866)
(4.23061e-08 2.0257e-10 3.65529e-08 4.95315e-10 1.4787e-07 0.000127968)
(4.89555e-08 3.0756e-10 7.61314e-08 5.05145e-10 1.51979e-07 0.000129184)
(4.17694e-08 8.59478e-10 1.02674e-07 5.11444e-10 1.56333e-07 0.000130302)
(4.37204e-08 3.74577e-10 2.32737e-08 6.17718e-10 1.63077e-07 0.000130395)
(6.91059e-08 2.25012e-10 -2.53742e-08 6.25335e-10 1.60167e-07 0.000128936)
(5.33349e-08 7.34979e-10 3.86443e-09 5.57475e-10 1.52555e-07 0.000128512)
(4.76644e-08 3.69833e-10 3.2125e-08 5.43823e-10 1.52064e-07 0.000128356)
(5.64947e-08 1.48255e-10 7.86905e-09 5.70971e-10 1.56737e-07 0.00012908)
(6.11369e-08 3.23137e-10 2.44375e-09 5.4698e-10 1.58273e-07 0.000129973)
(5.09281e-08 5.78615e-10 -2.85593e-08 5.47048e-10 1.57161e-07 0.00012957)
(4.22489e-08 3.71402e-10 -3.78894e-08 5.24857e-10 1.48661e-07 0.000127719)
(2.83249e-08 5.22551e-10 5.02332e-08 5.44254e-10 1.49567e-07 0.000127739)
(5.30321e-08 2.60291e-10 4.02797e-08 8.0743e-10 2.0294e-07 0.000132638)
(6.14084e-08 4.78419e-10 9.19017e-08 8.2547e-10 2.08703e-07 0.000134038)
(5.20998e-08 1.23926e-09 1.21627e-07 8.45376e-10 2.15542e-07 0.000135418)
(5.45661e-08 4.94964e-10 1.55166e-08 1.01574e-09 2.24651e-07 0.000135501)
(8.58422e-08 2.71209e-10 -3.72691e-08 1.02031e-09 2.19149e-07 0.000133705)
(6.66388e-08 9.92586e-10 6.09549e-09 9.08249e-10 2.09434e-07 0.000133288)
(5.9912e-08 5.09577e-10 3.42027e-08 8.89183e-10 2.09195e-07 0.00013316)
(7.04381e-08 2.09289e-10 3.46944e-09 9.32876e-10 2.15133e-07 0.000133936)
(7.59022e-08 4.40659e-10 2.06091e-09 8.96359e-10 2.17087e-07 0.00013492)
(6.39052e-08 7.94655e-10 -3.24736e-08 8.96267e-10 2.15843e-07 0.000134505)
(5.28384e-08 5.32826e-10 -4.52292e-08 8.56299e-10 2.04067e-07 0.000132395)
(3.50598e-08 7.65595e-10 5.84752e-08 8.8624e-10 2.05023e-07 0.000132368)
(6.47112e-08 3.11504e-10 4.2772e-08 1.23612e-09 2.63261e-07 0.000134403)
(7.50048e-08 7.03944e-10 1.07892e-07 1.26704e-09 2.71014e-07 0.00013597)
(6.33123e-08 1.71025e-09 1.40799e-07 1.31219e-09 2.81093e-07 0.00013761)
(6.63381e-08 6.22846e-10 5.72117e-09 1.57081e-09 2.92996e-07 0.000137684)
(1.03768e-07 3.0231e-10 -5.00987e-08 1.56462e-09 2.83893e-07 0.000135555)
(8.10415e-08 1.28242e-09 9.18487e-09 1.39121e-09 2.72003e-07 0.00013516)
(7.33041e-08 6.69198e-10 3.55952e-08 1.36703e-09 2.7221e-07 0.000135067)
(8.54901e-08 2.76386e-10 -2.11032e-09 1.43275e-09 2.79451e-07 0.000135877)
(9.1716e-08 5.75169e-10 1.52322e-09 1.37969e-09 2.81782e-07 0.000136932)
(7.80488e-08 1.04618e-09 -3.53093e-08 1.38003e-09 2.80497e-07 0.000136518)
(6.43642e-08 7.33027e-10 -5.17029e-08 1.31255e-09 2.64897e-07 0.000134183)
(4.22684e-08 1.0744e-09 6.66839e-08 1.35577e-09 2.65769e-07 0.000134098)
(7.73185e-08 3.47611e-10 4.40289e-08 1.80088e-09 3.27902e-07 0.000133606)
(8.97317e-08 9.90875e-10 1.23982e-07 1.8512e-09 3.37978e-07 0.00013532)
(7.5401e-08 2.27784e-09 1.6028e-07 1.93829e-09 3.52106e-07 0.000137214)
(7.90216e-08 7.51763e-10 -5.24445e-09 2.31422e-09 3.6728e-07 0.000137285)
(1.22787e-07 3.10145e-10 -6.32643e-08 2.28428e-09 3.53488e-07 0.000134837)
(9.6496e-08 1.59939e-09 1.3202e-08 2.02996e-09 3.39396e-07 0.000134471)
(8.78225e-08 8.45163e-10 3.65923e-08 2.00222e-09 3.40253e-07 0.000134419)
(1.01602e-07 3.4512e-10 -8.48937e-09 2.09563e-09 3.48806e-07 0.000135247)
(1.08501e-07 7.25472e-10 9.10756e-10 2.02125e-09 3.51423e-07 0.000136353)
(9.33259e-08 1.33234e-09 -3.67484e-08 2.02332e-09 3.50209e-07 0.000135952)
(7.68158e-08 9.76582e-10 -5.6822e-08 1.9154e-09 3.30297e-07 0.000133425)
(4.99311e-08 1.45647e-09 7.49583e-08 1.97424e-09 3.30916e-07 0.000133277)
(9.08535e-08 3.59199e-10 4.40332e-08 2.52063e-09 3.95247e-07 0.000130578)
(1.05606e-07 1.3454e-09 1.40065e-07 2.59907e-09 4.07974e-07 0.000132419)
(8.83882e-08 2.94554e-09 1.80137e-07 2.75074e-09 4.27004e-07 0.000134555)
(9.26278e-08 8.74269e-10 -1.67095e-08 3.27823e-09 4.4597e-07 0.000134634)
(1.42843e-07 2.86954e-10 -7.63713e-08 3.20489e-09 4.26348e-07 0.000131889)
(1.12986e-07 1.938e-09 1.81185e-08 2.84831e-09 4.10061e-07 0.000131554)
(1.03477e-07 1.03335e-09 3.74233e-08 2.82009e-09 4.11776e-07 0.000131543)
(1.18758e-07 4.10769e-10 -1.53604e-08 2.94662e-09 4.21622e-07 0.000132379)
(1.26217e-07 8.90983e-10 2.92719e-10 2.84521e-09 4.24379e-07 0.000133515)
(1.09731e-07 1.65281e-09 -3.65559e-08 2.85124e-09 4.23362e-07 0.000133136)
(9.02081e-08 1.26938e-09 -6.01992e-08 2.68662e-09 3.98732e-07 0.000130451)
(5.80479e-08 1.91887e-09 8.34178e-08 2.76259e-09 3.98905e-07 0.000130238)
(1.0534e-07 3.3654e-10 4.27114e-08 3.4147e-09 4.63729e-07 0.000125631)
(1.22675e-07 1.7734e-09 1.56008e-07 3.53279e-09 4.79425e-07 0.00012758)
(1.02323e-07 3.71544e-09 2.00335e-07 3.77849e-09 5.04249e-07 0.000129944)
(1.07192e-07 9.8212e-10 -2.83009e-08 4.49724e-09 5.2756e-07 0.000130045)
(1.63911e-07 2.2534e-10 -8.92467e-08 4.35279e-09 5.0093e-07 0.000127025)
(1.30524e-07 2.29255e-09 2.38055e-08 3.87152e-09 4.82482e-07 0.000126718)
(1.20304e-07 1.22923e-09 3.82204e-08 3.84763e-09 4.8527e-07 0.000126749)
(1.36976e-07 4.68909e-10 -2.25337e-08 4.01198e-09 4.96356e-07 0.000127583)
(1.44852e-07 1.07206e-09 -2.8673e-10 3.8768e-09 4.99048e-07 0.000128732)
(1.27285e-07 2.00795e-09 -3.46155e-08 3.89017e-09 4.98371e-07 0.000128381)
(1.04579e-07 1.61881e-09 -6.15886e-08 3.6492e-09 4.68708e-07 0.000125571)
(6.66365e-08 2.4683e-09 9.21542e-08 3.74245e-09 4.68223e-07 0.000125292)
(1.20815e-07 2.69936e-10 3.99619e-08 4.50293e-09 5.31678e-07 0.000119069)
(1.41e-07 2.28075e-09 1.71623e-07 4.67558e-09 5.50647e-07 0.000121104)
(1.17273e-07 4.58819e-09 2.20696e-07 5.0524e-09 5.82184e-07 0.000123682)
(1.22768e-07 1.06644e-09 -3.98861e-08 6.00783e-09 6.104e-07 0.00012382)
(1.85987e-07 1.18442e-10 -1.0187e-07 5.75532e-09 5.7556e-07 0.000120548)
(1.49142e-07 2.65686e-09 3.00606e-08 5.12644e-09 5.5502e-07 0.000120266)
(1.38359e-07 1.42787e-09 3.90179e-08 5.11346e-09 5.59103e-07 0.000120339)
(1.56295e-07 5.15691e-10 -2.99284e-08 5.31919e-09 5.71337e-07 0.000121164)
(1.64418e-07 1.27022e-09 -8.06934e-10 5.1423e-09 5.73701e-07 0.000122306)
(1.46022e-07 2.39922e-09 -3.09256e-08 5.16764e-09 5.73522e-07 0.00012199)
(1.19982e-07 2.03388e-09 -6.08775e-08 4.82753e-09 5.38614e-07 0.000119084)
(7.57269e-08 3.11098e-09 1.012e-07 4.93636e-09 5.37248e-07 0.000118742)
(1.37324e-07 1.49707e-10 3.56687e-08 5.80547e-09 5.9734e-07 0.000111193)
(1.60653e-07 2.87285e-09 1.86675e-07 6.05161e-09 6.19869e-07 0.000113294)
(1.33315e-07 5.56301e-09 2.40902e-07 6.60524e-09 6.59052e-07 0.000116071)
(1.39415e-07 1.11788e-09 -5.15401e-08 7.8486e-09 6.92711e-07 0.000116259)
(2.0907e-07 -4.06411e-11 -1.14318e-07 7.44081e-09 6.48441e-07 0.000112758)
(1.68877e-07 3.02367e-09 3.66568e-08 6.64136e-09 6.25932e-07 0.000112499)
(1.57702e-07 1.624e-09 3.9749e-08 6.6477e-09 6.31539e-07 0.000112612)
(1.7676e-07 5.48064e-10 -3.7565e-08 6.8967e-09 6.44777e-07 0.000113423)
(1.8493e-07 1.48827e-09 -1.2678e-09 6.66891e-09 6.465e-07 0.000114541)
(1.65983e-07 2.82854e-09 -2.55674e-08 6.71224e-09 6.46993e-07 0.000114263)
(1.36474e-07 2.52468e-09 -5.80574e-08 6.24728e-09 6.06732e-07 0.000111292)
(8.53546e-08 3.85243e-09 1.10519e-07 6.36764e-09 6.04257e-07 0.000110891)
(1.54905e-07 -3.36646e-11 2.96995e-08 7.34312e-09 6.58904e-07 0.000102304)
(1.81696e-07 3.55462e-09 2.00871e-07 7.68644e-09 6.85257e-07 0.000104452)
(1.50526e-07 6.63782e-09 2.60495e-07 8.4721e-09 7.33012e-07 0.000107411)
(1.57194e-07 1.12689e-09 -6.35264e-08 1.00606e-08 7.72605e-07 0.000107659)
(2.33153e-07 -2.58831e-10 -1.26715e-07 9.43904e-09 7.17676e-07 0.000103949)
(1.89765e-07 3.3848e-09 4.3368e-08 8.44636e-09 6.93391e-07 0.000103714)
(1.78389e-07 1.81172e-09 4.02664e-08 8.48215e-09 7.00764e-07 0.000103868)
(1.98417e-07 5.6372e-10 -4.55289e-08 8.77418e-09 7.14801e-07 0.000104656)
(2.06399e-07 1.73056e-09 -1.69033e-09 8.48499e-09 7.15524e-07 0.000105733)
(1.87197e-07 3.2987e-09 -1.86979e-08 8.55387e-09 7.16874e-07 0.000105499)
(1.54108e-07 3.10222e-09 -5.32127e-08 7.93578e-09 6.7127e-07 0.000102491)
(9.55566e-08 4.69751e-09 1.19986e-07 8.0608e-09 6.6745e-07 0.000102036)
(1.73586e-07 -2.89941e-10 2.19457e-08 9.13687e-09 7.14548e-07 9.26997e-05)
(2.04175e-07 4.33006e-09 2.13879e-07 9.60657e-09 7.44962e-07 9.48747e-05)
(1.68976e-07 7.80921e-09 2.78915e-07 1.06901e-08 8.02183e-07 9.79967e-05)
(1.76155e-07 1.08342e-09 -7.61715e-08 1.26867e-08 8.48113e-07 9.83107e-05)
(2.58202e-07 -5.43463e-10 -1.39149e-07 1.17808e-08 7.81308e-07 9.44151e-05)
(2.11825e-07 3.7308e-09 4.99871e-08 1.05728e-08 7.55538e-07 9.42078e-05)
(2.00465e-07 1.98431e-09 4.038e-08 1.06499e-08 7.64926e-07 9.44025e-05)
(2.21296e-07 5.60779e-10 -5.39101e-08 1.0982e-08 7.79486e-07 9.516e-05)
(2.2882e-07 2.00293e-09 -2.10904e-09 1.06196e-08 7.78818e-07 9.61787e-05)
(2.09676e-07 3.81292e-09 -1.05309e-08 1.07233e-08 7.81219e-07 9.59913e-05)
(1.72922e-07 3.7778e-09 -4.64935e-08 9.92153e-09 7.30399e-07 9.29792e-05)
(1.06366e-07 5.65033e-09 1.29388e-07 1.00411e-08 7.24998e-07 9.2473e-05)
(1.93363e-07 -6.29628e-10 1.23531e-08 1.12073e-08 7.62492e-07 8.26751e-05)
(2.28096e-07 5.20158e-09 2.25331e-07 1.18389e-08 7.97172e-07 8.48572e-05)
(1.88712e-07 9.07229e-09 2.95544e-07 1.32981e-08 8.64687e-07 8.81199e-05)
(1.96327e-07 9.76799e-10 -8.97591e-08 1.57716e-08 9.17236e-07 8.85004e-05)
(2.84146e-07 -9.02569e-10 -1.51628e-07 1.44974e-08 8.37384e-07 8.44426e-05)
(2.35041e-07 4.05112e-09 5.63357e-08 1.30528e-08 8.10533e-07 8.42716e-05)
(2.2394e-07 2.13369e-09 3.98938e-08 1.31849e-08 8.22187e-07 8.45086e-05)
(2.45399e-07 5.37486e-10 -6.27541e-08 1.35505e-08 8.3692e-07 8.52247e-05)
(2.52158e-07 2.31267e-09 -2.56359e-09 1.31018e-08 8.34453e-07 8.61696e-05)
(2.33393e-07 4.37468e-09 -1.32317e-09 1.32517e-08 8.38095e-07 8.60319e-05)
(1.92926e-07 4.56255e-09 -3.8103e-08 1.22335e-08 7.8232e-07 8.30485e-05)
(1.17802e-07 6.71421e-09 1.38431e-07 1.23338e-08 7.75095e-07 8.24958e-05)
(2.14195e-07 -1.06445e-09 9.47366e-10 1.3574e-08 8.01067e-07 7.25163e-05)
(2.53414e-07 6.16939e-09 2.34843e-07 1.44101e-08 8.40175e-07 7.46851e-05)
(2.09746e-07 1.04206e-08 3.09752e-07 1.6336e-08 9.18707e-07 7.80607e-05)
(2.17704e-07 7.95627e-10 -1.04441e-07 1.93604e-08 9.77997e-07 7.85031e-05)
(3.10858e-07 -1.34474e-09 -1.64046e-07 1.76193e-08 8.84023e-07 7.43123e-05)
(2.59355e-07 4.33445e-09 6.22663e-08 1.59183e-08 8.56618e-07 7.4188e-05)
(2.48783e-07 2.25012e-09 3.86388e-08 1.61211e-08 8.70782e-07 7.44682e-05)
(2.70688e-07 4.91929e-10 -7.20279e-08 1.65089e-08 8.85265e-07 7.51318e-05)
(2.76338e-07 2.66839e-09 -3.09068e-09 1.59598e-08 8.80591e-07 7.59884e-05)
(2.58274e-07 4.98772e-09 8.63341e-09 1.61696e-08 8.85653e-07 7.59021e-05)
(2.14088e-07 5.46712e-09 -2.82932e-08 1.49003e-08 8.25324e-07 7.29832e-05)
(1.29871e-07 7.89173e-09 1.46752e-07 1.49632e-08 8.16031e-07 7.23881e-05)
(2.35984e-07 -1.60783e-09 -1.21496e-08 1.62542e-08 8.28788e-07 6.24931e-05)
(2.80009e-07 7.23076e-09 2.4203e-07 1.73456e-08 8.7243e-07 6.46277e-05)
(2.3204e-07 1.18461e-08 3.20945e-07 1.9844e-08 9.62546e-07 6.80825e-05)
(2.40229e-07 5.28087e-10 -1.20177e-07 2.34981e-08 1.02851e-06 6.85769e-05)
(3.38144e-07 -1.87886e-09 -1.76181e-07 2.11753e-08 9.19494e-07 6.42893e-05)
(2.84642e-07 4.56898e-09 6.76589e-08 1.92007e-08 8.92189e-07 6.4223e-05)
(2.74903e-07 2.3217e-09 3.64996e-08 1.94918e-08 9.09087e-07 6.45467e-05)
(2.97067e-07 4.21843e-10 -8.16051e-08 1.98848e-08 9.22826e-07 6.51467e-05)
(3.01228e-07 3.0798e-09 -3.71753e-09 1.92201e-08 9.15566e-07 6.59027e-05)
(2.84177e-07 5.65593e-09 1.90163e-08 1.95062e-08 9.22202e-07 6.5868e-05)
(2.36317e-07 6.50141e-09 -1.73693e-08 1.79491e-08 8.57865e-07 6.30507e-05)
(1.42549e-07 9.18472e-09 1.53936e-07 1.79519e-08 8.4626e-07 6.24175e-05)
(2.58564e-07 -2.27526e-09 -2.67107e-08 1.92626e-08 8.44421e-07 5.28505e-05)
(3.07676e-07 8.37926e-09 2.4652e-07 2.0669e-08 8.9263e-07 5.493e-05)
(2.55494e-07 1.33389e-08 3.28597e-07 2.38619e-08 9.94699e-07 5.8424e-05)
(2.63786e-07 1.62618e-10 -1.3671e-07 2.82285e-08 1.06703e-06 5.89561e-05)
(3.65733e-07 -2.51355e-09 -1.87697e-07 2.51916e-08 9.4229e-07 5.4616e-05)
(3.10707e-07 4.74286e-09 7.24178e-08 2.29294e-08 9.15858e-07 5.46181e-05)
(3.02137e-07 2.3341e-09 3.34304e-08 2.33287e-08 9.35682e-07 5.49844e-05)
(3.24373e-07 3.24578e-10 -9.12702e-08 2.37024e-08 9.48124e-07 5.55106e-05)
(3.26635e-07 3.55738e-09 -4.4574e-09 2.29061e-08 9.37945e-07 5.61565e-05)
(3.10882e-07 6.38334e-09 2.9477e-08 2.32884e-08 9.46277e-07 5.6172e-05)
(2.59455e-07 7.67451e-09 -5.69591e-09 2.14049e-08 8.78628e-07 5.34932e-05)
(1.55783e-07 1.05943e-08 1.59542e-07 2.13193e-08 8.64473e-07 5.28269e-05)
(2.81693e-07 -3.08451e-09 -4.24027e-08 2.26102e-08 8.47052e-07 4.38003e-05)
(3.3611e-07 9.6041e-09 2.47978e-07 2.44008e-08 8.99767e-07 4.58043e-05)
(2.79932e-07 1.48876e-08 3.32282e-07 2.8428e-08 1.0139e-06 4.92915e-05)
(2.88182e-07 -3.10892e-10 -1.5357e-07 3.35932e-08 1.09207e-06 4.98438e-05)
(3.93269e-07 -3.25624e-09 -1.98174e-07 2.96905e-08 9.51207e-07 4.55031e-05)
(3.37266e-07 4.84454e-09 7.64686e-08 2.71317e-08 9.26521e-07 4.55816e-05)
(3.30236e-07 2.27044e-09 2.94634e-08 2.76614e-08 9.49418e-07 4.59882e-05)
(3.52366e-07 1.97194e-10 -1.00737e-07 2.79818e-08 9.59965e-07 4.64326e-05)
(3.52295e-07 4.11202e-09 -5.30766e-09 2.70377e-08 9.46605e-07 4.69624e-05)
(3.38082e-07 7.17413e-09 3.96481e-08 2.75392e-08 9.56715e-07 4.70248e-05)
(2.83267e-07 8.99452e-09 6.2996e-09 2.52893e-08 8.86592e-07 4.45195e-05)
(1.69486e-07 1.21211e-08 1.63127e-07 2.5081e-08 8.69664e-07 4.38261e-05)
(3.0505e-07 -4.05555e-09 -5.87914e-08 2.63037e-08 8.36138e-07 3.55143e-05)
(3.649e-07 1.08894e-08 2.46129e-07 2.85583e-08 8.93189e-07 3.74234e-05)
(3.05094e-07 1.6479e-08 3.31697e-07 3.35788e-08 1.01921e-06 4.08537e-05)
(3.13145e-07 -8.99413e-10 -1.7011e-07 3.963e-08 1.10238e-06 4.14063e-05)
(4.20314e-07 -4.11207e-09 -2.07131e-07 3.469e-08 9.45404e-07 3.71237e-05)
(3.63948e-07 4.86302e-09 7.97567e-08 3.1832e-08 9.23414e-07 3.72829e-05)
(3.58864e-07 2.11135e-09 2.47067e-08 3.25165e-08 9.49473e-07 3.7726e-05)
(3.80723e-07 3.66532e-11 -1.09673e-07 3.27383e-08 9.57503e-07 3.80831e-05)
(3.77871e-07 4.75459e-09 -6.25079e-09 3.16302e-08 9.40791e-07 3.84949e-05)
(3.6538e-07 8.03246e-09 4.91544e-08 3.22776e-08 9.52713e-07 3.85993e-05)
(3.0743e-07 1.04685e-08 1.81316e-08 2.96198e-08 8.81084e-07 3.62982e-05)
(1.83526e-07 1.37649e-08 1.64273e-07 2.92477e-08 8.61189e-07 3.55847e-05)
(3.28226e-07 -5.20999e-09 -7.53524e-08 3.03452e-08 8.11552e-07 2.81193e-05)
(3.93532e-07 1.22139e-08 2.40781e-07 3.31548e-08 8.72634e-07 2.99159e-05)
(3.30631e-07 1.80979e-08 3.26683e-07 3.93473e-08 1.01e-06 3.32368e-05)
(3.38318e-07 -1.60466e-09 -1.85548e-07 4.63727e-08 1.09711e-06 3.37696e-05)
(4.4635e-07 -5.08251e-09 -2.14067e-07 4.02031e-08 9.24459e-07 2.96077e-05)
(3.90293e-07 4.78781e-09 8.22469e-08 3.70515e-08 9.06153e-07 2.98474e-05)
(3.87593e-07 1.8353e-09 1.93366e-08 3.79173e-08 9.35397e-07 3.03215e-05)
(4.09036e-07 -1.59896e-10 -1.17732e-07 3.79814e-08 9.40289e-07 3.05893e-05)
(4.02959e-07 5.49552e-09 -7.25871e-09 3.66939e-08 9.20157e-07 3.08852e-05)
(3.9229e-07 8.96231e-09 5.76263e-08 3.75172e-08 9.33873e-07 3.10252e-05)
(3.3154e-07 1.21019e-08 2.92695e-08 3.44094e-08 8.61821e-07 2.89532e-05)
(1.97733e-07 1.55246e-08 1.62611e-07 3.38249e-08 8.38806e-07 2.8228e-05)
(3.50743e-07 -6.57008e-09 -9.14893e-08 3.47327e-08 7.73595e-07 2.16954e-05)
(4.21398e-07 1.35503e-08 2.31856e-07 3.81993e-08 8.38253e-07 2.33642e-05)
(3.56104e-07 1.97276e-08 3.17238e-07 4.57633e-08 9.86046e-07 2.65238e-05)
(3.63262e-07 -2.42073e-09 -1.9904e-07 5.38491e-08 1.07577e-06 2.70174e-05)
(4.70799e-07 -6.1639e-09 -2.18501e-07 4.62383e-08 8.88397e-07 2.304e-05)
(4.15762e-07 4.60881e-09 8.39234e-08 4.28082e-08 8.74759e-07 2.33552e-05)
(4.15912e-07 1.41919e-09 1.35846e-08 4.38831e-08 9.07138e-07 2.38536e-05)
(4.3682e-07 -3.94796e-10 -1.24583e-07 4.37141e-08 9.083e-07 2.40335e-05)
(4.27088e-07 6.34442e-09 -8.30033e-09 4.22336e-08 8.84796e-07 2.42195e-05)
(4.18248e-07 9.96705e-09 6.47159e-08 4.3266e-08 9.00234e-07 2.4388e-05)
(3.55115e-07 1.38984e-08 3.91603e-08 3.9666e-08 8.28927e-07 2.25622e-05)
(2.11897e-07 1.73979e-08 1.57847e-07 3.88122e-08 8.02695e-07 2.18347e-05)
(3.72055e-07 -8.15713e-09 -1.06557e-07 3.94593e-08 7.22994e-07 1.62767e-05)
(4.47814e-07 1.48653e-08 2.19404e-07 4.36964e-08 7.90609e-07 1.78056e-05)
(3.80996e-07 2.13489e-08 3.03531e-07 5.28519e-08 9.47499e-07 2.07551e-05)
(3.87468e-07 -3.33187e-09 -2.09748e-07 6.20809e-08 1.0383e-06 2.11929e-05)
(4.9304e-07 -7.34611e-09 -2.20018e-07 5.27992e-08 8.37702e-07 1.74608e-05)
(4.39758e-07 4.31603e-09 8.47886e-08 4.91167e-08 8.29661e-07 1.78418e-05)
(4.43239e-07 8.39254e-10 7.72036e-09 5.04295e-08 8.65051e-07 1.83568e-05)
(4.63517e-07 -6.69596e-10 -1.2993e-07 4.99334e-08 8.61958e-07 1.84541e-05)
(4.4974e-07 7.30969e-09 -9.35147e-09 4.8249e-08 8.35244e-07 1.85393e-05)
(4.42632e-07 1.10491e-08 7.01117e-08 4.95259e-08 8.52272e-07 1.87285e-05)
(3.7761e-07 1.58587e-08 4.7257e-08 4.53919e-08 7.82932e-07 1.71576e-05)
(2.25771e-07 1.93807e-08 1.49782e-07 4.42036e-08 7.53466e-07 1.64381e-05)
(3.9158e-07 -9.98934e-09 -1.19895e-07 4.45145e-08 6.60872e-07 1.18548e-05)
(4.72053e-07 1.61202e-08 2.03622e-07 4.96466e-08 7.30654e-07 1.32352e-05)
(4.04724e-07 2.29401e-08 2.85898e-07 6.0633e-08 8.94884e-07 1.5932e-05)
(4.10372e-07 -4.31051e-09 -2.16916e-07 7.1082e-08 9.85048e-07 1.63012e-05)
(5.12436e-07 -8.61133e-09 -2.18311e-07 5.98855e-08 7.73298e-07 1.2869e-05)
(4.61647e-07 3.8992e-09 8.48616e-08 5.59888e-08 7.71675e-07 1.33019e-05)
(4.6894e-07 7.2295e-11 2.03399e-09 5.75678e-08 8.09879e-07 1.38252e-05)
(4.88522e-07 -9.84777e-10 -1.33544e-07 5.66293e-08 8.02111e-07 1.38482e-05)
(4.70369e-07 8.39806e-09 -1.04058e-08 5.47343e-08 7.7246e-07 1.38444e-05)
(4.64787e-07 1.22091e-08 7.35528e-08 5.62927e-08 7.90885e-07 1.40465e-05)
(3.98441e-07 1.79797e-08 5.30511e-08 5.15843e-08 7.24753e-07 1.27304e-05)
(2.39084e-07 2.14659e-08 1.38333e-07 4.99873e-08 6.92127e-07 1.20294e-05)
(4.08722e-07 -1.20793e-08 -1.30857e-07 4.98847e-08 5.88697e-07 8.38436e-06)
(4.93376e-07 1.72708e-08 1.8486e-07 5.60462e-08 6.59686e-07 9.61127e-06)
(4.26669e-07 2.44769e-08 2.64839e-07 6.91203e-08 8.29079e-07 1.20214e-05)
(4.31384e-07 -5.31591e-09 -2.19947e-07 8.0858e-08 9.16786e-07 1.23143e-05)
(5.28374e-07 -9.93329e-09 -2.13221e-07 6.74936e-08 6.9651e-07 9.22684e-06)
(4.80799e-07 3.3474e-09 8.41759e-08 6.34331e-08 7.0197e-07 9.6944e-06)
(4.92363e-07 -9.02783e-10 -3.18357e-09 6.5305e-08 7.42721e-07 1.02175e-05)
(5.11202e-07 -1.33945e-09 -1.3527e-07 6.37856e-08 7.30002e-07 1.01776e-05)
(4.88426e-07 9.61411e-09 -1.14849e-08 6.1679e-08 6.97786e-07 1.00982e-05)
(4.84061e-07 1.34458e-08 7.48404e-08 6.35557e-08 7.17355e-07 1.03054e-05)
(4.17015e-07 2.02531e-08 5.6105e-08 5.82349e-08 6.55646e-07 9.23535e-06)
(2.51548e-07 2.36423e-08 1.23544e-07 5.61458e-08 6.20046e-07 8.56341e-06)
(4.22907e-07 -1.4431e-08 -1.38862e-07 5.55535e-08 5.08216e-07 5.79028e-06)
(5.11086e-07 1.8269e-08 1.63616e-07 6.28879e-08 5.79292e-07 6.86274e-06)
(4.46202e-07 2.5932e-08 2.40996e-07 7.83205e-08 7.51282e-07 8.96292e-06)
(4.49917e-07 -6.2938e-09 -2.18469e-07 9.14049e-08 8.34674e-07 9.17695e-06)
(5.40299e-07 -1.1277e-08 -2.04765e-07 7.56172e-08 6.09011e-07 6.46653e-06)
(4.96623e-07 2.64885e-09 8.27764e-08 7.14556e-08 6.2201e-07 6.94942e-06)
(5.12873e-07 -2.10328e-09 -7.65966e-09 7.36436e-08 6.64982e-07 7.46411e-06)
(5.30933e-07 -1.7311e-09 -1.35046e-07 7.13797e-08 6.47221e-07 7.37473e-06)
(5.03396e-07 1.09596e-08 -1.26452e-08 6.90677e-08 6.12894e-07 7.23369e-06)
(4.99848e-07 1.4755e-08 7.38459e-08 7.12982e-08 6.33293e-07 7.43907e-06)
(4.32767e-07 2.26642e-08 5.60831e-08 6.533e-08 5.77154e-07 6.59868e-06)
(2.62876e-07 2.58936e-08 1.05597e-07 6.26566e-08 5.38891e-07 5.96561e-06)
(4.33619e-07 -1.70369e-08 -1.43425e-07 6.1503e-08 4.21373e-07 3.97527e-06)
(5.24563e-07 1.9064e-08 1.40529e-07 7.01606e-08 4.91275e-07 4.89629e-06)
(4.62724e-07 2.72752e-08 2.15129e-07 8.82316e-08 6.62961e-07 6.67507e-06)
(4.65425e-07 -7.17711e-09 -2.12385e-07 1.02707e-07 7.40226e-07 6.81345e-06)
(5.4776e-07 -1.25994e-08 -1.93157e-07 8.42485e-08 5.12743e-07 4.49764e-06)
(5.08614e-07 1.79079e-09 8.07179e-08 8.00592e-08 5.33491e-07 4.97588e-06)
(5.29888e-07 -3.54078e-09 -1.11583e-08 8.25814e-08 5.78316e-07 5.47459e-06)
(5.47132e-07 -2.15545e-09 -1.32904e-07 7.93832e-08 5.55642e-07 5.35014e-06)
(5.14827e-07 1.24325e-08 -1.39807e-08 7.68807e-08 5.19708e-07 5.1615e-06)
(5.1163e-07 1.61291e-08 7.05167e-08 7.9497e-08 5.40572e-07 5.3589e-06)
(4.452e-07 2.51908e-08 5.27784e-08 7.28507e-08 4.91036e-07 4.72534e-06)
(2.728e-07 2.81969e-08 8.48106e-08 6.94926e-08 4.50551e-07 4.13975e-06)
(4.40443e-07 -1.98754e-08 -1.4421e-07 6.77142e-08 3.30227e-07 2.82818e-06)
(5.33323e-07 1.96049e-08 1.16349e-07 7.78498e-08 3.97588e-07 3.6046e-06)
(4.75707e-07 2.84741e-08 1.88084e-07 9.88411e-08 5.65821e-07 5.06306e-06)
(4.77443e-07 -7.88807e-09 -2.01902e-07 1.14737e-07 6.35276e-07 5.13391e-06)
(5.50447e-07 -1.38506e-08 -1.7881e-07 9.3378e-08 4.09841e-07 3.21476e-06)
(5.16397e-07 7.59776e-10 7.80635e-08 8.92434e-08 4.3828e-07 3.66918e-06)
(5.42923e-07 -5.21908e-09 -1.34978e-08 9.21101e-08 4.84563e-07 4.1452e-06)
(5.59302e-07 -2.60632e-09 -1.28975e-07 8.77617e-08 4.57346e-07 4.00029e-06)
(5.22374e-07 1.40259e-08 -1.56201e-08 8.50936e-08 4.2034e-07 3.77716e-06)
(5.19022e-07 1.75566e-08 6.48779e-08 8.81229e-08 4.41255e-07 3.9615e-06)
(4.53928e-07 2.78018e-08 4.61345e-08 8.07728e-08 3.99194e-07 3.50731e-06)
(2.81085e-07 3.05218e-08 6.16439e-08 7.66221e-08 3.57066e-07 2.97604e-06)
(4.43094e-07 -2.29087e-08 -1.41075e-07 7.41671e-08 2.36865e-07 2.23175e-06)
(5.37051e-07 1.98426e-08 9.19071e-08 8.59365e-08 3.00253e-07 2.87387e-06)
(4.84737e-07 2.94951e-08 1.60751e-07 1.10124e-07 4.61754e-07 4.02518e-06)
(4.85623e-07 -8.34177e-09 -1.87535e-07 1.27453e-07 5.21936e-07 4.04061e-06)
(5.48228e-07 -1.49766e-08 -1.62325e-07 1.02995e-07 3.02546e-07 2.50486e-06)
(5.19763e-07 -4.57674e-10 7.48847e-08 9.90026e-08 3.38347e-07 2.91848e-06)
(5.51627e-07 -7.13235e-09 -1.4564e-08 1.02214e-07 3.85692e-07 3.3663e-06)
(5.67068e-07 -3.07564e-09 -1.23478e-07 9.64753e-08 3.54559e-07 3.21463e-06)
(5.2583e-07 1.57264e-08 -1.77163e-08 9.36772e-08 3.17006e-07 2.96872e-06)
(5.21812e-07 1.90216e-08 5.70307e-08 9.71396e-08 3.3752e-07 3.13615e-06)
(4.58711e-07 3.04567e-08 3.62593e-08 8.90662e-08 3.03608e-07 2.83107e-06)
(2.87553e-07 3.28297e-08 3.66803e-08 8.40092e-08 2.60537e-07 2.35877e-06)
(4.41451e-07 -2.60825e-08 -1.3409e-07 8.08413e-08 1.43315e-07 2.06942e-06)
(5.35637e-07 1.97335e-08 6.80588e-08 9.43973e-08 2.01292e-07 2.59051e-06)
(4.89548e-07 3.03049e-08 1.3401e-07 1.2204e-07 3.52789e-07 3.45854e-06)
(4.89766e-07 -8.4511e-09 -1.70063e-07 1.40795e-07 4.02529e-07 3.43329e-06)
(5.41173e-07 -1.59224e-08 -1.44443e-07 1.13089e-07 1.93117e-07 2.25396e-06)
(5.18703e-07 -1.87391e-09 7.12637e-08 1.09325e-07 2.35693e-07 2.61307e-06)
(5.55819e-07 -9.2633e-09 -1.43146e-08 1.1287e-07 2.83733e-07 3.0285e-06)
(5.70214e-07 -3.55372e-09 -1.16705e-07 1.05478e-07 2.49556e-07 2.88198e-06)
(5.25157e-07 1.75125e-08 -2.04267e-08 1.02597e-07 2.11947e-07 2.6232e-06)
(5.19992e-07 2.05033e-08 4.71511e-08 1.06504e-07 2.31583e-07 2.77114e-06)