/*--------------------------------*- C++ -*----------------------------------*\
| =========                 |                                                 |
| \\      /  F ield         | OpenFOAM: The Open Source CFD Toolbox           |
|  \\    /   O peration     | Version:  v1912                                 |
|   \\  /    A nd           | Website:  www.openfoam.com                      |
|    \\/     M anipulation  |                                                 |
\*---------------------------------------------------------------------------*/
FoamFile
{
    version     2.0;
    format      ascii;
    class       volVectorField;
    location    "9.6";
    object      wallShearStress;
}
// * * * * * * * * * * * * * * * * * * * * * * * * * * * * * * * * * * * * * //

dimensions      [1 -1 -2 0 0 0 0];


internalField   uniform (0 0 0);

boundaryField
{
    leftWall
    {
        type            calculated;
        value           nonuniform List<vector> 
216
(
(-0.00023734 -4.07333e-05 0.197734)
(6.25215e-05 -4.56963e-05 0.204633)
(0.00043859 -5.12846e-05 0.212632)
(0.00077683 -5.88108e-05 0.220666)
(0.000803804 -6.57366e-05 0.230371)
(0.000404019 -7.38021e-05 0.239994)
(-0.000384629 -8.21507e-05 0.25148)
(-0.00126436 -9.23816e-05 0.262378)
(-0.0018166 -0.000102654 0.27522)
(-0.00171227 -0.000116044 0.287707)
(-0.000949301 -0.000133333 0.304161)
(-0.000443747 -0.000160225 0.322646)
(-0.00150762 -0.000197327 0.349439)
(-0.00431808 -0.00027847 0.37883)
(-0.00611582 -0.000454907 0.43005)
(-0.00520768 -0.00103403 0.486297)
(-0.00347174 -0.00603724 0.70938)
(0.0477479 -0.11016 1.88064)
(-0.000529888 -4.39962e-05 0.195312)
(-0.000205533 -4.87553e-05 0.201686)
(0.000223088 -5.18667e-05 0.209865)
(0.000623021 -5.57446e-05 0.217862)
(0.000799045 -6.0281e-05 0.228028)
(0.000654863 -6.88901e-05 0.237691)
(0.000255716 -8.07908e-05 0.249793)
(-0.000257027 -9.32601e-05 0.261189)
(-0.000709869 -0.000103418 0.275154)
(-0.000975027 -0.000117977 0.288196)
(-0.00107013 -0.000141022 0.305032)
(-0.00127588 -0.000179287 0.323189)
(-0.00181334 -0.000231378 0.349633)
(-0.00233728 -0.000321312 0.376959)
(-0.000781696 -0.000498115 0.423657)
(0.00372124 -0.0010589 0.476052)
(0.00874865 -0.00597288 0.701101)
(-0.00583281 -0.114974 1.88977)
(-0.000521767 -4.57901e-05 0.192339)
(-0.000444656 -4.63894e-05 0.198137)
(-0.000362085 -4.37445e-05 0.206252)
(-0.000381802 -4.11892e-05 0.214202)
(-0.000514707 -4.12547e-05 0.225086)
(-0.000753745 -4.8852e-05 0.235798)
(-0.00100857 -5.95879e-05 0.25001)
(-0.00121183 -7.52341e-05 0.263797)
(-0.00114135 -9.46654e-05 0.280511)
(-0.000593191 -0.000121845 0.295014)
(0.000201283 -0.000154309 0.311667)
(0.000696227 -0.000195691 0.327465)
(0.000678876 -0.000242808 0.351477)
(0.000713717 -0.000323401 0.378268)
(0.0023695 -0.000466008 0.427334)
(0.00488235 -0.000940125 0.48498)
(0.00407415 -0.00548487 0.709334)
(-0.0338051 -0.117519 1.83011)
(-0.000189046 -4.85487e-05 0.192501)
(-0.000535204 -4.67803e-05 0.197575)
(-0.0010605 -4.47474e-05 0.204739)
(-0.0017886 -4.74e-05 0.211804)
(-0.00251771 -5.37345e-05 0.222001)
(-0.00313892 -6.52711e-05 0.232358)
(-0.00348399 -7.73623e-05 0.246322)
(-0.00334469 -9.07741e-05 0.259708)
(-0.00239633 -0.000103348 0.275606)
(-0.000596252 -0.000119974 0.289383)
(0.00127592 -0.000143527 0.306304)
(0.00226444 -0.000178399 0.324214)
(0.00234956 -0.00022143 0.351677)
(0.00287789 -0.000300075 0.38272)
(0.00413313 -0.000436141 0.43672)
(0.00302561 -0.000901499 0.49748)
(-0.000387857 -0.00560031 0.708252)
(0.0058755 -0.125607 1.84787)
(0.000704054 -5.04558e-05 0.19344)
(0.000106961 -5.47906e-05 0.198679)
(-0.000730013 -6.14383e-05 0.205525)
(-0.00173414 -7.19932e-05 0.212234)
(-0.00263805 -8.1285e-05 0.221258)
(-0.00325748 -9.08991e-05 0.230059)
(-0.0033704 -9.7609e-05 0.241263)
(-0.00274405 -0.000103844 0.251776)
(-0.00135049 -0.000108049 0.2649)
(0.000407318 -0.000119136 0.278386)
(0.00150671 -0.000136153 0.297622)
(0.00127732 -0.000160551 0.319884)
(0.000201266 -0.000190254 0.350226)
(-0.000126734 -0.000263045 0.383199)
(0.000260296 -0.000416502 0.441265)
(0.00080384 -0.000940024 0.507658)
(0.00331327 -0.00579693 0.731201)
(0.0202499 -0.119088 1.89498)
(0.00103739 -4.51507e-05 0.194053)
(0.000663446 -5.49467e-05 0.200381)
(0.000116151 -6.65092e-05 0.207975)
(-0.000517312 -7.95091e-05 0.215338)
(-0.00117196 -8.71099e-05 0.224034)
(-0.00164249 -9.12182e-05 0.231987)
(-0.00179863 -9.06284e-05 0.241132)
(-0.00148798 -9.15405e-05 0.250035)
(-0.000912128 -9.66599e-05 0.262453)
(-0.000291815 -0.000112854 0.27802)
(-0.000119927 -0.00013217 0.300198)
(-0.000351434 -0.000155545 0.324311)
(-0.000954741 -0.000195567 0.352679)
(-0.00198765 -0.000293545 0.382393)
(-0.00346104 -0.000464309 0.437506)
(-0.00368467 -0.000991816 0.501907)
(-0.00395155 -0.00595705 0.733752)
(-0.00793 -0.121861 1.93416)
(0.000549242 -4.3188e-05 0.190237)
(0.000491744 -5.23436e-05 0.196953)
(0.000318913 -6.15996e-05 0.20483)
(0.000158787 -7.0134e-05 0.212669)
(-0.000126655 -7.40748e-05 0.221743)
(-0.00032738 -7.73068e-05 0.230492)
(-0.000601449 -7.92312e-05 0.240727)
(-0.000950021 -8.76992e-05 0.251549)
(-0.00155234 -0.000102168 0.266075)
(-0.00203137 -0.000122706 0.283063)
(-0.00213202 -0.000141552 0.304094)
(-0.00164274 -0.000163493 0.325108)
(-0.00145415 -0.000202307 0.350787)
(-0.00228566 -0.000297657 0.380473)
(-0.00298165 -0.000472968 0.434909)
(-0.00182223 -0.0010162 0.493228)
(-0.00121994 -0.00592279 0.714577)
(-0.00705978 -0.117999 1.89011)
(0.000652475 -5.27785e-05 0.18887)
(0.000649181 -5.68652e-05 0.195759)
(0.000518898 -5.92483e-05 0.203567)
(0.000280278 -6.1057e-05 0.211226)
(-0.000214528 -6.29994e-05 0.220123)
(-0.000714185 -6.75281e-05 0.229065)
(-0.00130927 -7.77569e-05 0.24021)
(-0.0017947 -9.63475e-05 0.252264)
(-0.00218583 -0.000116937 0.267595)
(-0.00199609 -0.000134641 0.283727)
(-0.00115792 -0.00014792 0.302763)
(-0.000298734 -0.0001677 0.322098)
(-0.000900894 -0.00020956 0.347714)
(-0.0029426 -0.00030193 0.377107)
(-0.00293116 -0.000464379 0.429874)
(0.00101031 -0.000994137 0.487785)
(0.00131477 -0.00587195 0.71017)
(-0.00658535 -0.118064 1.88733)
(0.000819979 -5.09678e-05 0.193373)
(0.000815183 -5.30761e-05 0.200596)
(0.000706299 -5.42023e-05 0.208655)
(0.00046163 -5.86435e-05 0.216643)
(3.7161e-05 -6.72903e-05 0.225736)
(-0.000411531 -8.22037e-05 0.234632)
(-0.000880443 -9.92296e-05 0.245112)
(-0.00126441 -0.000114506 0.255393)
(-0.00166523 -0.000123387 0.267663)
(-0.00182026 -0.000128374 0.280085)
(-0.00154602 -0.0001368 0.296744)
(-0.00104425 -0.000163292 0.316702)
(-0.00115869 -0.000212433 0.345384)
(-0.00210421 -0.000304966 0.376664)
(-0.00163682 -0.00045299 0.429364)
(0.00163734 -0.000951224 0.489529)
(0.0018454 -0.00585736 0.714508)
(0.00151644 -0.118212 1.88678)
(0.000539022 -4.53926e-05 0.197725)
(0.000385891 -4.82825e-05 0.204551)
(0.000152961 -5.08163e-05 0.212126)
(-5.1135e-05 -5.61476e-05 0.219685)
(-8.51383e-05 -6.49187e-05 0.228261)
(0.000203832 -7.8042e-05 0.236759)
(0.000707191 -9.24229e-05 0.246776)
(0.00116876 -0.000106479 0.256721)
(0.00120466 -0.000119813 0.268519)
(0.000691935 -0.000135054 0.280446)
(-0.000170534 -0.000155867 0.296425)
(-0.00102737 -0.000189303 0.315846)
(-0.00176684 -0.00023493 0.34418)
(-0.00261869 -0.000317741 0.375322)
(-0.00289341 -0.000462847 0.427843)
(-0.00172613 -0.000969147 0.48723)
(-0.00199057 -0.00585952 0.711589)
(0.00183732 -0.11801 1.88579)
(0.00052629 -4.53543e-05 0.202395)
(0.000487653 -4.93501e-05 0.208708)
(0.000387452 -5.21942e-05 0.215652)
(0.000319345 -5.55784e-05 0.222142)
(0.000354041 -5.84709e-05 0.229548)
(0.000570232 -6.27375e-05 0.236956)
(0.000843627 -6.88132e-05 0.246667)
(0.00106576 -7.9655e-05 0.257522)
(0.00114742 -9.58608e-05 0.271657)
(0.00102269 -0.000119983 0.28647)
(0.000709674 -0.000153069 0.304348)
(0.000404968 -0.000199743 0.323116)
(0.000285575 -0.000254837 0.348536)
(0.000265954 -0.000338406 0.376298)
(0.000608762 -0.000478382 0.426844)
(0.00206753 -0.000984105 0.485027)
(0.00281149 -0.00595076 0.705197)
(0.00662273 -0.117702 1.88118)
(0.000386314 -4.09008e-05 0.203751)
(0.000470374 -4.60355e-05 0.210135)
(0.000520442 -5.10115e-05 0.217457)
(0.000558702 -5.65363e-05 0.224207)
(0.000514101 -6.05336e-05 0.232187)
(0.0003918 -6.55592e-05 0.239669)
(0.000160452 -7.26508e-05 0.249271)
(-2.14201e-05 -8.5106e-05 0.259199)
(0.000113102 -0.000101174 0.272618)
(0.000734118 -0.000122429 0.286732)
(0.00171612 -0.000148345 0.304552)
(0.00251655 -0.000182138 0.322876)
(0.00272228 -0.000225506 0.348303)
(0.00206025 -0.000300259 0.377409)
(0.000958231 -0.000436246 0.431676)
(0.00105564 -0.000944296 0.494405)
(0.00167216 -0.00587973 0.726835)
(-0.0127799 -0.116837 1.90544)
)
;
    }
    rightWall
    {
        type            calculated;
        value           nonuniform List<vector> 
216
(
(0.000823998 2.69901e-05 0.379347)
(0.00106169 2.81498e-05 0.381348)
(0.000837733 2.92649e-05 0.386351)
(0.000560203 3.34091e-05 0.389928)
(-0.000210169 3.85294e-05 0.397303)
(-0.000948837 4.63439e-05 0.403262)
(-0.00179682 5.27789e-05 0.412647)
(-0.002118 6.03336e-05 0.419947)
(-0.00180042 6.72725e-05 0.429825)
(-0.000934207 7.68353e-05 0.438488)
(-0.00014403 8.78883e-05 0.45218)
(-0.000640817 0.000111956 0.467389)
(-0.00249354 0.000142006 0.492641)
(-0.00402999 0.000218149 0.517448)
(-0.00217327 0.000307758 0.578769)
(0.000752383 0.000850141 0.622222)
(0.00348184 0.00707374 0.919468)
(0.00636824 0.286127 2.35252)
(0.00098372 1.69912e-05 0.379239)
(0.00088096 1.91105e-05 0.382186)
(0.000423342 2.39325e-05 0.387952)
(1.89361e-05 3.20317e-05 0.392829)
(-0.000670946 3.97729e-05 0.401273)
(-0.00102725 4.71231e-05 0.407593)
(-0.0013136 5.18492e-05 0.416899)
(-0.00094762 5.81511e-05 0.422671)
(-0.000307667 6.56737e-05 0.431348)
(0.000153226 7.80459e-05 0.437892)
(-0.000211027 9.40869e-05 0.450723)
(-0.00168122 0.00012244 0.464318)
(-0.00335034 0.000155403 0.488009)
(-0.00463306 0.000238443 0.508915)
(-0.00353166 0.000341093 0.566673)
(2.31859e-05 0.000868302 0.608321)
(0.00326022 0.00701633 0.903377)
(0.00865915 0.28695 2.34234)
(0.000614355 2.04457e-05 0.380159)
(0.000201602 2.67076e-05 0.383639)
(-0.000318256 3.34598e-05 0.388958)
(-0.000767109 3.98009e-05 0.393437)
(-0.00125108 4.4786e-05 0.400101)
(-0.00140152 4.89581e-05 0.404357)
(-0.00136832 5.29663e-05 0.41149)
(-0.000628667 5.96002e-05 0.416052)
(0.00036194 6.74964e-05 0.42605)
(0.00119826 8.37768e-05 0.435096)
(0.00132905 0.000107696 0.451392)
(0.000563247 0.000144456 0.465136)
(-0.000495831 0.000180571 0.48606)
(-0.00216059 0.000256031 0.502345)
(-0.00251661 0.000336914 0.558951)
(0.00100493 0.000861133 0.604451)
(0.00670573 0.00711545 0.907305)
(0.0539544 0.2866 2.33502)
(0.000689521 2.41775e-05 0.385698)
(0.000532881 2.92594e-05 0.389301)
(0.000467288 3.36863e-05 0.393586)
(0.000403696 3.84752e-05 0.396696)
(0.000519041 4.38474e-05 0.400711)
(0.00068851 5.09225e-05 0.403163)
(0.000880124 5.75985e-05 0.408235)
(0.00102744 6.28714e-05 0.412725)
(0.000860923 6.48612e-05 0.423295)
(0.000731523 7.30826e-05 0.434497)
(0.000956015 8.91196e-05 0.453315)
(0.00222438 0.000124562 0.469615)
(0.00374378 0.00016963 0.491872)
(0.00256381 0.000265087 0.507543)
(-0.00246072 0.000356813 0.561051)
(-0.00589289 0.000869981 0.6041)
(0.00526689 0.00711691 0.927818)
(0.0525142 0.286047 2.35653)
(0.000277717 2.24556e-05 0.387169)
(0.000379292 2.30366e-05 0.390715)
(0.000498698 2.18983e-05 0.395069)
(0.000705469 2.31628e-05 0.398378)
(0.00109904 2.63184e-05 0.402475)
(0.00145448 3.47694e-05 0.406385)
(0.0016916 4.36254e-05 0.412654)
(0.00137613 5.22345e-05 0.419759)
(0.000594772 5.80988e-05 0.430717)
(-0.000294231 6.56325e-05 0.441768)
(-0.000415188 7.73566e-05 0.45773)
(0.00129344 0.000103167 0.472797)
(0.00425449 0.000138138 0.49688)
(0.00564652 0.00022851 0.516892)
(0.00303946 0.000344356 0.569282)
(-0.0050158 0.000917386 0.601058)
(-0.00900887 0.00727529 0.919602)
(-0.00535154 0.286298 2.39834)
(0.000131184 2.68113e-05 0.381299)
(0.00029975 3.0453e-05 0.384884)
(0.000262202 3.11549e-05 0.390053)
(0.000404444 3.0664e-05 0.394556)
(0.000603255 3.00564e-05 0.400326)
(0.000805169 3.43648e-05 0.405918)
(0.000852642 4.13655e-05 0.413589)
(0.000365631 5.12159e-05 0.421721)
(-0.000361445 6.03282e-05 0.432553)
(-0.00114575 7.33833e-05 0.442836)
(-0.00112703 8.92766e-05 0.456742)
(4.33379e-05 0.000111921 0.471137)
(0.0024687 0.000131184 0.49668)
(0.00429864 0.000200571 0.522123)
(0.00406911 0.000293124 0.581117)
(0.000512086 0.00085483 0.615992)
(-0.000116962 0.00718807 0.897998)
(-0.0329011 0.286928 2.32579)
(0.000287883 2.73237e-05 0.378262)
(0.000567092 3.03274e-05 0.381709)
(0.000532482 3.41752e-05 0.387144)
(0.000589294 3.86088e-05 0.391502)
(0.000595559 4.17752e-05 0.398472)
(0.000667658 4.62238e-05 0.404381)
(0.000695695 5.12387e-05 0.413605)
(0.000206848 5.74182e-05 0.421413)
(-0.000268429 6.48829e-05 0.432616)
(-0.00075771 7.59838e-05 0.441588)
(-0.00054487 9.15604e-05 0.455183)
(5.59167e-06 0.000117506 0.469024)
(0.000703307 0.000142111 0.4949)
(0.000667996 0.000221176 0.520823)
(-0.000348813 0.000324731 0.580584)
(0.000156983 0.000862964 0.616999)
(0.00697586 0.00698535 0.906366)
(-0.00234193 0.285895 2.33416)
(0.000435688 2.02211e-05 0.379141)
(0.000661284 1.77197e-05 0.381602)
(0.000708373 2.02399e-05 0.386635)
(0.000841269 2.82651e-05 0.389912)
(0.000851095 3.71816e-05 0.397478)
(0.000698818 4.50837e-05 0.402841)
(0.000484058 5.08563e-05 0.413015)
(-9.69902e-05 5.98582e-05 0.419615)
(-0.000538642 6.7342e-05 0.43066)
(-0.000943516 7.64008e-05 0.438623)
(-0.00111101 8.59718e-05 0.453309)
(-0.00097674 0.000112399 0.468168)
(-0.000299384 0.000151787 0.494688)
(0.00125077 0.000247893 0.518893)
(0.00378739 0.000364171 0.576764)
(0.00690511 0.000904026 0.613194)
(0.00538855 0.00693168 0.909055)
(-0.0216819 0.285497 2.32186)
(0.000488053 1.55486e-05 0.378756)
(0.000244828 1.52376e-05 0.380992)
(6.37088e-05 1.78792e-05 0.386559)
(-3.04212e-05 2.31413e-05 0.390338)
(5.79993e-05 3.02387e-05 0.398855)
(0.000138997 4.02083e-05 0.404102)
(0.000401246 5.16997e-05 0.413683)
(0.000755036 6.94688e-05 0.418536)
(0.000826194 8.67713e-05 0.42781)
(0.000447898 0.000103803 0.43422)
(-0.000628824 0.000117007 0.448088)
(-0.00134925 0.000133159 0.462389)
(-0.00120181 0.000148089 0.488995)
(0.000441077 0.000221977 0.515188)
(0.00333679 0.000303519 0.579008)
(0.00670223 0.000802053 0.622956)
(0.0029395 0.00673128 0.916362)
(0.0107556 0.285317 2.29824)
(0.0004257 2.06514e-05 0.383839)
(-0.000208883 2.54152e-05 0.387188)
(-0.000630059 2.93787e-05 0.392765)
(-0.00104786 3.27816e-05 0.396124)
(-0.000981509 3.51802e-05 0.402492)
(-0.000435634 4.16599e-05 0.40607)
(0.000693045 5.00013e-05 0.413458)
(0.00230339 6.33604e-05 0.418727)
(0.00338389 7.6752e-05 0.429209)
(0.0035602 9.02087e-05 0.438556)
(0.0022806 0.000101086 0.453543)
(0.000480723 0.000121128 0.467384)
(-0.00179307 0.00014535 0.491663)
(-0.00325221 0.000222692 0.515641)
(-0.00369128 0.000306448 0.57896)
(-0.000721003 0.000845578 0.623233)
(0.00116482 0.00698799 0.926078)
(0.0191957 0.281811 2.33978)
(-9.76071e-05 2.29817e-05 0.389831)
(-0.000138498 2.8809e-05 0.39317)
(0.000128299 3.33322e-05 0.397216)
(0.000250887 3.75102e-05 0.399267)
(0.000585835 4.02828e-05 0.403033)
(0.00105598 4.33066e-05 0.406142)
(0.00162343 4.27488e-05 0.413107)
(0.00232697 4.25818e-05 0.421183)
(0.00249274 4.3034e-05 0.43413)
(0.00229785 5.11169e-05 0.447001)
(0.00130391 6.92526e-05 0.463064)
(8.15919e-05 0.000105997 0.476944)
(-0.0015189 0.000151196 0.498301)
(-0.00297266 0.000247501 0.517052)
(-0.00397822 0.000368315 0.57328)
(-0.000679374 0.000931512 0.614082)
(0.00334995 0.00712615 0.933588)
(0.000169316 0.284852 2.37573)
(-0.0002876 1.93879e-05 0.384176)
(8.74264e-05 2.07363e-05 0.387106)
(0.000632402 2.05164e-05 0.391552)
(0.000808972 2.1744e-05 0.395563)
(0.00082337 2.22132e-05 0.401611)
(0.000592272 2.50798e-05 0.408192)
(0.000150514 2.86958e-05 0.417464)
(-0.000168569 3.60157e-05 0.427295)
(-0.000475777 4.70035e-05 0.439134)
(-0.000542125 6.12749e-05 0.44962)
(-0.000585757 7.64454e-05 0.461777)
(-0.00056106 9.92337e-05 0.47299)
(-0.000256655 0.000128113 0.493986)
(0.000595885 0.000230937 0.516542)
(0.00149267 0.000370337 0.57606)
(0.000378315 0.000946852 0.615823)
(-0.00641558 0.00719636 0.936579)
(-0.043271 0.287445 2.4052)
)
;
    }
    leftSides_periodic0
    {
        type            cyclic;
    }
    leftSides_periodic1
    {
        type            cyclic;
    }
    rightSides_periodic0
    {
        type            cyclic;
    }
    rightSides_periodic1
    {
        type            cyclic;
    }
    leftInOut_periodic0
    {
        type            calculated;
        value           nonuniform 0();
    }
    leftInOut_periodic1
    {
        type            calculated;
        value           uniform (0 0 0);
    }
    rightInOut_periodic0
    {
        type            calculated;
        value           nonuniform 0();
    }
    rightInOut_periodic1
    {
        type            calculated;
        value           uniform (0 0 0);
    }
    procBoundary5to2
    {
        type            processor;
        value           uniform (0 0 0);
    }
    procBoundary5to3throughleftSides_periodic0
    {
        type            processorCyclic;
        value           uniform (0 0 0);
    }
    procBoundary5to3throughrightSides_periodic0
    {
        type            processorCyclic;
        value           uniform (0 0 0);
    }
    procBoundary5to4
    {
        type            processor;
        value           uniform (0 0 0);
    }
}


// ************************************************************************* //
