-0.0075 	0 	0 	0
-0.0075 	-4.09715e-34 	-9.00698e-37 	-7.11469e-33
-0.00745622 	-0.000538488 	-1.18379e-06 	-0.00935083
-0.00745622 	-0.000538488 	-1.18379e-06 	-0.00935083
-0.00741165 	-0.000821635 	-1.5207e-06 	-0.019606
-0.00741165 	-0.000821635 	-1.5207e-06 	-0.019606
-0.00736628 	-0.000945712 	-1.0149e-06 	-0.0301545
-0.00736628 	-0.000945712 	-1.0149e-06 	-0.0301545
-0.0073201 	-0.00104988 	1.32773e-06 	-0.0405598
-0.0073201 	-0.00104988 	1.32773e-06 	-0.0405598
-0.00727309 	-0.00116029 	4.18449e-06 	-0.0507864
-0.00727309 	-0.00116029 	4.18449e-06 	-0.0507864
-0.00722524 	-0.00125868 	7.90816e-06 	-0.0608474
-0.00722524 	-0.00125868 	7.90816e-06 	-0.0608474
-0.00717653 	-0.00133839 	1.22542e-05 	-0.0706929
-0.00717653 	-0.00133839 	1.22542e-05 	-0.0706929
-0.00712695 	-0.00139732 	1.70905e-05 	-0.0802581
-0.00712695 	-0.00139732 	1.70905e-05 	-0.0802581
-0.00707647 	-0.00143525 	2.23893e-05 	-0.0894792
-0.00707647 	-0.00143525 	2.23893e-05 	-0.0894792
-0.0070251 	-0.00145309 	2.80768e-05 	-0.0983031
-0.0070251 	-0.00145309 	2.80768e-05 	-0.0983031
-0.0069728 	-0.00145293 	3.42866e-05 	-0.106694
-0.0069728 	-0.00145293 	3.42866e-05 	-0.106694
-0.00691956 	-0.00143766 	4.12166e-05 	-0.11464
-0.00691956 	-0.00143766 	4.12166e-05 	-0.11464
-0.00686537 	-0.00140988 	4.87487e-05 	-0.122153
-0.00686537 	-0.00140988 	4.87487e-05 	-0.122153
-0.00681021 	-0.00137146 	5.68108e-05 	-0.129271
-0.00681021 	-0.00137146 	5.68108e-05 	-0.129271
-0.00675406 	-0.00132365 	6.5408e-05 	-0.136029
-0.00675406 	-0.00132365 	6.5408e-05 	-0.136029
-0.0066969 	-0.00126754 	7.45451e-05 	-0.142453
-0.0066969 	-0.00126754 	7.45451e-05 	-0.142453
-0.00663871 	-0.00120463 	8.42398e-05 	-0.148565
-0.00663871 	-0.00120463 	8.42398e-05 	-0.148565
-0.00657949 	-0.0011364 	9.43809e-05 	-0.154381
-0.00657949 	-0.0011364 	9.43809e-05 	-0.154381
-0.0065192 	-0.00106404 	0.000104871 	-0.15992
-0.0065192 	-0.00106404 	0.000104871 	-0.15992
-0.00645783 	-0.000988395 	0.0001158 	-0.165197
-0.00645783 	-0.000988395 	0.0001158 	-0.165197
-0.00639535 	-0.000910077 	0.000127503 	-0.17023
-0.00639535 	-0.000910077 	0.000127503 	-0.17023
-0.00633176 	-0.000829556 	0.000140425 	-0.175035
-0.00633176 	-0.000829556 	0.000140425 	-0.175035
-0.00626703 	-0.000747598 	0.000154404 	-0.179626
-0.00626703 	-0.000747598 	0.000154404 	-0.179626
-0.00620114 	-0.000665664 	0.000167464 	-0.18401
-0.00620114 	-0.000665664 	0.000167464 	-0.18401
-0.00613406 	-0.000585593 	0.000177818 	-0.188188
-0.00613406 	-0.000585593 	0.000177818 	-0.188188
-0.00606579 	-0.000507668 	0.000187025 	-0.192166
-0.00606579 	-0.000507668 	0.000187025 	-0.192166
-0.00599629 	-0.000429247 	0.000196245 	-0.195964
-0.00599629 	-0.000429247 	0.000196245 	-0.195964
-0.00592554 	-0.00034852 	0.000205906 	-0.199603
-0.00592554 	-0.00034852 	0.000205906 	-0.199603
-0.00585352 	-0.000268612 	0.000218088 	-0.203073
-0.00585352 	-0.000268612 	0.000218088 	-0.203073
-0.00578022 	-0.000193754 	0.000234749 	-0.206352
-0.00578022 	-0.000193754 	0.000234749 	-0.206352
-0.00570559 	-0.000123528 	0.000259314 	-0.20947
-0.00570559 	-0.000123528 	0.000259314 	-0.20947
-0.00562963 	-5.3321e-05 	0.000281632 	-0.212509
-0.00562963 	-5.3321e-05 	0.000281632 	-0.212509
-0.00555231 	1.89751e-05 	0.00028618 	-0.215514
-0.00555231 	1.89751e-05 	0.00028618 	-0.215514
-0.0054736 	9.03389e-05 	0.000282052 	-0.218431
-0.0054736 	9.03389e-05 	0.000282052 	-0.218431
-0.00539348 	0.000158475 	0.000284719 	-0.221188
-0.00539348 	0.000158475 	0.000284719 	-0.221188
-0.00531193 	0.000222059 	0.000300184 	-0.223791
-0.00531193 	0.000222059 	0.000300184 	-0.223791
-0.00522891 	0.000280364 	0.000319495 	-0.226278
-0.00522891 	0.000280364 	0.000319495 	-0.226278
-0.0051444 	0.000335341 	0.000330383 	-0.228675
-0.0051444 	0.000335341 	0.000330383 	-0.228675
-0.00505838 	0.000388234 	0.000338662 	-0.230987
-0.00505838 	0.000388234 	0.000338662 	-0.230987
-0.00497081 	0.000438932 	0.000348869 	-0.233215
-0.00497081 	0.000438932 	0.000348869 	-0.233215
-0.00488168 	0.000487564 	0.000358872 	-0.235363
-0.00488168 	0.000487564 	0.000358872 	-0.235363
-0.00479094 	0.000534578 	0.000368663 	-0.237435
-0.00479094 	0.000534578 	0.000368663 	-0.237435
-0.00469858 	0.000581112 	0.000378194 	-0.239439
-0.00469858 	0.000581112 	0.000378194 	-0.239439
-0.00460456 	0.000629192 	0.000387741 	-0.241377
-0.00460456 	0.000629192 	0.000387741 	-0.241377
-0.00450886 	0.000681407 	0.000397818 	-0.243248
-0.00450886 	0.000681407 	0.000397818 	-0.243248
-0.00441144 	0.00073953 	0.000408086 	-0.245052
-0.00441144 	0.00073953 	0.000408086 	-0.245052
-0.00431227 	0.000802822 	0.000417783 	-0.246794
-0.00431227 	0.000802822 	0.000417783 	-0.246794
-0.00421133 	0.000868089 	0.000427276 	-0.248484
-0.00421133 	0.000868089 	0.000427276 	-0.248484
-0.00410857 	0.000932447 	0.000437602 	-0.250127
-0.00410857 	0.000932447 	0.000437602 	-0.250127
-0.00400397 	0.000994868 	0.000449098 	-0.251724
-0.00400397 	0.000994868 	0.000449098 	-0.251724
-0.0038975 	0.00105543 	0.000461185 	-0.253277
-0.0038975 	0.00105543 	0.000461185 	-0.253277
-0.00378912 	0.00111521 	0.000473152 	-0.254797
-0.00378912 	0.00111521 	0.000473152 	-0.254797
-0.00367879 	0.00117503 	0.000485604 	-0.256293
-0.00367879 	0.00117503 	0.000485604 	-0.256293
-0.00356649 	0.00123481 	0.000499994 	-0.257767
-0.00356649 	0.00123481 	0.000499994 	-0.257767
-0.00345217 	0.00129437 	0.000516855 	-0.259224
-0.00345217 	0.00129437 	0.000516855 	-0.259224
-0.0033358 	0.00135342 	0.000535771 	-0.260667
-0.0033358 	0.00135342 	0.000535771 	-0.260667
-0.00321735 	0.00141133 	0.000555742 	-0.2621
-0.00321735 	0.00141133 	0.000555742 	-0.2621
-0.00309677 	0.00146731 	0.000575293 	-0.263517
-0.00309677 	0.00146731 	0.000575293 	-0.263517
-0.00297403 	0.00152102 	0.000594701 	-0.264901
-0.00297403 	0.00152102 	0.000594701 	-0.264901
-0.00284909 	0.00157324 	0.00061787 	-0.266231
-0.00284909 	0.00157324 	0.00061787 	-0.266231
-0.0027219 	0.00162499 	0.000648062 	-0.267493
-0.0027219 	0.00162499 	0.000648062 	-0.267493
-0.00259244 	0.0016762 	0.000683163 	-0.268689
-0.00259244 	0.0016762 	0.000683163 	-0.268689
-0.00246065 	0.00172619 	0.000719717 	-0.269826
-0.00246065 	0.00172619 	0.000719717 	-0.269826
-0.00232651 	0.00177467 	0.000758006 	-0.270912
-0.00232651 	0.00177467 	0.000758006 	-0.270912
-0.00218995 	0.00182134 	0.000799538 	-0.271945
-0.00218995 	0.00182134 	0.000799538 	-0.271945
-0.00205095 	0.00186585 	0.000844578 	-0.272924
-0.00205095 	0.00186585 	0.000844578 	-0.272924
-0.00190946 	0.00190791 	0.000893124 	-0.273849
-0.00190946 	0.00190791 	0.000893124 	-0.273849
-0.00176543 	0.00194724 	0.000945285 	-0.274719
-0.00176543 	0.00194724 	0.000945285 	-0.274719
-0.00161881 	0.00198356 	0.00100107 	-0.275532
-0.00161881 	0.00198356 	0.00100107 	-0.275532
-0.00146957 	0.00201667 	0.00106039 	-0.276286
-0.00146957 	0.00201667 	0.00106039 	-0.276286
-0.00131765 	0.00204639 	0.00112315 	-0.276979
-0.00131765 	0.00204639 	0.00112315 	-0.276979
-0.001163 	0.00207272 	0.00118911 	-0.277607
-0.001163 	0.00207272 	0.00118911 	-0.277607
-0.00100559 	0.00209586 	0.00125789 	-0.278165
-0.00100559 	0.00209586 	0.00125789 	-0.278165
-0.000845345 	0.00211635 	0.00133141 	-0.278646
-0.000845345 	0.00211635 	0.00133141 	-0.278646
-0.000682232 	0.00213546 	0.00140721 	-0.279041
-0.000682232 	0.00213546 	0.00140721 	-0.279041
-0.000516194 	0.00215579 	0.0014818 	-0.279342
-0.000516194 	0.00215579 	0.0014818 	-0.279342
-0.000347178 	0.00218132 	0.00155889 	-0.279536
-0.000347178 	0.00218132 	0.00155889 	-0.279536
-0.000175132 	0.00221418 	0.00163156 	-0.27963
-0.000175132 	0.00221418 	0.00163156 	-0.27963
0 	0.00225191 	0.00170127 	-0.279644
0 	0.00225191 	0.00170127 	-0.279644
0 	0.00225191 	0.00170127 	-0.279644
0 	0.00225191 	0.00170127 	-0.279644
0.000175132 	0.00229192 	0.00177197 	-0.279591
0.000175132 	0.0115167 	-0.00230645 	-0.322341
0.000347178 	0.00233788 	0.00183596 	-0.279463
0.000347178 	0.0113539 	-0.00215191 	-0.323086
0.000516194 	0.00239807 	0.00190242 	-0.279247
0.000516194 	0.0113453 	-0.00215446 	-0.322437
0.000682232 	0.0024767 	0.00196316 	-0.278947
0.000682232 	0.0114107 	-0.00207063 	-0.321271
0.000845345 	0.00258086 	0.0019874 	-0.278548
0.000845345 	0.0115724 	-0.00208827 	-0.319974
0.00100559 	0.0027364 	0.00199746 	-0.277961
0.00100559 	0.0120223 	-0.00215524 	-0.317933
0.001163 	0.00297308 	0.00206775 	-0.277075
0.001163 	0.0129656 	-0.00179356 	-0.314243
0.00131765 	0.00328474 	0.00219309 	-0.275889
0.00131765 	0.0143539 	-0.00104714 	-0.308838
0.00146957 	0.00358438 	0.00226983 	-0.274687
0.00146957 	0.0155965 	-0.000658223 	-0.303688
0.00161881 	0.00377081 	0.00226107 	-0.273778
0.00161881 	0.0160239 	-0.000840943 	-0.30099
0.00176543 	0.00384247 	0.00222043 	-0.273127
0.00176543 	0.0156615 	-0.00114396 	-0.300586
0.00190946 	0.00386472 	0.00219998 	-0.272518
0.00190946 	0.0149984 	-0.001221 	-0.300954
0.00205095 	0.00388808 	0.00221654 	-0.271807
0.00205095 	0.0144121 	-0.00109075 	-0.300823
0.00218995 	0.00392555 	0.00224761 	-0.27097
0.00218995 	0.0139863 	-0.000949726 	-0.29977
0.00232651 	0.00396669 	0.00226455 	-0.270045
0.00232651 	0.0136256 	-0.000870659 	-0.298152
0.00246065 	0.00399724 	0.00226163 	-0.269069
0.00246065 	0.0132306 	-0.000825393 	-0.296443
0.00259244 	0.0040087 	0.00224892 	-0.268056
0.00259244 	0.012762 	-0.000793093 	-0.294835
0.0027219 	0.00399761 	0.00223269 	-0.267005
0.0027219 	0.0122144 	-0.000798138 	-0.293328
0.00284909 	0.00396224 	0.0022129 	-0.265915
0.00284909 	0.0115854 	-0.000830084 	-0.291909
0.00297403 	0.00390101 	0.00218966 	-0.264785
0.00297403 	0.0108717 	-0.000837849 	-0.290596
0.00309677 	0.00381229 	0.00216443 	-0.263614
0.00309677 	0.0100844 	-0.00081979 	-0.289372
0.00321735 	0.00369365 	0.00213203 	-0.262399
0.00321735 	0.00924856 	-0.000827671 	-0.288132
0.0033358 	0.0035421 	0.00210098 	-0.261144
0.0033358 	0.00837793 	-0.000880401 	-0.286782
0.00345217 	0.00334106 	0.00210566 	-0.259814
0.00345217 	0.00746511 	-0.000940153 	-0.285359
0.00356649 	0.00304956 	0.00210786 	-0.258266
0.00356649 	0.00649933 	-0.000998287 	-0.283972
0.00367879 	0.00263053 	0.00200873 	-0.256295
0.00367879 	0.0054757 	-0.00106576 	-0.282697
0.00378912 	0.00439427 	-0.00110607 	-0.28159
0.00378912 	0.00208733 	0.0018326 	-0.253825
0.0038975 	0.00157935 	0.00177795 	-0.251433
0.0038975 	0.00327165 	-0.00109039 	-0.280693
0.00400397 	0.00125272 	0.00185499 	-0.249648
0.00400397 	0.00215225 	-0.00105694 	-0.279958
0.00410857 	0.0010407 	0.00188409 	-0.248182
0.00410857 	0.00109049 	-0.00107752 	-0.279187
0.00421133 	0.000844902 	0.00183261 	-0.246674
0.00421133 	9.93926e-05 	-0.00114206 	-0.278213
0.00431227 	0.000635137 	0.0017516 	-0.245038
0.00431227 	-0.000862197 	-0.00117575 	-0.277007
0.00441144 	0.000419138 	0.00168429 	-0.243323
0.00441144 	-0.00184411 	-0.00117936 	-0.275612
0.00450886 	0.000206292 	0.00163403 	-0.241567
0.00450886 	-0.00286857 	-0.00119616 	-0.274096
0.00460456 	-2.12432e-06 	0.001583 	-0.23977
0.00460456 	-0.00392588 	-0.00123664 	-0.272517
0.00469858 	-0.00020589 	0.00152907 	-0.237925
0.00469858 	-0.00499474 	-0.00128409 	-0.270905
0.00479094 	-0.000404136 	0.0014754 	-0.236027
0.00479094 	-0.00606133 	-0.00132109 	-0.269264
0.00488168 	-0.000596697 	0.00142146 	-0.23407
0.00488168 	-0.00712204 	-0.00134898 	-0.267593
0.00497081 	-0.000784001 	0.0013667 	-0.232052
0.00497081 	-0.00817862 	-0.00137716 	-0.265891
0.00505838 	-0.000966456 	0.00131128 	-0.22997
0.00505838 	-0.0092333 	-0.00140936 	-0.264153
0.0051444 	-0.00114395 	0.00125582 	-0.227817
0.0051444 	-0.0102859 	-0.00144452 	-0.262365
0.00522891 	-0.00131582 	0.00120076 	-0.225583
0.00522891 	-0.0113336 	-0.00147996 	-0.260514
0.00531193 	-0.0123725 	-0.00151378 	-0.258595
0.00531193 	-0.00148122 	0.00114618 	-0.223261
0.00539348 	-0.00163953 	0.00109186 	-0.220846
0.00539348 	-0.0133991 	-0.00154537 	-0.25661
0.0054736 	-0.00179042 	0.00103757 	-0.21833
0.0054736 	-0.014411 	-0.00157492 	-0.254563
0.00555231 	-0.00193385 	0.000983195 	-0.215704
0.00555231 	-0.0154067 	-0.00160275 	-0.252454
0.00562963 	-0.00207001 	0.000928705 	-0.212957
0.00562963 	-0.0163848 	-0.00162884 	-0.250272
0.00570559 	-0.0021993 	0.000874161 	-0.210079
0.00570559 	-0.0173435 	-0.00165273 	-0.247998
0.00578022 	-0.00232232 	0.000820573 	-0.207054
0.00578022 	-0.0182803 	-0.00167366 	-0.245607
0.00585352 	-0.00244056 	0.000768714 	-0.203865
0.00585352 	-0.0191919 	-0.001691 	-0.243078
0.00592554 	-0.00255649 	0.00071743 	-0.200486
0.00592554 	-0.0200747 	-0.00170455 	-0.240387
0.00599629 	-0.00267209 	0.000665769 	-0.196887
0.00599629 	-0.0209246 	-0.00171421 	-0.237514
0.00606579 	-0.0217359 	-0.00171937 	-0.234434
0.00606579 	-0.00278752 	0.000614006 	-0.193041
0.00613406 	-0.00290094 	0.000563759 	-0.188932
0.00613406 	-0.0225024 	-0.00171906 	-0.23112
0.00620114 	-0.00300965 	0.000516672 	-0.184547
0.00620114 	-0.0232163 	-0.00171239 	-0.227537
0.00626703 	-0.00311181 	0.000471961 	-0.179869
0.00626703 	-0.0238693 	-0.0016988 	-0.223647
0.00633176 	-0.00320646 	0.000428581 	-0.174881
0.00633176 	-0.0244513 	-0.0016781 	-0.219404
0.00639535 	-0.00329248 	0.000386671 	-0.169559
0.00639535 	-0.0249504 	-0.00165008 	-0.214762
0.00645783 	-0.00336815 	0.00034664 	-0.163883
0.00645783 	-0.0253527 	-0.00161397 	-0.209669
0.0065192 	-0.00343111 	0.000308569 	-0.157829
0.0065192 	-0.025643 	-0.00157068 	-0.20407
0.00657949 	-0.0034781 	0.000272466 	-0.151379
0.00657949 	-0.0258022 	-0.00152136 	-0.197905
0.00663871 	-0.00350511 	0.000238918 	-0.144512
0.00663871 	-0.0258064 	-0.0014636 	-0.191109
0.0066969 	-0.0035085 	0.000208188 	-0.13721
0.0066969 	-0.025632 	-0.00139517 	-0.183604
0.00675406 	-0.00348558 	0.000179994 	-0.129449
0.00675406 	-0.0252629 	-0.00131558 	-0.175305
0.00681021 	-0.00343421 	0.000153784 	-0.121209
0.00681021 	-0.0246924 	-0.00122724 	-0.16614
0.00686537 	-0.00335194 	0.000129355 	-0.112502
0.00686537 	-0.0239195 	-0.00113367 	-0.156059
0.00691956 	-0.00323566 	0.000107303 	-0.103383
0.00691956 	-0.0229454 	-0.00103504 	-0.14506
0.0069728 	-0.00308364 	8.77479e-05 	-0.0939498
0.0069728 	-0.0217789 	-0.000932563 	-0.133223
0.0070251 	-0.00289737 	7.03008e-05 	-0.0843419
0.0070251 	-0.020442 	-0.00082982 	-0.12073
0.00707647 	-0.00268132 	5.4832e-05 	-0.0747213
0.00707647 	-0.0189661 	-0.000729633 	-0.107855
0.00712695 	-0.00244186 	4.13129e-05 	-0.0652461
0.00712695 	-0.0173827 	-0.00063402 	-0.0949051
0.00717653 	-0.00218593 	2.96926e-05 	-0.0560386
0.00717653 	-0.0157102 	-0.000544057 	-0.0821459
0.00722524 	-0.00191918 	2.00066e-05 	-0.047165
0.00722524 	-0.0139411 	-0.000456657 	-0.0697314
0.00727309 	-0.00164412 	1.21626e-05 	-0.0386317
0.00727309 	-0.0120299 	-0.000374084 	-0.0576745
0.0073201 	-0.00135824 	5.93804e-06 	-0.0303928
0.0073201 	-0.00987476 	-0.000309223 	-0.0458493
0.00736628 	-0.00105142 	2.68124e-06 	-0.0223453
0.00736628 	-0.00728164 	-0.00018487 	-0.0339787
0.00741165 	-0.00070896 	3.04278e-07 	-0.0144583
0.00741165 	-0.00431658 	-0.000131511 	-0.0219566
0.00745622 	-0.00034185 	-6.86316e-07 	-0.00694312
0.00745622 	-0.0016744 	-6.93483e-05 	-0.0103563
0.0075 	0 	0 	0
0.0075 	0 	0 	0
