0 	0 	0 	0
0 	0 	0 	0
0.00752508 	0.00225764 	0.0017114 	-0.279636
0.00752508 	0.00225764 	0.0017114 	-0.279636
0.00757525 	0.0022691 	0.00173165 	-0.279621
0.00762542 	0.00228056 	0.0017519 	-0.279606
0.00762542 	0.00228056 	0.0017519 	-0.279606
0.00767559 	0.00229204 	0.00177214 	-0.279591
0.00772575 	0.00230544 	0.0017908 	-0.279553
0.00777592 	0.00231885 	0.00180946 	-0.279516
0.00782609 	0.00233225 	0.00182812 	-0.279479
0.00782609 	0.00233225 	0.00182812 	-0.279479
0.00787625 	0.00234824 	0.0018474 	-0.279426
0.00792642 	0.0023661 	0.00186712 	-0.279362
0.00797659 	0.00238397 	0.00188685 	-0.279298
0.00802676 	0.00240307 	0.00190628 	-0.279228
0.00802676 	0.00240307 	0.00190628 	-0.279228
0.00807692 	0.00242683 	0.00192463 	-0.279137
0.00812709 	0.00245058 	0.00194299 	-0.279046
0.00812709 	0.00245058 	0.00194299 	-0.279046
0.00817726 	0.00247434 	0.00196134 	-0.278956
0.00822742 	0.00250555 	0.00196988 	-0.278836
0.00822742 	0.00250555 	0.00196988 	-0.278836
0.00827759 	0.00253759 	0.00197733 	-0.278713
0.00832776 	0.00256963 	0.00198478 	-0.278591
0.00832776 	0.00256963 	0.00198478 	-0.278591
0.00837793 	0.00261248 	0.00198944 	-0.278429
0.00842809 	0.00266118 	0.00199259 	-0.278245
0.00842809 	0.00266118 	0.00199259 	-0.278245
0.00847826 	0.00270987 	0.00199574 	-0.278061
0.00847826 	0.00270987 	0.00199574 	-0.278061
0.00852843 	0.00277074 	0.00200766 	-0.277833
0.00852843 	0.00277074 	0.00200766 	-0.277833
0.0085786 	0.00284617 	0.00203006 	-0.27755
0.0085786 	0.00284617 	0.00203006 	-0.27755
0.00862876 	0.0029216 	0.00205246 	-0.277268
0.00867893 	0.00300518 	0.00208066 	-0.276953
0.00867893 	0.00300518 	0.00208066 	-0.276953
0.0087291 	0.00310628 	0.00212132 	-0.276568
0.00877926 	0.00320739 	0.00216198 	-0.276183
0.00877926 	0.00320739 	0.00216198 	-0.276183
0.00882943 	0.00330799 	0.00219905 	-0.275796
0.0088796 	0.00340693 	0.00222439 	-0.275399
0.0088796 	0.00340693 	0.00222439 	-0.275399
0.00897993 	0.00359733 	0.00226923 	-0.274624
0.00897993 	0.00359733 	0.00226923 	-0.274624
0.0090301 	0.00366 	0.00226628 	-0.274318
0.00908027 	0.00372266 	0.00226334 	-0.274013
0.00908027 	0.00372266 	0.00226334 	-0.274013
0.00913043 	0.00377649 	0.00225785 	-0.273726
0.0091806 	0.00380101 	0.00224394 	-0.273504
0.0091806 	0.00380101 	0.00224394 	-0.273504
0.00923077 	0.00382553 	0.00223003 	-0.273281
0.00928094 	0.00384486 	0.00221822 	-0.273062
0.00928094 	0.00384486 	0.00221822 	-0.273062
0.0093311 	0.00385261 	0.0022111 	-0.272849
0.00938127 	0.00386036 	0.00220398 	-0.272637
0.00938127 	0.00386036 	0.00220398 	-0.272637
0.00943144 	0.00386835 	0.00220255 	-0.272408
0.00943144 	0.00386835 	0.00220255 	-0.272408
0.00948161 	0.00387663 	0.00220842 	-0.272155
0.00948161 	0.00387663 	0.00220842 	-0.272155
0.00953177 	0.00388491 	0.00221429 	-0.271903
0.00953177 	0.00388491 	0.00221429 	-0.271903
0.00958194 	0.00389643 	0.00222347 	-0.27162
0.00958194 	0.00389643 	0.00222347 	-0.27162
0.00963211 	0.00390996 	0.00223468 	-0.271318
0.00963211 	0.00390996 	0.00223468 	-0.271318
0.00968227 	0.00392348 	0.00224589 	-0.271016
0.00968227 	0.00392348 	0.00224589 	-0.271016
0.00973244 	0.00393835 	0.00225288 	-0.270682
0.00978261 	0.00395346 	0.0022591 	-0.270343
0.00983278 	0.00396812 	0.00226441 	-0.27
0.00988294 	0.00397954 	0.00226332 	-0.269635
0.00988294 	0.00397954 	0.00226332 	-0.269635
0.00993311 	0.00399097 	0.00226223 	-0.26927
0.00998328 	0.00399921 	0.00225945 	-0.268895
0.00998328 	0.00399921 	0.00225945 	-0.268895
0.0100334 	0.00400357 	0.00225461 	-0.268509
0.0100334 	0.00400357 	0.00225461 	-0.268509
0.0100836 	0.00400793 	0.00224977 	-0.268124
0.0101338 	0.00400516 	0.00224374 	-0.26772
0.0101338 	0.00400516 	0.00224374 	-0.26772
0.0102341 	0.00399421 	0.00223079 	-0.2669
0.0102341 	0.00399421 	0.00223079 	-0.2669
0.0102843 	0.00398026 	0.00222298 	-0.26647
0.0103344 	0.00396631 	0.00221517 	-0.266041
0.0103344 	0.00396631 	0.00221517 	-0.266041
0.0103846 	0.00394483 	0.00220629 	-0.265594
0.0103846 	0.00394483 	0.00220629 	-0.265594
0.0104348 	0.00392024 	0.00219696 	-0.26514
0.0104849 	0.00389312 	0.00218741 	-0.264681
0.0104849 	0.00389312 	0.00218741 	-0.264681
0.0105351 	0.00385686 	0.0021771 	-0.264202
0.0105853 	0.00382059 	0.00216679 	-0.263724
0.0105853 	0.00382059 	0.00216679 	-0.263724
0.0106355 	0.00377423 	0.00215404 	-0.263224
0.0106856 	0.00372487 	0.00214056 	-0.262719
0.0106856 	0.00372487 	0.00214056 	-0.262719
0.0107358 	0.00367006 	0.0021272 	-0.262204
0.0107358 	0.00367006 	0.0021272 	-0.262204
0.010786 	0.00360587 	0.00211404 	-0.261672
0.010786 	0.00360587 	0.00211404 	-0.261672
0.0108361 	0.00354155 	0.00210099 	-0.26114
0.0108361 	0.00354155 	0.00210099 	-0.26114
0.0108863 	0.00345488 	0.00210301 	-0.260567
0.0109365 	0.00336821 	0.00210503 	-0.259993
0.0109365 	0.00336821 	0.00210503 	-0.259993
0.0109866 	0.00325321 	0.00210632 	-0.259347
0.0109866 	0.00325321 	0.00210632 	-0.259347
0.0110368 	0.00312529 	0.00210729 	-0.258668
0.011087 	0.00297319 	0.00208979 	-0.257907
0.011087 	0.00297319 	0.00208979 	-0.257907
0.0111371 	0.00278601 	0.00204551 	-0.257026
0.0111873 	0.00258869 	0.00199517 	-0.256105
0.0111873 	0.00258869 	0.00199517 	-0.256105
0.0112375 	0.00234169 	0.00191508 	-0.254981
0.0112876 	0.00209469 	0.00183498 	-0.253858
0.0112876 	0.00209469 	0.00183498 	-0.253858
0.0113378 	0.0018592 	0.00180806 	-0.252751
0.011388 	0.00162407 	0.00178276 	-0.251644
0.011388 	0.00162407 	0.00178276 	-0.251644
0.0114883 	0.00130082 	0.00184364 	-0.249911
0.0114883 	0.00130082 	0.00184364 	-0.249911
0.0115385 	0.00118281 	0.00186458 	-0.249165
0.0115886 	0.00108112 	0.00187854 	-0.248462
0.0115886 	0.00108112 	0.00187854 	-0.248462
0.0116388 	0.000983106 	0.00186895 	-0.247739
0.011689 	0.000887515 	0.00184382 	-0.247002
0.011689 	0.000887515 	0.00184382 	-0.247002
0.0117391 	0.000787126 	0.0018103 	-0.246223
0.0117893 	0.000682878 	0.00177004 	-0.24541
0.0117893 	0.000682878 	0.00177004 	-0.24541
0.0118395 	0.000575907 	0.00173315 	-0.244568
0.0118896 	0.000466636 	0.00169909 	-0.2437
0.0118896 	0.000466636 	0.00169909 	-0.2437
0.0119398 	0.000357175 	0.00166966 	-0.242812
0.0119398 	0.000357175 	0.00166966 	-0.242812
0.01199 	0.000247567 	0.00164378 	-0.241907
0.01199 	0.000247567 	0.00164378 	-0.241907
0.0120401 	0.000138182 	0.00161735 	-0.24098
0.0120401 	0.000138182 	0.00161735 	-0.24098
0.0120903 	2.8932e-05 	0.0015906 	-0.240038
0.0120903 	2.8932e-05 	0.0015906 	-0.240038
0.0121405 	-7.99444e-05 	0.0015624 	-0.239066
0.0121405 	-7.99444e-05 	0.0015624 	-0.239066
0.0121906 	-0.000188672 	0.00153363 	-0.238081
0.0121906 	-0.000188672 	0.00153363 	-0.238081
0.0122408 	-0.000296518 	0.00150454 	-0.237057
0.0122408 	-0.000296518 	0.00150454 	-0.237057
0.012291 	-0.000404198 	0.00147538 	-0.236026
0.012291 	-0.000404198 	0.00147538 	-0.236026
0.0123411 	-0.000510665 	0.00144556 	-0.234944
0.0123411 	-0.000510665 	0.00144556 	-0.234944
0.0123913 	-0.00061693 	0.00141555 	-0.233852
0.0123913 	-0.00061693 	0.00141555 	-0.233852
0.0124415 	-0.000722349 	0.00138473 	-0.232717
0.0124916 	-0.000827398 	0.00135352 	-0.231557
0.0124916 	-0.000827398 	0.00135352 	-0.231557
0.012592 	-0.00103578 	0.00128962 	-0.229129
0.012592 	-0.00103578 	0.00128962 	-0.229129
0.0126421 	-0.00113929 	0.00125728 	-0.227873
0.0126923 	-0.00124138 	0.00122461 	-0.22655
0.0126923 	-0.00124138 	0.00122461 	-0.22655
0.0127425 	-0.00134285 	0.00119184 	-0.225203
0.0127425 	-0.00134285 	0.00119184 	-0.225203
0.0127926 	-0.0014428 	0.00115886 	-0.223801
0.0128428 	-0.00154116 	0.00112561 	-0.222347
0.0128428 	-0.00154116 	0.00112561 	-0.222347
0.012893 	-0.00163854 	0.0010922 	-0.220861
0.0129431 	-0.00173305 	0.00105821 	-0.219287
0.0129431 	-0.00173305 	0.00105821 	-0.219287
0.0129933 	-0.00182633 	0.00102395 	-0.217673
0.0130435 	-0.00191775 	0.000989298 	-0.215999
0.0130435 	-0.00191775 	0.000989298 	-0.215999
0.0130936 	-0.00200663 	0.000954067 	-0.214236
0.0131438 	-0.00209414 	0.000918524 	-0.21242
0.0131438 	-0.00209414 	0.000918524 	-0.21242
0.013194 	-0.00217953 	0.000882501 	-0.210519
0.0132441 	-0.00226285 	0.000846475 	-0.208516
0.0132441 	-0.00226285 	0.000846475 	-0.208516
0.0132943 	-0.00234506 	0.0008106 	-0.206441
0.0133445 	-0.00242597 	0.000775111 	-0.204258
0.0133445 	-0.00242597 	0.000775111 	-0.204258
0.0133946 	-0.00250676 	0.000739428 	-0.201935
0.0134448 	-0.00258799 	0.000703354 	-0.199505
0.0134448 	-0.00258799 	0.000703354 	-0.199505
0.013495 	-0.00266996 	0.000666721 	-0.196954
0.0135452 	-0.00275325 	0.000629376 	-0.194183
0.0135452 	-0.00275325 	0.000629376 	-0.194183
0.0136455 	-0.00291945 	0.000555742 	-0.188185
0.0136455 	-0.00291945 	0.000555742 	-0.188185
0.0136957 	-0.00300076 	0.000520524 	-0.184905
0.0137458 	-0.00307893 	0.000486354 	-0.181375
0.0137458 	-0.00307893 	0.000486354 	-0.181375
0.013796 	-0.00315415 	0.000452556 	-0.177638
0.0138462 	-0.00322592 	0.000419097 	-0.173677
0.0138462 	-0.00322592 	0.000419097 	-0.173677
0.0138963 	-0.00329365 	0.000386052 	-0.169472
0.0138963 	-0.00329365 	0.000386052 	-0.169472
0.0139465 	-0.00335442 	0.000353905 	-0.164913
0.0139967 	-0.00340799 	0.000322552 	-0.160053
0.0139967 	-0.00340799 	0.000322552 	-0.160053
0.0140468 	-0.00345265 	0.000292025 	-0.154874
0.0140468 	-0.00345265 	0.000292025 	-0.154874
0.014097 	-0.00348609 	0.000262551 	-0.14935
0.0141472 	-0.0035056 	0.000234458 	-0.143453
0.0141973 	-0.00350833 	0.000207977 	-0.137152
0.0141973 	-0.00350833 	0.000207977 	-0.137152
0.0142475 	-0.00348821 	0.000183232 	-0.13034
0.0142977 	-0.00344569 	0.000159642 	-0.123051
0.0143478 	-0.0033781 	0.000137125 	-0.115271
0.0143478 	-0.0033781 	0.000137125 	-0.115271
0.014398 	-0.00328194 	0.00011608 	-0.107012
0.014398 	-0.00328194 	0.00011608 	-0.107012
0.0144482 	-0.003154 	9.67981e-05 	-0.0983154
0.0144983 	-0.00299271 	7.92313e-05 	-0.0892598
0.0144983 	-0.00299271 	7.92313e-05 	-0.0892598
0.0145485 	-0.00279898 	6.32563e-05 	-0.0799607
0.0145987 	-0.00257605 	4.88891e-05 	-0.0705561
0.0145987 	-0.00257605 	4.88891e-05 	-0.0705561
0.0146488 	-0.00232891 	3.61846e-05 	-0.0611827
0.014699 	-0.0020629 	2.52252e-05 	-0.0519459
0.014699 	-0.0020629 	2.52252e-05 	-0.0519459
0.0147492 	-0.00178167 	1.6085e-05 	-0.0428988
0.0147993 	-0.00148455 	8.68825e-06 	-0.034033
0.0147993 	-0.00148455 	8.68825e-06 	-0.034033
0.0148495 	-0.00116292 	3.86486e-06 	-0.02527
0.0148495 	-0.00116292 	3.86486e-06 	-0.02527
0.0148997 	-0.000799418 	9.32141e-07 	-0.0165416
0.0148997 	-0.000799418 	9.32141e-07 	-0.0165416
0.0149498 	-0.000394438 	-5.44414e-07 	-0.00801967
0.0149498 	-0.000394438 	-5.44414e-07 	-0.00801967
0.015 	0 	0 	0
