/*--------------------------------*- C++ -*----------------------------------*\
| =========                 |                                                 |
| \\      /  F ield         | OpenFOAM: The Open Source CFD Toolbox           |
|  \\    /   O peration     | Version:  v1912                                 |
|   \\  /    A nd           | Website:  www.openfoam.com                      |
|    \\/     M anipulation  |                                                 |
\*---------------------------------------------------------------------------*/
FoamFile
{
    version     2.0;
    format      ascii;
    class       volScalarField;
    location    "196.8";
    object      pPrime2Mean;
}
// * * * * * * * * * * * * * * * * * * * * * * * * * * * * * * * * * * * * * //

dimensions      [2 -2 -4 0 0 0 0];


internalField   nonuniform List<scalar> 
40448
(
0.00015831
1173.29
1192.31
1246.63
1337.73
1373.24
1391
1399.68
1402.29
1400.05
1391.72
1374.09
1338.3
1246.63
1192.44
1174.36
0.00328636
1173.14
1192.26
1246.66
1337.73
1373.24
1391
1399.68
1402.29
1400.05
1391.72
1374.09
1338.3
1246.66
1192.39
1174.21
0.0158596
1172.97
1192.28
1246.73
1337.74
1373.25
1391.01
1399.68
1402.29
1400.05
1391.72
1374.1
1338.31
1246.73
1192.41
1174.04
0.0391426
1172.66
1192.37
1246.86
1337.75
1373.26
1391.01
1399.68
1402.29
1400.05
1391.73
1374.11
1338.32
1246.86
1192.5
1173.73
0.0782013
1172.17
1192.51
1247.06
1337.77
1373.27
1391.02
1399.69
1402.29
1400.06
1391.74
1374.12
1338.34
1247.06
1192.64
1173.24
0.128315
1171.5
1192.73
1247.32
1337.79
1373.29
1391.03
1399.69
1402.3
1400.06
1391.75
1374.15
1338.37
1247.32
1192.86
1172.58
0.200584
1170.64
1193.03
1247.65
1337.82
1373.32
1391.04
1399.69
1402.3
1400.06
1391.76
1374.17
1338.4
1247.65
1193.16
1171.72
0.305967
1169.57
1193.43
1248.06
1337.86
1373.35
1391.05
1399.7
1402.3
1400.07
1391.78
1374.2
1338.44
1248.06
1193.56
1170.65
0.468651
1168.26
1193.95
1248.57
1337.91
1373.39
1391.07
1399.71
1402.31
1400.08
1391.79
1374.24
1338.49
1248.57
1194.08
1169.34
0.73395
1166.66
1194.62
1249.18
1337.96
1373.43
1391.09
1399.71
1402.31
1400.08
1391.82
1374.29
1338.54
1249.19
1194.75
1167.74
1.17765
1164.72
1195.44
1249.92
1338.02
1373.49
1391.12
1399.72
1402.32
1400.09
1391.84
1374.35
1338.61
1249.93
1195.57
1165.81
1.92052
1162.44
1196.44
1250.79
1338.09
1373.56
1391.15
1399.73
1402.33
1400.1
1391.88
1374.42
1338.68
1250.81
1196.57
1163.53
3.13674
1159.83
1197.61
1251.79
1338.17
1373.63
1391.18
1399.74
1402.34
1400.11
1391.91
1374.5
1338.76
1251.81
1197.74
1160.93
5.04778
1156.88
1198.98
1252.91
1338.26
1373.72
1391.22
1399.76
1402.35
1400.13
1391.95
1374.59
1338.85
1252.94
1199.11
1157.99
7.88976
1153.57
1200.54
1254.16
1338.35
1373.81
1391.27
1399.77
1402.36
1400.14
1392
1374.69
1338.95
1254.19
1200.67
1154.68
11.8866
1149.88
1202.3
1255.53
1338.46
1373.92
1391.31
1399.79
1402.37
1400.16
1392.05
1374.79
1339.06
1255.57
1202.44
1151
17.2831
1145.78
1204.28
1257.03
1338.58
1374.03
1391.37
1399.8
1402.38
1400.18
1392.1
1374.91
1339.19
1257.07
1204.43
1146.9
24.417
1141.23
1206.48
1258.66
1338.71
1374.15
1391.42
1399.82
1402.4
1400.2
1392.16
1375.04
1339.32
1258.71
1206.63
1142.36
33.7674
1136.19
1208.89
1260.43
1338.85
1374.29
1391.48
1399.85
1402.41
1400.22
1392.22
1375.18
1339.47
1260.48
1209.05
1137.33
45.9917
1130.61
1211.53
1262.35
1339
1374.44
1391.55
1399.87
1402.43
1400.24
1392.29
1375.33
1339.63
1262.41
1211.69
1131.76
61.9272
1124.44
1214.39
1264.43
1339.17
1374.6
1391.62
1399.89
1402.45
1400.27
1392.37
1375.5
1339.8
1264.5
1214.55
1125.6
82.5219
1117.62
1217.47
1266.68
1339.36
1374.77
1391.7
1399.92
1402.47
1400.3
1392.45
1375.68
1340
1266.76
1217.64
1118.79
108.71
1110.08
1220.78
1269.09
1339.57
1374.95
1391.78
1399.95
1402.49
1400.33
1392.54
1375.86
1340.21
1269.18
1220.96
1111.26
141.316
1101.79
1224.31
1271.65
1339.79
1375.14
1391.87
1399.98
1402.51
1400.36
1392.63
1376.07
1340.44
1271.76
1224.49
1102.98
181.023
1092.74
1228.05
1274.36
1340.04
1375.35
1391.97
1400.02
1402.53
1400.4
1392.73
1376.28
1340.7
1274.48
1228.24
1093.93
228.382
1082.99
1232
1277.21
1340.3
1375.56
1392.07
1400.05
1402.56
1400.43
1392.83
1376.5
1340.97
1277.33
1232.2
1084.19
283.822
1072.64
1236.15
1280.17
1340.59
1375.78
1392.17
1400.09
1402.58
1400.47
1392.94
1376.73
1341.27
1280.3
1236.35
1073.84
347.643
1061.73
1240.48
1283.23
1340.9
1376
1392.27
1400.13
1402.61
1400.51
1393.05
1376.96
1341.59
1283.38
1240.7
1062.93
420.014
1050.29
1245
1286.37
1341.24
1376.23
1392.38
1400.17
1402.64
1400.55
1393.17
1377.2
1341.94
1286.54
1245.22
1051.48
500.899
1038.35
1249.66
1289.6
1341.6
1376.46
1392.5
1400.21
1402.67
1400.59
1393.29
1377.44
1342.31
1289.78
1249.89
1039.53
590.016
1025.94
1254.45
1292.89
1342
1376.69
1392.61
1400.25
1402.69
1400.64
1393.41
1377.68
1342.72
1293.08
1254.68
1027.12
686.876
1013.13
1259.34
1296.24
1342.42
1376.93
1392.73
1400.29
1402.72
1400.68
1393.53
1377.92
1343.15
1296.45
1259.57
1014.3
790.984
1000
1264.29
1299.66
1342.88
1377.17
1392.85
1400.34
1402.76
1400.73
1393.66
1378.17
1343.62
1299.89
1264.51
1001.15
902.305
986.66
1269.26
1303.14
1343.37
1377.41
1392.98
1400.39
1402.79
1400.78
1393.79
1378.43
1344.13
1303.39
1269.49
987.795
1021.74
973.249
1274.25
1306.68
1343.9
1377.66
1393.11
1400.44
1402.82
1400.83
1393.93
1378.69
1344.68
1306.95
1274.47
974.367
1150.92
959.943
1279.19
1310.29
1344.48
1377.91
1393.24
1400.49
1402.86
1400.89
1394.07
1378.95
1345.27
1310.57
1279.42
961.045
1290.7
946.957
1284.04
1313.96
1345.1
1378.17
1393.38
1400.54
1402.9
1400.94
1394.22
1379.22
1345.91
1314.27
1284.27
948.045
1439.25
934.561
1288.72
1317.72
1345.78
1378.44
1393.53
1400.6
1402.94
1401
1394.38
1379.5
1346.6
1318.04
1288.95
935.639
1591.71
923.08
1293.13
1321.56
1346.51
1378.72
1393.69
1400.67
1402.98
1401.07
1394.54
1379.8
1347.35
1321.91
1293.37
924.153
1742.29
912.849
1297.2
1325.52
1347.31
1379.01
1393.86
1400.73
1403.03
1401.14
1394.72
1380.1
1348.17
1325.89
1297.44
913.919
1886.56
904.166
1300.83
1329.6
1348.18
1379.32
1394.03
1400.81
1403.08
1401.21
1394.91
1380.43
1349.06
1330
1301.08
905.236
2021.91
897.287
1304
1333.81
1349.13
1379.64
1394.22
1400.89
1403.13
1401.3
1395.11
1380.77
1350.03
1334.23
1304.25
898.356
2146.72
892.434
1306.65
1338.1
1350.16
1379.97
1394.42
1400.97
1403.19
1401.38
1395.32
1381.12
1351.09
1338.55
1306.91
893.504
2259.74
889.799
1308.75
1342.46
1351.26
1380.31
1394.63
1401.06
1403.25
1401.47
1395.54
1381.48
1352.22
1342.94
1309.03
890.872
2360.04
889.549
1310.3
1346.87
1352.45
1380.67
1394.84
1401.15
1403.31
1401.57
1395.76
1381.86
1353.43
1347.38
1310.59
890.624
2447.02
891.82
1311.27
1351.31
1353.71
1381.03
1395.06
1401.25
1403.37
1401.67
1396
1382.25
1354.72
1351.86
1311.58
892.896
2520.38
896.718
1311.68
1355.78
1355.06
1381.41
1395.29
1401.35
1403.44
1401.77
1396.24
1382.65
1356.11
1356.36
1312.01
897.795
2580.13
904.322
1311.55
1360.24
1356.51
1381.79
1395.53
1401.46
1403.52
1401.88
1396.49
1383.06
1357.59
1360.86
1311.9
905.398
2626.51
914.671
1310.92
1364.67
1358.04
1382.19
1395.77
1401.57
1403.59
1402
1396.75
1383.48
1359.16
1365.33
1311.29
915.743
2660.02
927.769
1309.83
1369.04
1359.66
1382.59
1396.01
1401.69
1403.67
1402.12
1397.01
1383.92
1360.82
1369.73
1310.22
928.835
2681.33
943.58
1308.33
1373.31
1361.37
1383.01
1396.26
1401.81
1403.75
1402.24
1397.27
1384.36
1362.57
1374.04
1308.75
944.638
2691.23
962.034
1306.5
1377.45
1363.17
1383.43
1396.5
1401.93
1403.83
1402.37
1397.54
1384.82
1364.41
1378.21
1306.94
963.082
2690.61
983.023
1304.4
1381.42
1365.05
1383.86
1396.75
1402.06
1403.91
1402.5
1397.8
1385.28
1366.33
1382.22
1304.88
984.058
2680.39
1006.4
1302.12
1385.19
1367.01
1384.3
1397
1402.19
1404
1402.63
1398.07
1385.76
1368.34
1386.03
1302.63
1007.42
2661.53
1032
1299.74
1388.72
1369.03
1384.76
1397.24
1402.32
1404.09
1402.77
1398.33
1386.25
1370.42
1389.61
1300.28
1033
2635
1059.59
1297.35
1391.99
1371.13
1385.22
1397.48
1402.46
1404.18
1402.91
1398.59
1386.75
1372.56
1392.91
1297.93
1060.57
2601.84
1088.95
1295.04
1394.97
1373.27
1385.69
1397.71
1402.59
1404.27
1403.05
1398.84
1387.26
1374.76
1395.93
1295.65
1089.9
2563.05
1119.79
1292.89
1397.63
1375.46
1386.17
1397.93
1402.73
1404.35
1403.19
1399.08
1387.79
1377.01
1398.64
1293.55
1120.72
2519.5
1151.81
1291
1399.97
1377.69
1386.67
1398.15
1402.86
1404.45
1403.33
1399.32
1388.33
1379.29
1401.01
1291.7
1152.71
2471.89
1184.69
1289.45
1401.95
1379.93
1387.17
1398.35
1403
1404.54
1403.47
1399.55
1388.88
1381.6
1403.04
1290.19
1185.55
2420.92
1218.08
1288.29
1403.58
1382.19
1387.69
1398.55
1403.13
1404.63
1403.6
1399.76
1389.45
1383.92
1404.71
1289.08
1218.9
2367.43
1251.62
1287.6
1404.86
1384.43
1388.23
1398.73
1403.26
1404.71
1403.74
1399.97
1390.03
1386.23
1406.03
1288.44
1252.4
2312.36
1284.95
1287.42
1405.8
1386.65
1388.77
1398.9
1403.39
1404.8
1403.87
1400.16
1390.63
1388.52
1407.01
1288.3
1285.7
2256.69
1317.72
1287.79
1406.4
1388.84
1389.33
1399.06
1403.51
1404.89
1404
1400.34
1391.24
1390.78
1407.65
1288.72
1318.42
2201.25
1349.57
1288.75
1406.67
1390.97
1389.91
1399.2
1403.63
1404.97
1404.12
1400.51
1391.87
1392.98
1407.97
1289.73
1350.23
2146.71
1380.16
1290.31
1406.65
1393.03
1390.5
1399.34
1403.75
1405.06
1404.24
1400.67
1392.52
1395.12
1407.99
1291.34
1380.78
2093.68
1409.2
1292.48
1406.36
1395
1391.09
1399.46
1403.86
1405.14
1404.35
1400.81
1393.18
1397.17
1407.74
1293.57
1409.78
2042.68
1436.4
1295.26
1405.82
1396.88
1391.7
1399.57
1403.96
1405.21
1404.45
1400.94
1393.85
1399.13
1407.25
1296.4
1436.95
1994.16
1461.55
1298.62
1405.06
1398.66
1392.31
1399.66
1404.05
1405.28
1404.55
1401.06
1394.53
1400.99
1406.55
1299.81
1462.06
1948.45
1484.45
1302.54
1404.12
1400.31
1392.93
1399.75
1404.14
1405.35
1404.64
1401.16
1395.21
1402.73
1405.66
1303.77
1484.92
1905.81
1504.97
1306.95
1403.04
1401.84
1393.54
1399.83
1404.21
1405.42
1404.72
1401.26
1395.9
1404.34
1404.64
1308.23
1505.42
1866.4
1523.04
1311.81
1401.84
1403.23
1394.15
1399.9
1404.28
1405.48
1404.79
1401.35
1396.59
1405.83
1403.5
1313.14
1523.46
1830.28
1538.63
1317.04
1400.57
1404.49
1394.76
1399.96
1404.34
1405.53
1404.85
1401.42
1397.27
1407.17
1402.29
1318.41
1539.02
1797.48
1551.77
1322.56
1399.25
1405.6
1395.34
1400.01
1404.39
1405.58
1404.9
1401.49
1397.93
1408.38
1401.03
1323.98
1552.14
1767.96
1562.53
1328.29
1397.93
1406.57
1395.91
1400.06
1404.44
1405.63
1404.94
1401.55
1398.59
1409.45
1399.77
1329.76
1562.88
1741.63
1571.03
1334.15
1396.64
1407.42
1396.47
1400.1
1404.47
1405.67
1404.98
1401.61
1399.22
1410.38
1398.55
1335.66
1571.37
1718.38
1577.44
1340.06
1395.43
1408.16
1397.03
1400.16
1404.52
1405.71
1405.02
1401.68
1399.84
1411.2
1397.38
1341.6
1577.75
1698.11
1581.97
1345.93
1394.32
1408.83
1397.6
1400.22
1404.57
1405.77
1405.07
1401.76
1400.45
1411.9
1396.32
1347.49
1582.26
1680.58
1584.84
1351.69
1393.35
1409.44
1398.18
1400.3
1404.63
1405.83
1405.12
1401.84
1401.04
1412.5
1395.36
1353.24
1585.12
4347
1452.99
1512.14
1535.7
1468.34
1439.54
1433.59
1434.91
1435.58
1434.94
1433.43
1438.96
1466.89
1533.7
1510.57
1452.13
4344.91
1453.3
1512.15
1535.68
1468.34
1439.54
1433.59
1434.91
1435.58
1434.94
1433.43
1438.96
1466.89
1533.67
1510.58
1452.44
4342.31
1453.73
1512.06
1535.63
1468.33
1439.53
1433.59
1434.91
1435.58
1434.93
1433.43
1438.95
1466.88
1533.62
1510.48
1452.86
4338.38
1454.42
1511.86
1535.53
1468.32
1439.52
1433.59
1434.91
1435.58
1434.93
1433.42
1438.94
1466.87
1533.53
1510.28
1453.55
4332.88
1455.41
1511.55
1535.39
1468.3
1439.5
1433.58
1434.91
1435.57
1434.93
1433.42
1438.92
1466.85
1533.38
1509.98
1454.53
4325.53
1456.7
1511.13
1535.19
1468.28
1439.48
1433.57
1434.91
1435.57
1434.93
1433.41
1438.9
1466.84
1533.19
1509.55
1455.83
4315.68
1458.34
1510.57
1534.94
1468.26
1439.45
1433.56
1434.9
1435.57
1434.93
1433.4
1438.87
1466.81
1532.94
1509
1457.46
4302.08
1460.35
1509.86
1534.63
1468.23
1439.42
1433.55
1434.9
1435.57
1434.92
1433.39
1438.84
1466.78
1532.62
1508.29
1459.47
4282.9
1462.84
1508.97
1534.24
1468.2
1439.37
1433.54
1434.89
1435.56
1434.92
1433.38
1438.8
1466.75
1532.23
1507.39
1461.96
4255.98
1465.92
1507.85
1533.75
1468.16
1439.32
1433.52
1434.89
1435.56
1434.91
1433.36
1438.75
1466.71
1531.74
1506.27
1465.03
4219.14
1469.73
1506.46
1533.14
1468.11
1439.26
1433.5
1434.88
1435.55
1434.9
1433.35
1438.69
1466.67
1531.13
1504.88
1468.82
4170.56
1474.37
1504.76
1532.39
1468.05
1439.18
1433.47
1434.87
1435.54
1434.9
1433.32
1438.61
1466.61
1530.38
1503.18
1473.45
4109.1
1479.94
1502.72
1531.5
1467.98
1439.09
1433.44
1434.86
1435.54
1434.89
1433.3
1438.53
1466.55
1529.48
1501.14
1479
4034.37
1486.46
1500.32
1530.44
1467.91
1438.99
1433.41
1434.85
1435.53
1434.87
1433.27
1438.43
1466.48
1528.42
1498.72
1485.51
3946.7
1493.93
1497.55
1529.21
1467.83
1438.87
1433.37
1434.83
1435.51
1434.86
1433.23
1438.31
1466.41
1527.2
1495.95
1492.95
3847
1502.25
1494.46
1527.83
1467.74
1438.73
1433.33
1434.81
1435.5
1434.84
1433.19
1438.18
1466.32
1525.8
1492.85
1501.23
3736.63
1511.31
1491.07
1526.27
1467.63
1438.59
1433.28
1434.8
1435.49
1434.83
1433.15
1438.04
1466.23
1524.25
1489.44
1510.26
3617.16
1521.03
1487.4
1524.56
1467.52
1438.43
1433.23
1434.78
1435.47
1434.81
1433.11
1437.88
1466.12
1522.53
1485.76
1519.95
3490.35
1531.35
1483.48
1522.71
1467.4
1438.26
1433.17
1434.76
1435.46
1434.79
1433.06
1437.72
1466.01
1520.68
1481.83
1530.24
3357.99
1542.19
1479.33
1520.73
1467.27
1438.08
1433.11
1434.73
1435.44
1434.77
1433.01
1437.55
1465.89
1518.69
1477.66
1541.05
3221.93
1553.5
1474.98
1518.64
1467.13
1437.9
1433.05
1434.71
1435.43
1434.75
1432.95
1437.37
1465.76
1516.6
1473.29
1552.33
3083.91
1565.2
1470.45
1516.43
1466.98
1437.71
1432.98
1434.69
1435.41
1434.73
1432.89
1437.19
1465.62
1514.39
1468.74
1564.01
2945.42
1577.21
1465.78
1514.1
1466.82
1437.51
1432.92
1434.66
1435.4
1434.71
1432.83
1437
1465.46
1512.06
1464.05
1576.01
2807.54
1589.45
1460.99
1511.66
1466.64
1437.32
1432.85
1434.64
1435.38
1434.69
1432.77
1436.81
1465.29
1509.61
1459.25
1588.23
2671.07
1601.79
1456.13
1509.1
1466.44
1437.11
1432.77
1434.61
1435.37
1434.66
1432.71
1436.61
1465.11
1507.04
1454.36
1600.56
2536.67
1614.11
1451.21
1506.41
1466.23
1436.91
1432.7
1434.59
1435.35
1434.64
1432.64
1436.41
1464.91
1504.35
1449.43
1612.88
2405.06
1626.31
1446.28
1503.6
1466
1436.7
1432.62
1434.56
1435.33
1434.62
1432.57
1436.21
1464.69
1501.53
1444.47
1625.07
2276.91
1638.26
1441.36
1500.66
1465.75
1436.48
1432.53
1434.54
1435.32
1434.59
1432.5
1436.01
1464.45
1498.59
1439.54
1637.02
2152.86
1649.82
1436.5
1497.59
1465.47
1436.27
1432.45
1434.51
1435.3
1434.57
1432.42
1435.8
1464.18
1495.51
1434.66
1648.6
2033.46
1660.88
1431.73
1494.39
1465.17
1436.05
1432.36
1434.48
1435.29
1434.54
1432.34
1435.6
1463.89
1492.31
1429.88
1659.67
1919.22
1671.3
1427.11
1491.07
1464.84
1435.84
1432.27
1434.45
1435.27
1434.52
1432.26
1435.39
1463.57
1488.99
1425.23
1670.1
1810.56
1680.93
1422.67
1487.65
1464.48
1435.62
1432.17
1434.42
1435.26
1434.49
1432.18
1435.19
1463.23
1485.56
1420.78
1679.75
1707.92
1689.62
1418.47
1484.14
1464.09
1435.41
1432.08
1434.39
1435.24
1434.47
1432.09
1434.99
1462.85
1482.04
1416.56
1688.48
1611.73
1697.25
1414.55
1480.55
1463.67
1435.21
1431.98
1434.36
1435.23
1434.44
1432.01
1434.8
1462.44
1478.45
1412.62
1696.12
1522.4
1703.64
1410.96
1476.9
1463.21
1435.01
1431.88
1434.33
1435.22
1434.42
1431.92
1434.61
1461.99
1474.8
1409.01
1702.54
1440.26
1708.68
1407.75
1473.2
1462.72
1434.82
1431.78
1434.3
1435.21
1434.39
1431.84
1434.43
1461.51
1471.1
1405.78
1707.61
1365.53
1712.23
1404.95
1469.46
1462.18
1434.63
1431.68
1434.27
1435.19
1434.37
1431.75
1434.26
1460.99
1467.36
1402.96
1711.17
1298.3
1714.15
1402.6
1465.67
1461.61
1434.46
1431.58
1434.25
1435.18
1434.34
1431.67
1434.1
1460.43
1463.57
1400.59
1713.11
1238.59
1714.36
1400.73
1461.85
1460.99
1434.28
1431.48
1434.22
1435.17
1434.32
1431.58
1433.94
1459.83
1459.75
1398.7
1713.33
1186.27
1712.75
1399.35
1458
1460.33
1434.12
1431.38
1434.19
1435.16
1434.3
1431.49
1433.79
1459.17
1455.9
1397.29
1711.73
1141.13
1709.29
1398.47
1454.1
1459.61
1433.95
1431.27
1434.15
1435.16
1434.27
1431.4
1433.65
1458.47
1452.01
1396.38
1708.27
1102.84
1703.95
1398.07
1450.19
1458.83
1433.8
1431.17
1434.12
1435.15
1434.24
1431.31
1433.51
1457.7
1448.09
1395.96
1702.92
1070.98
1696.76
1398.15
1446.26
1457.99
1433.64
1431.06
1434.09
1435.14
1434.21
1431.21
1433.38
1456.88
1444.16
1396
1695.73
1045.07
1687.8
1398.66
1442.34
1457.09
1433.49
1430.94
1434.05
1435.13
1434.18
1431.11
1433.25
1456
1440.24
1396.48
1686.76
1024.62
1677.17
1399.59
1438.44
1456.12
1433.35
1430.83
1434.01
1435.12
1434.15
1431.02
1433.13
1455.04
1436.34
1397.38
1676.11
1009.11
1665.01
1400.88
1434.58
1455.09
1433.2
1430.71
1433.97
1435.1
1434.12
1430.92
1433.01
1454.02
1432.49
1398.63
1663.93
998.038
1651.47
1402.48
1430.79
1453.97
1433.07
1430.59
1433.92
1435.09
1434.08
1430.82
1432.9
1452.93
1428.7
1400.19
1650.36
990.899
1636.71
1404.33
1427.07
1452.79
1432.93
1430.47
1433.88
1435.08
1434.05
1430.72
1432.79
1451.76
1424.98
1402
1635.58
987.219
1620.94
1406.36
1423.45
1451.53
1432.8
1430.35
1433.83
1435.07
1434.01
1430.62
1432.69
1450.52
1421.36
1404
1619.77
986.545
1604.33
1408.51
1419.94
1450.19
1432.67
1430.23
1433.78
1435.05
1433.97
1430.53
1432.6
1449.2
1417.86
1406.11
1603.13
988.452
1587.1
1410.71
1416.57
1448.79
1432.55
1430.12
1433.73
1435.04
1433.93
1430.44
1432.51
1447.82
1414.48
1408.26
1585.85
992.544
1569.43
1412.9
1413.37
1447.33
1432.43
1430.01
1433.68
1435.03
1433.89
1430.36
1432.42
1446.39
1411.29
1410.41
1568.14
998.461
1551.53
1415.02
1410.39
1445.82
1432.31
1429.9
1433.63
1435.01
1433.84
1430.28
1432.34
1444.9
1408.31
1412.48
1550.18
1005.87
1533.56
1417.03
1407.65
1444.27
1432.19
1429.81
1433.58
1435
1433.8
1430.21
1432.26
1443.38
1405.58
1414.44
1532.16
1014.49
1515.7
1418.87
1405.18
1442.69
1432.07
1429.72
1433.52
1434.98
1433.76
1430.15
1432.18
1441.81
1403.1
1416.24
1514.25
1024.06
1498.12
1420.51
1402.97
1441.07
1431.95
1429.64
1433.47
1434.97
1433.72
1430.1
1432.1
1440.23
1400.89
1417.83
1496.61
1034.36
1480.96
1421.89
1401.03
1439.44
1431.83
1429.57
1433.42
1434.96
1433.68
1430.06
1432.01
1438.62
1398.95
1419.15
1479.38
1045.19
1464.33
1422.96
1399.35
1437.79
1431.7
1429.51
1433.37
1434.94
1433.64
1430.03
1431.93
1437
1397.27
1420.16
1462.69
1056.39
1448.37
1423.67
1397.94
1436.15
1431.56
1429.45
1433.32
1434.93
1433.61
1430.01
1431.84
1435.38
1395.86
1420.82
1446.66
1067.83
1433.16
1424
1396.79
1434.51
1431.41
1429.41
1433.27
1434.91
1433.57
1430.01
1431.74
1433.78
1394.7
1421.1
1431.39
1079.36
1418.78
1423.96
1395.88
1432.89
1431.26
1429.38
1433.23
1434.9
1433.54
1430.01
1431.63
1432.19
1393.79
1421
1416.94
1090.91
1405.3
1423.54
1395.21
1431.31
1431.1
1429.36
1433.19
1434.89
1433.52
1430.03
1431.52
1430.64
1393.11
1420.52
1403.38
1102.39
1392.75
1422.76
1394.74
1429.76
1430.92
1429.36
1433.15
1434.87
1433.49
1430.05
1431.4
1429.13
1392.64
1419.68
1390.75
1113.73
1381.16
1421.64
1394.48
1428.26
1430.74
1429.36
1433.12
1434.86
1433.48
1430.09
1431.27
1427.66
1392.36
1418.51
1379.08
1124.87
1370.54
1420.2
1394.39
1426.82
1430.54
1429.37
1433.09
1434.85
1433.46
1430.14
1431.13
1426.26
1392.25
1417.01
1368.39
1135.76
1360.91
1418.49
1394.45
1425.45
1430.33
1429.39
1433.07
1434.84
1433.45
1430.21
1430.98
1424.93
1392.3
1415.24
1358.66
1146.35
1352.23
1416.54
1394.64
1424.15
1430.12
1429.42
1433.05
1434.82
1433.45
1430.28
1430.82
1423.68
1392.48
1413.23
1349.9
1156.61
1344.5
1414.39
1394.95
1422.94
1429.89
1429.46
1433.03
1434.81
1433.45
1430.36
1430.66
1422.51
1392.76
1411.02
1342.08
1166.5
1337.69
1412.09
1395.34
1421.81
1429.65
1429.5
1433.02
1434.81
1433.45
1430.45
1430.49
1421.43
1393.14
1408.65
1335.16
1176
1331.75
1409.67
1395.81
1420.77
1429.41
1429.55
1433.02
1434.8
1433.47
1430.54
1430.32
1420.44
1393.57
1406.17
1329.12
1185.1
1326.65
1407.19
1396.32
1419.83
1429.16
1429.61
1433.02
1434.79
1433.48
1430.65
1430.15
1419.55
1394.06
1403.62
1323.91
1193.79
1322.34
1404.68
1396.87
1418.98
1428.91
1429.67
1433.03
1434.78
1433.51
1430.76
1429.97
1418.76
1394.57
1401.04
1319.48
1202.07
1318.78
1402.19
1397.43
1418.23
1428.66
1429.74
1433.04
1434.77
1433.54
1430.88
1429.8
1418.07
1395.11
1398.47
1315.79
1209.93
1315.91
1399.76
1398
1417.58
1428.4
1429.81
1433.05
1434.77
1433.57
1431
1429.64
1417.47
1395.64
1395.96
1312.78
1217.38
1313.68
1397.42
1398.57
1417.02
1428.15
1429.88
1433.08
1434.77
1433.62
1431.12
1429.48
1416.97
1396.17
1393.55
1310.42
1224.41
1312.06
1395.21
1399.12
1416.56
1427.93
1429.97
1433.11
1434.77
1433.67
1431.25
1429.34
1416.57
1396.7
1391.27
1308.66
1231.03
1310.98
1393.16
1399.66
1416.22
1427.75
1430.07
1433.17
1434.79
1433.73
1431.4
1429.22
1416.28
1397.22
1389.17
1307.48
1237.23
1310.4
1391.3
1400.19
1416
1427.62
1430.2
1433.24
1434.83
1433.81
1431.55
1429.13
1416.08
1397.75
1387.3
1306.84
1243.03
1310.25
1389.64
1400.7
1415.9
1427.57
1430.37
1433.35
1434.9
1433.91
1431.73
1429.08
1415.98
1398.27
1385.67
1306.68
727.821
1383.73
1421.72
1438.69
1477.35
1487.73
1490.17
1491.3
1491.02
1489.58
1486.7
1482.33
1470.78
1430.92
1415.09
1378
728.063
1383.71
1421.71
1438.7
1477.35
1487.73
1490.17
1491.3
1491.02
1489.58
1486.7
1482.33
1470.79
1430.93
1415.08
1377.98
728.348
1383.72
1421.72
1438.73
1477.36
1487.74
1490.17
1491.3
1491.02
1489.58
1486.7
1482.33
1470.79
1430.96
1415.09
1377.99
728.786
1383.72
1421.76
1438.78
1477.37
1487.74
1490.17
1491.3
1491.02
1489.58
1486.7
1482.33
1470.8
1431.01
1415.13
1377.99
729.399
1383.72
1421.82
1438.85
1477.38
1487.75
1490.17
1491.3
1491.02
1489.58
1486.7
1482.34
1470.81
1431.08
1415.19
1377.99
730.212
1383.7
1421.92
1438.95
1477.4
1487.75
1490.17
1491.3
1491.02
1489.58
1486.7
1482.34
1470.82
1431.18
1415.28
1377.97
731.259
1383.66
1422.04
1439.08
1477.42
1487.76
1490.18
1491.3
1491.02
1489.58
1486.71
1482.35
1470.84
1431.31
1415.4
1377.93
732.597
1383.6
1422.2
1439.23
1477.44
1487.77
1490.18
1491.3
1491.02
1489.58
1486.71
1482.36
1470.86
1431.47
1415.55
1377.87
734.327
1383.5
1422.4
1439.42
1477.47
1487.79
1490.19
1491.3
1491.02
1489.58
1486.72
1482.38
1470.89
1431.66
1415.75
1377.77
736.601
1383.34
1422.65
1439.66
1477.5
1487.8
1490.2
1491.3
1491.01
1489.58
1486.73
1482.39
1470.92
1431.9
1415.99
1377.61
739.614
1383.09
1422.96
1439.94
1477.54
1487.82
1490.21
1491.3
1491.01
1489.58
1486.73
1482.42
1470.96
1432.19
1416.29
1377.36
743.593
1382.72
1423.34
1440.28
1477.58
1487.85
1490.22
1491.3
1491.01
1489.58
1486.74
1482.44
1470.99
1432.53
1416.66
1376.99
748.776
1382.19
1423.8
1440.69
1477.64
1487.87
1490.23
1491.3
1491.01
1489.58
1486.76
1482.47
1471.04
1432.95
1417.11
1376.47
755.4
1381.48
1424.35
1441.18
1477.69
1487.91
1490.24
1491.29
1491.01
1489.58
1486.77
1482.51
1471.09
1433.45
1417.65
1375.76
763.685
1380.56
1425.01
1441.75
1477.75
1487.95
1490.26
1491.29
1491
1489.58
1486.79
1482.55
1471.14
1434.03
1418.29
1374.84
773.826
1379.4
1425.77
1442.4
1477.82
1487.99
1490.28
1491.29
1491
1489.58
1486.8
1482.59
1471.2
1434.7
1419.03
1373.69
785.98
1378
1426.63
1443.15
1477.9
1488.04
1490.3
1491.29
1490.99
1489.57
1486.83
1482.65
1471.27
1435.46
1419.87
1372.3
800.272
1376.37
1427.6
1443.99
1477.99
1488.1
1490.33
1491.28
1490.98
1489.57
1486.85
1482.71
1471.34
1436.32
1420.81
1370.68
816.784
1374.52
1428.66
1444.92
1478.08
1488.16
1490.35
1491.28
1490.98
1489.57
1486.87
1482.78
1471.42
1437.27
1421.85
1368.84
835.561
1372.46
1429.83
1445.94
1478.18
1488.23
1490.38
1491.27
1490.97
1489.57
1486.9
1482.85
1471.51
1438.31
1422.99
1366.79
856.616
1370.21
1431.09
1447.04
1478.29
1488.3
1490.41
1491.27
1490.96
1489.56
1486.93
1482.93
1471.6
1439.43
1424.22
1364.57
879.934
1367.8
1432.43
1448.21
1478.41
1488.38
1490.45
1491.26
1490.95
1489.56
1486.96
1483.02
1471.7
1440.63
1425.54
1362.18
905.475
1365.25
1433.86
1449.45
1478.53
1488.47
1490.48
1491.26
1490.94
1489.56
1487
1483.11
1471.81
1441.89
1426.93
1359.64
933.175
1362.57
1435.37
1450.74
1478.67
1488.56
1490.52
1491.25
1490.93
1489.55
1487.03
1483.2
1471.93
1443.2
1428.4
1356.98
962.952
1359.8
1436.94
1452.08
1478.81
1488.64
1490.56
1491.25
1490.92
1489.55
1487.07
1483.29
1472.05
1444.56
1429.93
1354.23
994.701
1356.96
1438.56
1453.47
1478.97
1488.74
1490.6
1491.24
1490.91
1489.55
1487.11
1483.39
1472.19
1445.97
1431.52
1351.41
1028.3
1354.08
1440.23
1454.9
1479.13
1488.83
1490.64
1491.24
1490.9
1489.54
1487.15
1483.49
1472.34
1447.42
1433.15
1348.55
1063.59
1351.2
1441.93
1456.37
1479.31
1488.92
1490.68
1491.23
1490.89
1489.54
1487.19
1483.59
1472.5
1448.91
1434.81
1345.69
1100.42
1348.34
1443.66
1457.88
1479.5
1489.02
1490.72
1491.23
1490.88
1489.54
1487.23
1483.69
1472.67
1450.44
1436.5
1342.85
1138.59
1345.56
1445.4
1459.43
1479.7
1489.12
1490.77
1491.22
1490.87
1489.54
1487.27
1483.8
1472.86
1452.01
1438.2
1340.08
1177.88
1342.87
1447.14
1461.01
1479.92
1489.22
1490.81
1491.22
1490.86
1489.53
1487.32
1483.9
1473.06
1453.6
1439.89
1337.41
1218.08
1340.32
1448.87
1462.62
1480.16
1489.32
1490.86
1491.22
1490.85
1489.53
1487.36
1484
1473.28
1455.21
1441.58
1334.89
1258.92
1337.96
1450.57
1464.25
1480.41
1489.42
1490.9
1491.21
1490.84
1489.53
1487.41
1484.11
1473.51
1456.85
1443.24
1332.54
1300.14
1335.83
1452.25
1465.9
1480.67
1489.52
1490.95
1491.21
1490.83
1489.53
1487.46
1484.21
1473.76
1458.5
1444.87
1330.43
1341.47
1333.98
1453.89
1467.56
1480.95
1489.62
1491
1491.21
1490.82
1489.53
1487.5
1484.31
1474.03
1460.17
1446.47
1328.59
1382.61
1332.45
1455.47
1469.23
1481.25
1489.72
1491.05
1491.2
1490.81
1489.53
1487.55
1484.42
1474.32
1461.83
1448.01
1327.08
1423.26
1331.3
1456.99
1470.89
1481.57
1489.82
1491.1
1491.2
1490.8
1489.53
1487.6
1484.52
1474.62
1463.49
1449.49
1325.94
1463.09
1330.59
1458.45
1472.55
1481.91
1489.91
1491.14
1491.2
1490.78
1489.53
1487.65
1484.62
1474.94
1465.14
1450.9
1325.24
1501.77
1330.36
1459.82
1474.19
1482.26
1490.01
1491.19
1491.2
1490.77
1489.53
1487.7
1484.71
1475.29
1466.77
1452.24
1325.02
1538.97
1330.66
1461.12
1475.81
1482.63
1490.11
1491.24
1491.19
1490.76
1489.53
1487.75
1484.81
1475.65
1468.38
1453.5
1325.34
1574.4
1331.55
1462.32
1477.4
1483.02
1490.2
1491.28
1491.19
1490.75
1489.53
1487.79
1484.91
1476.02
1469.96
1454.66
1326.24
1607.78
1333.06
1463.42
1478.97
1483.43
1490.29
1491.33
1491.19
1490.74
1489.53
1487.84
1485
1476.42
1471.51
1455.73
1327.76
1638.86
1335.23
1464.42
1480.51
1483.86
1490.39
1491.37
1491.19
1490.73
1489.53
1487.89
1485.09
1476.84
1473.04
1456.7
1329.93
1667.44
1338.09
1465.3
1482.03
1484.3
1490.48
1491.42
1491.19
1490.72
1489.54
1487.93
1485.18
1477.28
1474.53
1457.55
1332.79
1693.33
1341.64
1466.06
1483.52
1484.77
1490.58
1491.46
1491.19
1490.7
1489.54
1487.98
1485.28
1477.74
1476
1458.28
1336.34
1716.32
1345.89
1466.72
1484.99
1485.26
1490.67
1491.51
1491.19
1490.69
1489.54
1488.02
1485.37
1478.22
1477.44
1458.91
1340.6
1736.24
1350.85
1467.27
1486.44
1485.78
1490.77
1491.55
1491.19
1490.68
1489.54
1488.07
1485.47
1478.72
1478.86
1459.44
1345.55
1753
1356.48
1467.73
1487.87
1486.32
1490.87
1491.59
1491.19
1490.66
1489.54
1488.11
1485.57
1479.25
1480.25
1459.88
1351.18
1766.61
1362.78
1468.11
1489.27
1486.88
1490.98
1491.63
1491.19
1490.65
1489.54
1488.15
1485.67
1479.81
1481.61
1460.23
1357.46
1777.19
1369.71
1468.41
1490.61
1487.47
1491.08
1491.67
1491.18
1490.63
1489.54
1488.19
1485.77
1480.38
1482.91
1460.52
1364.38
1784.95
1377.23
1468.66
1491.9
1488.07
1491.19
1491.7
1491.18
1490.61
1489.54
1488.23
1485.87
1480.98
1484.16
1460.75
1371.88
1790.1
1385.3
1468.87
1493.12
1488.69
1491.3
1491.73
1491.17
1490.59
1489.54
1488.26
1485.97
1481.58
1485.33
1460.94
1379.93
1792.89
1393.87
1469.06
1494.27
1489.31
1491.41
1491.76
1491.16
1490.57
1489.54
1488.3
1486.08
1482.19
1486.44
1461.1
1388.48
1793.56
1402.89
1469.25
1495.35
1489.95
1491.52
1491.79
1491.16
1490.55
1489.53
1488.33
1486.19
1482.81
1487.47
1461.26
1397.48
1792.33
1412.32
1469.44
1496.36
1490.59
1491.63
1491.81
1491.15
1490.53
1489.53
1488.35
1486.3
1483.44
1488.43
1461.44
1406.89
1789.44
1422.12
1469.67
1497.28
1491.23
1491.75
1491.84
1491.13
1490.5
1489.52
1488.38
1486.41
1484.07
1489.3
1461.64
1416.67
1785.07
1432.26
1469.95
1498.12
1491.87
1491.87
1491.85
1491.12
1490.48
1489.51
1488.4
1486.53
1484.69
1490.08
1461.89
1426.77
1779.41
1442.66
1470.29
1498.88
1492.51
1492
1491.86
1491.1
1490.45
1489.5
1488.41
1486.64
1485.31
1490.77
1462.2
1437.14
1772.63
1453.21
1470.71
1499.55
1493.14
1492.12
1491.87
1491.09
1490.42
1489.48
1488.43
1486.76
1485.92
1491.38
1462.6
1447.66
1764.86
1463.78
1471.23
1500.13
1493.76
1492.25
1491.88
1491.06
1490.39
1489.47
1488.43
1486.88
1486.52
1491.89
1463.08
1458.18
1756.22
1474.2
1471.86
1500.62
1494.36
1492.38
1491.88
1491.04
1490.36
1489.45
1488.44
1487
1487.1
1492.31
1463.67
1468.56
1746.78
1484.36
1472.6
1501.02
1494.94
1492.51
1491.87
1491.01
1490.32
1489.42
1488.44
1487.12
1487.66
1492.64
1464.37
1478.67
1736.64
1494.16
1473.46
1501.33
1495.49
1492.64
1491.86
1490.98
1490.28
1489.4
1488.44
1487.24
1488.19
1492.88
1465.18
1488.42
1725.92
1503.53
1474.44
1501.56
1496.02
1492.77
1491.85
1490.95
1490.24
1489.37
1488.43
1487.36
1488.7
1493.04
1466.11
1497.74
1714.83
1512.39
1475.54
1501.71
1496.52
1492.9
1491.83
1490.91
1490.2
1489.34
1488.42
1487.48
1489.17
1493.11
1467.16
1506.55
1703.55
1520.67
1476.77
1501.78
1496.99
1493.03
1491.81
1490.87
1490.16
1489.31
1488.4
1487.6
1489.6
1493.1
1468.32
1514.77
1692.29
1528.3
1478.1
1501.78
1497.42
1493.16
1491.78
1490.83
1490.12
1489.27
1488.38
1487.71
1490
1493.02
1469.59
1522.36
1681.18
1535.26
1479.55
1501.72
1497.81
1493.28
1491.75
1490.79
1490.07
1489.23
1488.36
1487.82
1490.36
1492.88
1470.96
1529.27
1670.32
1541.48
1481.08
1501.6
1498.16
1493.4
1491.71
1490.74
1490.02
1489.19
1488.33
1487.92
1490.68
1492.67
1472.41
1535.44
1659.79
1546.96
1482.7
1501.43
1498.47
1493.52
1491.67
1490.68
1489.98
1489.15
1488.3
1488.02
1490.95
1492.41
1473.95
1540.87
1649.69
1551.68
1484.39
1501.22
1498.74
1493.63
1491.63
1490.63
1489.92
1489.1
1488.27
1488.11
1491.18
1492.11
1475.54
1545.55
1640.08
1555.65
1486.12
1500.98
1498.97
1493.74
1491.58
1490.57
1489.87
1489.04
1488.23
1488.2
1491.37
1491.76
1477.17
1549.46
1631.01
1558.87
1487.88
1500.71
1499.16
1493.84
1491.52
1490.51
1489.82
1488.99
1488.2
1488.27
1491.51
1491.39
1478.82
1552.64
1622.51
1561.38
1489.63
1500.42
1499.3
1493.93