/*--------------------------------*- C++ -*----------------------------------*\
| =========                 |                                                 |
| \\      /  F ield         | OpenFOAM: The Open Source CFD Toolbox           |
|  \\    /   O peration     | Version:  v1912                                 |
|   \\  /    A nd           | Website:  www.openfoam.com                      |
|    \\/     M anipulation  |                                                 |
\*---------------------------------------------------------------------------*/
FoamFile
{
    version     2.0;
    format      ascii;
    class       volVectorField;
    location    "199.6";
    object      UMean;
}
// * * * * * * * * * * * * * * * * * * * * * * * * * * * * * * * * * * * * * //

dimensions      [0 1 -1 0 0 0 0];


internalField   nonuniform List<vector> 
40448
(
(2.92319e-06 -0.000978811 -0.00715026)
(-0.00383646 -2.04112e-05 -0.00358545)
(3.59175e-05 -1.00707e-05 -0.00287674)
(-0.000219855 -6.98774e-06 -0.00478142)
(7.93528e-05 -6.92807e-06 -0.00472814)
(5.32013e-05 -6.6859e-06 -0.00510071)
(7.80119e-05 -6.62443e-06 -0.00516996)
(3.30078e-05 -6.51673e-06 -0.00525618)
(1.08359e-06 -6.58469e-06 -0.0052537)
(-3.09945e-05 -6.51608e-06 -0.00526077)
(-7.6268e-05 -6.62232e-06 -0.005174)
(-5.13394e-05 -6.68516e-06 -0.00510697)
(-7.90418e-05 -6.92094e-06 -0.00473747)
(0.000220225 -6.98877e-06 -0.00478706)
(-3.81694e-05 -1.00522e-05 -0.00289432)
(0.00383335 -2.04276e-05 -0.00356605)
(8.20412e-06 0.00493223 -0.0188728)
(-0.00982495 -6.6373e-05 -0.00773167)
(9.29784e-05 -8.00366e-05 -0.00569032)
(-0.000587447 -3.95023e-05 -0.0113319)
(0.000240406 -4.21296e-05 -0.0111756)
(0.000152012 -3.90389e-05 -0.0122841)
(0.000217537 -3.88781e-05 -0.012488)
(9.15831e-05 -3.81085e-05 -0.0127423)
(2.79026e-06 -3.84631e-05 -0.0127347)
(-8.65274e-05 -3.80957e-05 -0.0127562)
(-0.000213002 -3.88606e-05 -0.0125009)
(-0.000147301 -3.90111e-05 -0.0123038)
(-0.000239481 -4.2072e-05 -0.011205)
(0.000588734 -3.94692e-05 -0.0113498)
(-9.79186e-05 -7.9916e-05 -0.00574338)
(0.00981739 -6.64495e-05 -0.00767591)
(1.32599e-05 -0.000937131 -0.0283576)
(-0.0141269 -0.000151178 -0.00913926)
(0.000242595 -0.00020056 -0.00579971)
(-0.000886153 -8.88028e-05 -0.0151226)
(0.000397541 -9.70999e-05 -0.0148638)
(0.000240915 -8.86042e-05 -0.0167023)
(0.000339651 -8.84141e-05 -0.0170375)
(0.000142218 -8.65268e-05 -0.0174565)
(4.00975e-06 -8.73293e-05 -0.0174439)
(-0.000135177 -8.64862e-05 -0.0174799)
(-0.00033311 -8.83658e-05 -0.0170601)
(-0.000234253 -8.85235e-05 -0.016736)
(-0.000395926 -9.69558e-05 -0.0149142)
(0.000888706 -8.87019e-05 -0.0151536)
(-0.00024855 -0.000200289 -0.00588862)
(0.0141165 -0.000151418 -0.00904924)
(1.82671e-05 0.00378779 -0.0357168)
(-0.0174693 -0.000230791 -0.00810219)
(0.00040314 -0.000358979 -0.00341449)
(-0.00114478 -0.000147255 -0.0163365)
(0.000528206 -0.000164828 -0.0159728)
(0.000310668 -0.00014891 -0.0185298)
(0.000440063 -0.00014892 -0.0189921)
(0.000183111 -0.000145628 -0.0195715)
(4.67297e-06 -0.000147011 -0.0195541)
(-0.000175259 -0.00014555 -0.0196045)
(-0.000432366 -0.000148835 -0.0190251)
(-0.000302912 -0.000148766 -0.0185783)
(-0.000525716 -0.000164584 -0.0160446)
(0.00114897 -0.000147073 -0.0163811)
(-0.000408682 -0.000358535 -0.00353921)
(0.0174577 -0.000231253 -0.0079798)
(2.32537e-05 0.00151626 -0.0407879)
(-0.0200456 -0.000320552 -0.00490175)
(0.000510038 -0.000545531 0.00123457)
(-0.00137596 -0.000209371 -0.0151657)
(0.000623861 -0.000239358 -0.0146946)
(0.000358011 -0.000213799 -0.0179527)
(0.000517523 -0.000214239 -0.0185367)
(0.000213791 -0.000209327 -0.0192709)
(4.77445e-06 -0.000211399 -0.0192493)
(-0.000206282 -0.00020921 -0.0193136)
(-0.000509494 -0.00021413 -0.0185804)
(-0.000349959 -0.000213615 -0.0180161)
(-0.000620297 -0.000239069 -0.0147877)
(0.00138209 -0.000209151 -0.0152243)
(-0.000513932 -0.000544887 0.00107456)
(0.0200342 -0.000321271 -0.00474878)
(2.81249e-05 0.00246822 -0.0434255)
(-0.0219689 -0.000408675 0.000213006)
(0.000553451 -0.000750285 0.00788078)
(-0.00157779 -0.000272223 -0.0118213)
(0.000686438 -0.000317376 -0.0112413)
(0.000384282 -0.000280511 -0.015176)
(0.000572864 -0.000281585 -0.015875)
(0.000234668 -0.000274812 -0.0167565)
(4.35475e-06 -0.00027768 -0.0167315)
(-0.000228556 -0.000274655 -0.0168088)
(-0.00056526 -0.000281457 -0.0159295)
(-0.000376678 -0.000280292 -0.015254)
(-0.000681652 -0.000317065 -0.0113552)
(0.00158611 -0.000271969 -0.0118938)
(-0.000554622 -0.000749414 0.00768656)
(0.0219592 -0.000409635 0.000394647)
(3.27116e-05 0.00261719 -0.0435552)
(-0.0232549 -0.000492988 0.00698657)
(0.000528361 -0.00096677 0.0161868)
(-0.00174781 -0.000333696 -0.00656294)
(0.000718605 -0.00039603 -0.00587439)
(0.000391373 -0.000347218 -0.0104491)
(0.00060725 -0.000349175 -0.0112546)
(0.000246339 -0.000340393 -0.0122744)
(3.48006e-06 -0.000344157 -0.0122466)
(-0.00024253 -0.000340198 -0.012336)
(-0.000600734 -0.000349033 -0.01132)
(-0.000384876 -0.000346969 -0.0105412)
(-0.000712501 -0.0003957 -0.00600813)
(0.00175849 -0.000333401 -0.00664907)
(-0.000525937 -0.000965676 0.0159601)
(0.0232481 -0.000494181 0.00719454)
(3.67979e-05 0.00285337 -0.0412799)
(-0.0239305 -0.000570238 0.0151149)
(0.000436213 -0.00118851 0.0257292)
(-0.00188394 -0.000391259 0.000267172)
(0.000723872 -0.000472162 0.00106123)
(0.000381914 -0.000410923 -0.00410461)
(0.000622465 -0.000414066 -0.00500739)
(0.000249717 -0.000403275 -0.00615517)
(2.2481e-06 -0.000408016 -0.00612507)
(-0.000248899 -0.000403059 -0.00622571)
(-0.000617564 -0.000413938 -0.00508343)
(-0.000377056 -0.000410688 -0.00421051)
(-0.000716411 -0.000471866 0.000908175)
(0.00189704 -0.000390964 0.000167586)
(-0.000429578 -0.00118723 0.0254722)
(0.0239281 -0.000571665 0.0153461)
(4.0204e-05 0.00305886 -0.0369433)
(-0.0240358 -0.00063846 0.0242388)
(0.000284353 -0.00140948 0.0360507)
(-0.0019861 -0.000442795 0.00825694)
(0.000706522 -0.000542977 0.00915099)
(0.000359189 -0.000468927 0.00344822)
(0.000621134 -0.000473526 0.00245708)
(0.000246103 -0.000460746 0.00118997)
(7.87021e-07 -0.000466525 0.00122201)
(-0.000248695 -0.000460523 0.00111074)
(-0.00061819 -0.00047344 0.00237014)
(-0.000356318 -0.000468747 0.00332852)
(-0.000697704 -0.00054277 0.00897817)
(0.00200159 -0.000442538 0.00814338)
(-0.000273175 -0.00140805 0.0357651)
(0.024039 -0.000640129 0.0244893)
(4.28634e-05 0.00328469 -0.0310655)
(-0.0236437 -0.000695902 0.0339943)
(8.4334e-05 -0.00162359 0.046755)
(-0.00205718 -0.00048657 0.017004)
(0.000671015 -0.000606102 0.0179913)
(0.000326617 -0.000518983 0.0118016)
(0.000606474 -0.00052526 0.0107289)
(0.000237034 -0.000510501 0.00934825)
(-7.74735e-07 -0.000517366 0.00938206)
(-0.00024319 -0.000510285 0.00926034)
(-0.000605644 -0.000525238 0.0106305)
(-0.000325894 -0.000518896 0.0116675)
(-0.000660857 -0.000606024 0.0177973)
(0.00207496 -0.000486383 0.0168752)
(-6.85226e-05 -0.00162204 0.0464425)
(0.0236533 -0.00069782 0.0342598)
(4.48226e-05 0.00351289 -0.0241618)
(-0.0228479 -0.000741144 0.0440783)
(-0.000151987 -0.00182693 0.0576364)
(-0.00210211 -0.000521172 0.0261974)
(0.000621293 -0.000659425 0.027271)
(0.000287109 -0.000559181 0.0206355)
(0.000581649 -0.000567307 0.0194859)
(0.00022397 -0.000550587 0.0179949)
(-2.33845e-06 -0.000558571 0.0180303)
(-0.000233637 -0.000550389 0.0178981)
(-0.000582943 -0.000567367 0.0193753)
(-0.000288545 -0.000559221 0.0204858)
(-0.000609826 -0.000659515 0.0270539)
(0.00212205 -0.000521086 0.0260517)
(0.000172375 -0.00182532 0.0572977)
(0.0228646 -0.00074332 0.0443553)
(4.61843e-05 0.00374011 -0.0166078)
(-0.0217333 -0.000773211 0.0543477)
(-0.000414066 -0.00201668 0.0686115)
(-0.00212602 -0.000545668 0.0356942)
(0.000560305 -0.000701526 0.0368567)
(0.00024276 -0.000588045 0.0297739)
(0.000549237 -0.000598099 0.0285456)
(0.000208066 -0.00057938 0.0269363)
(-3.83832e-06 -0.000588506 0.0269737)
(-0.000221065 -0.00057921 0.02683)
(-0.000552554 -0.000598252 0.0284211)
(-0.000246248 -0.000588235 0.0296069)
(-0.000547529 -0.000701802 0.0366129)
(0.00214797 -0.000545702 0.0355287)
(0.000438932 -0.00201505 0.0682464)
(0.0217574 -0.000775657 0.054632)
(4.70505e-05 0.00396718 -0.00862215)
(-0.020366 -0.000792223 0.0647218)
(-0.000689601 -0.0021892 0.0795698)
(-0.00213236 -0.000559407 0.0454944)
(0.000490251 -0.000731455 0.046744)
(0.000194738 -0.000604681 0.039218)
(0.000510837 -0.000616709 0.0379102)
(0.000189982 -0.00059594 0.036178)
(-5.2615e-06 -0.000606228 0.0362173)
(-0.000206108 -0.000595804 0.0360611)
(-0.000516056 -0.000616964 0.0377701)
(-0.000200157 -0.000605041 0.0390317)
(-0.000476189 -0.00073193 0.0464706)
(0.00215623 -0.000559573 0.0453064)
(0.000718827 -0.00218757 0.0791789)
(0.0203976 -0.000794951 0.0650081)
(4.75199e-05 0.00419791 -0.000314664)
(-0.0188048 -0.000798093 0.0750771)
(-0.000965761 -0.00234188 0.0903926)
(-0.00212291 -0.000561759 0.0555711)
(0.000413667 -0.000748304 0.0568891)
(0.000144186 -0.000608302 0.0489705)
(0.000467707 -0.000622312 0.0475901)
(0.000170218 -0.000599418 0.0457452)
(-6.60515e-06 -0.000610889 0.045785)
(-0.000189266 -0.000599324 0.0456173)
(-0.000474716 -0.000622674 0.0474341)
(-0.000151448 -0.000608845 0.048765)
(-0.00039842 -0.000748981 0.056586)
(0.00214857 -0.000562066 0.05536)
(0.000999198 -0.00234031 0.0899788)
(0.0188439 -0.000801111 0.0753608)
(4.76687e-05 0.00442637 0.00833675)
(-0.0171029 -0.0007909 0.0853077)
(-0.00123162 -0.00247332 0.100983)
(-0.00209895 -0.000552512 0.0658326)
(0.000333342 -0.00075168 0.0671957)
(9.26718e-05 -0.000598519 0.0589424)
(0.00042137 -0.000614445 0.0574969)
(0.000149431 -0.0005893 0.0555519)
(-7.83955e-06 -0.000601965 0.0555911)
(-0.000171142 -0.000589251 0.0554135)
(-0.000430027 -0.000614908 0.0573254)
(-0.000101664 -0.000599246 0.0587187)
(-0.000317045 -0.000752544 0.066864)
(0.00212624 -0.000552954 0.0655989)
(0.00126908 -0.00247183 0.100549)
(0.0171495 -0.000794219 0.0855849)
(4.7532e-05 0.00465026 0.01742)
(-0.0153105 -0.000771474 0.0953283)
(-0.00147841 -0.00258279 0.111263)
(-0.00206187 -0.000531902 0.0761912)
(0.000251693 -0.000741739 0.0775742)
(4.15682e-05 -0.000575525 0.0690457)
(0.000373199 -0.000593256 0.0675426)
(0.000128211 -0.000565695 0.0655111)
(-8.93673e-06 -0.000579558 0.0655483)
(-0.000152275 -0.000565688 0.0653626)
(-0.000383322 -0.000593809 0.0673563)
(-5.21466e-05 -0.000576421 0.0688049)
(-0.000234492 -0.000742759 0.0772153)
(0.00209065 -0.000532462 0.0759355)
(0.00151965 -0.0025814 0.110814)
(0.0153645 -0.000775107 0.0955954)
(4.71321e-05 0.00487446 0.0269334)
(-0.0134716 -0.000740585 0.105071)
(-0.00169935 -0.00267016 0.121175)
(-0.0020132 -0.000500365 0.0865633)
(0.000170819 -0.000718916 0.087941)
(-7.96796e-06 -0.000539784 0.0791976)
(0.000324404 -0.000559177 0.0776444)
(0.000107071 -0.000528982 0.0755403)
(-9.8737e-06 -0.000544049 0.0755741)
(-0.000133137 -0.000529015 0.0753824)
(-0.000335784 -0.000559798 0.0774439)
(-4.02627e-06 -0.000540826 0.0789411)
(-0.000152863 -0.000720047 0.0875563)
(0.00204331 -0.000501017 0.0862867)
(0.00174411 -0.00266889 0.120714)
(0.0135325 -0.000744557 0.105325)
(4.64959e-05 0.00510122 0.036784)
(-0.0116239 -0.000698983 0.114482)
(-0.00188967 -0.00273581 0.130672)
(-0.00195458 -0.000458458 0.0968628)
(9.26248e-05 -0.000683907 0.0982118)
(-5.4908e-05 -0.000491945 0.0893131)
(0.000276099 -0.000512816 0.0877175)
(8.64788e-05 -0.000479711 0.0855545)
(-1.06316e-05 -0.00049599 0.0855837)
(-0.000114161 -0.000479781 0.0853876)
(-0.0002885 -0.000513481 0.0875034)
(4.16919e-05 -0.000493095 0.089042)
(-7.40611e-05 -0.000685099 0.097803)
(0.00198586 -0.000459171 0.0965662)
(0.00193765 -0.00273467 0.130203)
(0.0116912 -0.000703323 0.11472)
(4.56587e-05 0.00532777 0.0468411)
(-0.00980019 -0.000647381 0.12352)
(-0.00204653 -0.00278047 0.139721)
(-0.00188787 -0.00040699 0.106994)
(1.88146e-05 -0.000637708 0.108297)
(-9.83444e-05 -0.000432833 0.0992981)
(0.000229323 -0.000454938 0.0976678)
(6.68613e-05 -0.000418574 0.0954584)
(-1.1196e-05 -0.000436073 0.0954825)
(-9.57509e-05 -0.000418676 0.0952834)
(-0.000242489 -0.000455627 0.097441)
(8.41204e-05 -0.000434057 0.0990132)
(2.16398e-07 -0.000638896 0.107866)
(0.00192017 -0.000407724 0.106679)
(0.00209741 -0.00277945 0.139248)
(0.00987332 -0.000652111 0.12374)
(4.46631e-05 0.00555165 0.0569505)
(-0.00802962 -0.00058662 0.132152)
(-0.00216883 -0.0028051 0.148298)
(-0.00181532 -0.000346846 0.116856)
(-4.91955e-05 -0.000581448 0.118103)
(-0.000137565 -0.000363569 0.109049)
(0.00018501 -0.000386666 0.107393)
(4.85911e-05 -0.000346682 0.105149)
(-1.15596e-05 -0.000365403 0.105168)
(-7.82672e-05 -0.000346812 0.104967)
(-0.000198674 -0.000387353 0.107154)
(0.000122561 -0.000364824 0.108752)
(6.85647e-05 -0.000582564 0.117652)
(0.00184848 -0.000347559 0.116525)
(0.00222225 -0.00280419 0.147823)
(0.00810777 -0.000591751 0.132352)
(4.35527e-05 0.0057723 0.0669663)
(-0.00633833 -0.000517689 0.140354)
(-0.00225704 -0.00281086 0.156389)
(-0.00173953 -0.000279307 0.126353)
(-0.000110469 -0.000516497 0.127538)
(-0.000172161 -0.00028564 0.118474)
(0.000143858 -0.000309423 0.116805)
(3.19139e-05 -0.000265342 0.114548)
(-1.17236e-05 -0.00028529 0.114561)
(-6.196e-05 -0.000265484 0.114361)
(-0.000157752 -0.000310073 0.116557)
(0.000156607 -0.000286871 0.118166)
(0.000130058 -0.000517451 0.127072)
(0.00177338 -0.000279934 0.126008)
(0.00231264 -0.00281004 0.155915)
(0.00642061 -0.000523221 0.140534)
(4.23663e-05 0.00598857 0.0767944)
(-0.00474955 -0.000441625 0.14811)
(-0.00231292 -0.00279908 0.16399)
(-0.00166266 -0.000205559 0.135444)
(-0.000164679 -0.000444387 0.136541)
(-0.000202164 -0.000200281 0.127554)
(0.000106139 -0.000224466 0.125883)
(1.69253e-05 -0.000175811 0.123632)
(-1.16941e-05 -0.000196984 0.123637)
(-4.69393e-05 -0.000175936 0.123441)
(-0.000119999 -0.00022503 0.125627)
(0.000186296 -0.000201418 0.127238)
(0.000184392 -0.000445081 0.136062)
(0.00169703 -0.000206035 0.135089)
(0.00237036 -0.00279833 0.163519)
(0.00483499 -0.000447557 0.148269)
(4.11364e-05 0.00620015 0.0863996)
(-0.00328315 -0.000359354 0.155415)
(-0.00233927 -0.00277123 0.171105)
(-0.00158602 -0.00012638 0.144146)
(-0.000212177 -0.000366146 0.145126)
(-0.000227738 -0.000108554 0.136298)
(7.19659e-05 -0.000132964 0.13463)
(3.6694e-06 -7.94746e-05 0.132386)
(-1.148e-05 -0.000101853 0.132384)
(-3.32691e-05 -7.95512e-05 0.132191)
(-8.55273e-05 -0.00013339 0.134367)
(0.000211798 -0.000109533 0.135974)
(0.000231946 -0.000366507 0.144637)
(0.0016208 -0.000126662 0.143781)
(0.0023982 -0.00277051 0.17064)
(0.00337071 -0.000365684 0.155552)
(3.98896e-05 0.00640713 0.0957763)
(-0.00195483 -0.000271942 0.162267)
(-0.00233959 -0.00272891 0.177746)
(-0.00151066 -4.25706e-05 0.152468)
(-0.000253358 -0.000282646 0.153325)
(-0.000249002 -1.17604e-05 0.144697)
(4.14523e-05 -3.62708e-05 0.143034)
(-7.83916e-06 2.21933e-05 0.140797)
(-1.10934e-05 -1.36146e-06 0.140788)
(-2.09897e-05 2.22023e-05 0.1406)
(-5.44637e-05 -3.64987e-05 0.142765)
(0.00023323 -1.25123e-05 0.144365)
(0.000273145 -0.000282617 0.152826)
(0.00154573 -4.26244e-05 0.152092)
(0.00239966 -0.00272819 0.177288)
(0.00204353 -0.000278687 0.162383)
(3.86477e-05 0.0066096 0.104925)
(-0.000772734 -0.000179948 0.168681)
(-0.00231776 -0.00267381 0.183931)
(-0.00143742 4.50542e-05 0.160413)
(-0.000288399 -0.000195027 0.161141)
(-0.000266165 8.91757e-05 0.152758)
(1.4579e-05 6.46435e-05 0.151105)
(-1.76433e-05 0.000128071 0.148876)
(-1.0548e-05 0.000103387 0.14886)
(-1.00872e-05 0.000128203 0.148675)
(-2.68052e-05 6.46721e-05 0.150828)
(0.000250789 8.87082e-05 0.152418)
(0.000308184 -0.00019457 0.160631)
(0.00147269 4.52447e-05 0.160026)
(0.00237865 -0.00267305 0.183482)
(0.000861789 -0.000187148 0.168777)
(3.74278e-05 0.00680733 0.113842)
(0.000267221 -8.34913e-05 0.174708)
(-0.00227778 -0.00260759 0.189682)
(-0.00136689 0.000135809 0.167989)
(-0.000317595 -0.000104184 0.168578)
(-0.000279478 0.000193551 0.160498)
(-8.75168e-06 0.000169053 0.158861)
(-2.58126e-05 0.000237325 0.156645)
(-9.85629e-06 0.000211575 0.156622)
(-5.19191e-07 0.000237616 0.156441)
(-2.46885e-06 0.000169383 0.158577)
(0.000264716 0.000193406 0.160148)
(0.000337377 -0.000103283 0.168058)
(0.00140226 0.000136243 0.167591)
(0.00233919 -0.00260675 0.189244)
(-0.000178315 -9.11564e-05 0.174781)
(3.62428e-05 0.00700034 0.122513)
(0.00117346 1.60336e-05 0.180387)
(-0.00222358 -0.00253187 0.195025)
(-0.00129938 0.000229019 0.175207)
(-0.000341344 -1.0939e-05 0.175647)
(-0.000289177 0.000300786 0.167937)
(-2.86573e-05 0.000276388 0.166324)
(-3.24183e-05 0.000349353 0.16413)
(-9.02883e-06 0.00032261 0.1641)
(7.76244e-06 0.000349833 0.163924)
(1.86503e-05 0.000277049 0.166032)
(0.000275239 0.00030098 0.167577)
(0.000361141 -9.59447e-06 0.175118)
(0.00133477 0.000229682 0.174799)
(0.00228523 -0.0025309 0.194599)
(-0.00108511 7.95221e-06 0.180438)
(3.51016e-05 0.00718903 0.130921)
(0.00195335 0.000117022 0.185733)
(-0.00215889 -0.00244805 0.199987)
(-0.00123496 0.000323971 0.182076)
(-0.000360058 8.38846e-05 0.182357)
(-0.000295467 0.000410348 0.175087)
(-4.52522e-05 0.000386154 0.173508)
(-3.75241e-05 0.000463711 0.17135)
(-8.07454e-06 0.000436034 0.171311)
(1.48021e-05 0.000464401 0.171141)
(3.66569e-05 0.000387157 0.173207)
(0.000282557 0.000410882 0.174717)
(0.00037991 8.56689e-05 0.181821)
(0.00127029 0.000324842 0.181659)
(0.00222055 -0.00244691 0.199575)
(-0.00186595 0.000108581 0.185762)
(3.40093e-05 0.00737363 0.139043)
(0.00261367 0.000218591 0.190752)
(-0.00208716 -0.00235752 0.204597)
(-0.0011735 0.000419883 0.1886)
(-0.000374133 0.00017944 0.188716)
(-0.00029853 0.000521687 0.181951)
(-5.86482e-05 0.000497853 0.180418)
(-4.1189e-05 0.000579992 0.178313)
(-7.00184e-06 0.000551418 0.178264)
(2.06406e-05 0.000580904 0.178101)
(5.16532e-05 0.000499201 0.180109)
(0.000286847 0.000522553 0.181571)
(0.000394098 0.000181664 0.188174)
(0.00120872 0.000420944 0.188176)
(0.00214861 -0.00235616 0.204202)
(-0.00252759 0.000209833 0.190761)
(3.29691e-05 0.00755366 0.146859)
(0.00316084 0.000319596 0.195453)
(-0.00201109 -0.00226121 0.20889)
(-0.00111481 0.000515779 0.194772)
(-0.000383941 0.000274792 0.194723)
(-0.000298542 0.000634123 0.188522)
(-6.89644e-05 0.000610871 0.187045)
(-4.34751e-05 0.000697698 0.185014)
(-5.81999e-06 0.000668244 0.184952)
(2.53204e-05 0.000698841 0.1848)
(6.37478e-05 0.000612567 0.186728)
(0.000288279 0.000635319 0.188134)
(0.000404097 0.000277473 0.19418)
(0.00114987 0.000517023 0.194343)
(0.00207214 -0.00225961 0.208513)
(-0.00307641 0.00031058 0.195444)
(3.19819e-05 0.00772862 0.154351)
(0.00360234 0.000418813 0.199847)
(-0.00193262 -0.00215984 0.212902)
(-0.00105866 0.000610404 0.200579)
(-0.000389851 0.000368824 0.200373)
(-0.000295714 0.000746676 0.194774)
(-7.63519e-05 0.000724302 0.193364)
(-4.44615e-05 0.000816067 0.191429)
(-4.54167e-06 0.000785733 0.191353)
(2.88942e-05 0.000817452 0.191213)
(7.30747e-05 0.000726353 0.193042)
(0.000287049 0.00074821 0.19438)
(0.000410285 0.000372003 0.199833)
(0.00109353 0.00061185 0.200149)
(0.0019931 -0.00215793 0.212544)
(-0.00351981 0.000409575 0.199822)
(3.10481e-05 0.00789732 0.161502)
(0.00394674 0.000515805 0.203947)
(-0.00185318 -0.00205457 0.216657)
(-0.00100475 0.000702297 0.206012)
(-0.00039225 0.000460242 0.20566)
(-0.000290318 0.000857978 0.200676)
(-8.10249e-05 0.00083685 0.199341)
(-4.426e-05 0.000933932 0.197522)
(-3.18526e-06 0.000902705 0.19743)
(3.14369e-05 0.000935572 0.197306)
(7.98217e-05 0.000839272 0.199015)
(0.000283407 0.000859874 0.200279)
(0.000413051 0.000463994 0.205127)
(0.00103942 0.000703997 0.205585)
(0.00191295 -0.00205228 0.216318)
(-0.00386631 0.000506361 0.203907)
(3.01682e-05 0.0080582 0.168294)
(0.00420353 0.000610679 0.207766)
(-0.00177393 -0.00194664 0.220171)
(-0.000952682 0.000790104 0.21107)
(-0.000391529 0.000547788 0.210584)
(-0.000282682 0.0009663 0.206199)
(-8.32696e-05 0.000946818 0.204942)
(-4.30202e-05 0.00104969 0.203255)
(-1.77485e-06 0.00101755 0.203147)
(3.30497e-05 0.0010516 0.20304)
(8.4238e-05 0.000949641 0.204615)
(0.000277643 0.000968607 0.205802)
(0.000412777 0.000552221 0.210062)
(0.000987153 0.000792145 0.210649)
(0.00183291 -0.00194391 0.219853)
(-0.00412532 0.000601066 0.207714)
(2.93418e-05 0.00821078 0.174694)
(0.00438287 0.000703337 0.21132)
(-0.00169601 -0.001837 0.22346)
(-0.000902029 0.00087271 0.215761)
(-0.000388062 0.000630472 0.215152)
(-0.000273142 0.00106979 0.211327)
(-8.34149e-05 0.00105227 0.210147)
(-4.09161e-05 0.0011614 0.208599)
(-3.38242e-07 0.00112834 0.208474)
(3.38511e-05 0.00116361 0.208386)
(8.66086e-05 0.00105555 0.209822)
(0.000270051 0.00107259 0.210934)
(0.000409819 0.000635705 0.214645)
(0.000936328 0.000875191 0.215349)
(0.00175412 -0.00183378 0.223161)
(-0.00430695 0.000693617 0.21126)
(2.85675e-05 0.00835188 0.180655)
(0.00449549 0.000793673 0.214627)
(-0.00162052 -0.00172636 0.226537)
(-0.000852388 0.000949366 0.220099)
(-0.000382216 0.000707573 0.219378)
(-0.000262013 0.00116693 0.216059)
(-8.17915e-05 0.00115156 0.21495)
(-3.81235e-05 0.0012672 0.21354)
(1.09571e-06 0.00123324 0.213399)
(3.39602e-05 0.00126974 0.21333)
(8.72192e-05 0.00115537 0.214628)
(0.000260902 0.00117032 0.215671)
(0.000404529 0.000713715 0.218888)
(0.000886547 0.000952379 0.219698)
(0.0016777 -0.00172262 0.226258)
(-0.0044219 0.000783921 0.214561)
(2.78423e-05 0.00848012 0.186121)
(0.00455292 0.000881715 0.217705)
(-0.00154863 -0.0016153 0.229417)
(-0.000803437 0.00101966 0.2241)
(-0.000374364 0.000778752 0.223279)
(-0.0002496 0.0012566 0.220402)
(-7.87234e-05 0.00124343 0.219357)
(-3.481e-05 0.00136563 0.218079)
(2.50016e-06 0.00133082 0.217924)
(3.34925e-05 0.00136853 0.217874)
(8.63523e-05 0.00124784 0.219041)
(0.000250461 0.00126067 0.220023)
(0.000397254 0.000785876 0.222806)
(0.000837489 0.00102327 0.223711)
(0.00160485 -0.00161103 0.229155)
(-0.00448163 0.000872011 0.217634)
(2.71633e-05 0.00859918 0.19107)
(0.00456786 0.000967398 0.220573)
(-0.00148151 -0.00150452 0.232113)
(-0.000755 0.0010834 0.227784)
(-0.000364872 0.000843874 0.226875)
(-0.00023621 0.0013383 0.224374)
(-7.45306e-05 0.00132729 0.223383)
(-3.11355e-05 0.00145583 0.222227)
(3.85144e-06 0.00142025 0.222059)
(3.25628e-05 0.00145913 0.222028)
(8.42916e-05 0.00133236 0.223074)
(0.000238998 0.00134311 0.224003)
(0.000388342 0.000852014 0.226419)
(0.000788974 0.00108764 0.227407)
(0.00153674 -0.00149972 0.231866)
(-0.00449882 0.000957821 0.2205)
(2.65338e-05 0.00870755 0.195541)
(0.00455211 0.00105128 0.223252)
(-0.00141968 -0.00139454 0.234647)
(-0.000707091 0.00114058 0.231169)
(-0.000354109 0.000902992 0.230183)
(-0.000222167 0.00141192 0.227993)
(-6.95266e-05 0.00140298 0.227047)
(-2.72528e-05 0.00153752 0.226002)
(5.12865e-06 0.00150124 0.225822)
(3.12851e-05 0.00154125 0.225808)
(8.13182e-05 0.00140875 0.226746)
(0.000226803 0.00141751 0.227632)
(0.000378144 0.000912149 0.229744)
(0.00074101 0.00114546 0.230804)
(0.0014739 -0.00138924 0.234414)
(-0.00448514 0.00104191 0.223178)
(2.59646e-05 0.00879854 0.199629)
(0.00451328 0.00113417 0.225768)
(-0.00136258 -0.00128538 0.237046)
(-0.000659931 0.00119146 0.234275)
(-0.000342468 0.000956354 0.233223)
(-0.000207822 0.00147764 0.231282)
(-6.40189e-05 0.00147065 0.23037)
(-2.33086e-05 0.00161079 0.229423)
(6.31358e-06 0.0015739 0.229232)
(2.97723e-05 0.00161496 0.229234)
(7.77122e-05 0.00147714 0.230077)
(0.000214202 0.00148402 0.230931)
(0.000367038 0.000966511 0.232799)
(0.000693812 0.00119696 0.233921)
(0.00141577 -0.0012796 0.236825)
(-0.00444819 0.00112503 0.225695)
(2.54653e-05 0.00886456 0.203414)
(0.00445454 0.00121554 0.228148)
(-0.00130902 -0.0011771 0.239329)
(-0.000614012 0.00123644 0.237119)
(-0.000330416 0.00100432 0.236011)
(-0.000193582 0.00153586 0.234265)
(-5.83165e-05 0.00153072 0.233377)
(-1.94451e-05 0.001676 0.232512)
(7.39078e-06 0.00163856 0.232313)
(2.81373e-05 0.00168061 0.23233)
(7.37591e-05 0.00153794 0.233092)
(0.000201579 0.00154305 0.233922)
(0.000355479 0.00101544 0.235601)
(0.000647862 0.00124255 0.236774)
(0.00136116 -0.00117089 0.239117)
(-0.00439117 0.00120662 0.228076)
(2.50369e-05 0.00890677 0.206942)
(0.00437596 0.00129497 0.230409)
(-0.00125787 -0.00107011 0.241506)
(-0.000569931 0.00127585 0.239721)
(-0.000318452 0.00104719 0.238565)
(-0.000179893 0.00158706 0.236966)
(-5.27229e-05 0.00158365 0.236095)
(-1.57965e-05 0.00173364 0.235297)
(8.34805e-06 0.00169571 0.235091)
(2.64913e-05 0.00173868 0.235121)
(6.97438e-05 0.00159158 0.235818)
(0.000189362 0.00159504 0.236632)
(0.000343958 0.00105925 0.238167)
(0.000603758 0.00128254 0.239384)
(0.00130896 -0.00106351 0.241301)
(-0.00431416 0.00128627 0.230338)
(2.46721e-05 0.00893425 0.210239)
(0.00427756 0.00137282 0.232564)
(-0.00120825 -0.00096475 0.243583)
(-0.000527752 0.00131015 0.242114)
(-0.000306833 0.00108554 0.240924)
(-0.000167032 0.00163184 0.239427)
(-4.74479e-05 0.00163004 0.238565)
(-1.24521e-05 0.00178424 0.237818)
(9.17943e-06 0.0017459 0.237606)
(2.49115e-05 0.0017897 0.237646)
(6.58664e-05 0.00163868 0.238295)
(0.000177816 0.0016406 0.239099)
(0.000332733 0.00109848 0.240534)
(0.000561573 0.0013174 0.241782)
(0.0012583 -0.000957814 0.243382)
(-0.00421729 0.00136436 0.232493)
(2.43617e-05 0.00894739 0.213327)
(0.00416222 0.00144932 0.234622)
(-0.00115945 -0.000861338 0.245568)
(-0.000486935 0.00134009 0.244341)
(-0.000295545 0.00112008 0.243129)
(-0.000154927 0.00167114 0.241702)
(-4.25346e-05 0.00167087 0.240845)
(-9.39953e-06 0.00182886 0.240134)
(9.89293e-06 0.00179016 0.239919)
(2.34008e-05 0.00183472 0.239967)
(6.21831e-05 0.0016802 0.24058)
(0.000166885 0.00168065 0.24138)
(0.000321796 0.00113386 0.242745)
(0.000520768 0.00134786 0.244012)
(0.0012085 -0.000854126 0.245369)
(-0.00410345 0.00144112 0.234552)
(2.41002e-05 0.00894226 0.216227)
(0.00403479 0.00152449 0.236593)
(-0.00111078 -0.000760166 0.247466)
(-0.000447097 0.00136631 0.246432)
(-0.000284532 0.00115131 0.24521)
(-0.000143442 0.00170569 0.243832)
(-3.79732e-05 0.0017069 0.242977)
(-6.59984e-06 0.00186835 0.242294)
(1.05048e-05 0.0018293 0.242076)
(2.19458e-05 0.00187458 0.242131)
(5.87059e-05 0.00171688 0.242716)
(0.000156457 0.00171591 0.243513)
(0.000311097 0.00116588 0.244828)
(0.000480955 0.00137457 0.246105)
(0.00115889 -0.000752724 0.247268)
(-0.00397741 0.00151656 0.236522)
(2.38854e-05 0.00891915 0.218962)
(0.00390042 0.00159832 0.238482)
(-0.00106163 -0.000661452 0.249283)
(-0.000408172 0.00138926 0.248403)
(-0.000273788 0.00117966 0.247179)
(-0.00013255 0.00173599 0.245835)
(-3.37737e-05 0.00173863 0.24498)
(-4.04272e-06 0.0019032 0.24432)
(1.10267e-05 0.00186385 0.244099)
(2.05549e-05 0.0019098 0.244159)
(5.54591e-05 0.00174925 0.244723)
(0.000146514 0.00174693 0.245518)
(0.000300634 0.001195 0.2468)
(0.000442064 0.00139801 0.248076)
(0.00110887 -0.000653822 0.249084)
(-0.00384429 0.00159069 0.238412)
(2.37154e-05 0.00887947 0.221558)
(0.00376371 0.00167078 0.240297)
(-0.0010115 -0.000565316 0.251023)
(-0.000370142 0.00140945 0.250268)
(-0.000263314 0.00120564 0.249051)
(-0.000122233 0.00176275 0.247727)
(-2.99435e-05 0.00176679 0.246871)
(-1.71857e-06 0.00193415 0.246229)
(1.14652e-05 0.00189452 0.246006)
(1.92337e-05 0.00194109 0.246071)
(5.24604e-05 0.00177801 0.246617)
(0.000137047 0.00177437 0.247413)
(0.000290411 0.00122172 0.248674)
(0.000404076 0.00141867 0.249941)
(0.00105793 -0.000557531 0.250823)
(-0.00370869 0.00166344 0.240225)
(2.35881e-05 0.00882439 0.224037)
(0.00362807 0.00174181 0.242042)
(-0.000960016 -0.000471803 0.25269)
(-0.000333017 0.00142735 0.25204)
(-0.000253095 0.00122969 0.250837)
(-0.000112472 0.00178658 0.249525)
(-2.64828e-05 0.00179199 0.248667)
(3.84445e-07 0.00196184 0.248038)
(1.18256e-05 0.00192196 0.247813)
(1.79825e-05 0.0019691 0.247881)
(4.97181e-05 0.0018038 0.248415)
(0.000128043 0.00179886 0.249212)
(0.000280414 0.00124648 0.250461)
(0.000366996 0.00143704 0.251713)
(0.0010057 -0.000463886 0.252488)
(-0.00357402 0.00173477 0.24197)
(2.3501e-05 0.00875543 0.226422)
(0.0034957 0.00181137 0.243724)
(-0.000906906 -0.000380913 0.254288)
(-0.00029678 0.00144342 0.25373)
(-0.000243091 0.00125223 0.252547)
(-0.000103223 0.001808 0.251239)
(-2.33781e-05 0.00181474 0.25038)
(2.28269e-06 0.00198677 0.24976)
(1.21136e-05 0.00194667 0.249534)
(1.67961e-05 0.00199434 0.249605)
(4.72273e-05 0.00182712 0.25013)
(0.000119466 0.00182092 0.250928)
(0.000270606 0.0012697 0.252172)
(0.000330807 0.00145356 0.253403)
(0.000951909 -0.000372878 0.254084)
(-0.00344249 0.00180461 0.24365)
(2.34515e-05 0.00867478 0.228734)
(0.00336809 0.00187934 0.245347)
(-0.00085201 -0.000292616 0.255822)
(-0.000261393 0.00145807 0.255348)
(-0.000233247 0.00127363 0.25419)
(-9.44299e-05 0.00182744 0.252881)
(-2.06084e-05 0.00183546 0.25202)
(3.99427e-06 0.00200939 0.251407)
(1.23352e-05 0.0019691 0.251181)
(1.56679e-05 0.00201725 0.251254)
(4.49759e-05 0.00184839 0.251773)
(0.000111268 0.00184099 0.252571)
(0.000260937 0.00129177 0.253816)
(0.000295471 0.00146866 0.25502)
(0.000896404 -0.000284475 0.255615)
(-0.00331559 0.00187286 0.245271)
(2.34381e-05 0.00858509 0.23099)
(0.00324651 0.00194566 0.246915)
(-0.000795257 -0.000206861 0.257294)
(-0.0002268 0.00147171 0.256902)
(-0.000223503 0.00129421 0.255771)
(-8.60356e-05 0.00184524 0.254459)
(-1.81489e-05 0.00185448 0.253597)
(5.53805e-06 0.00203005 0.252989)
(1.24965e-05 0.00198959 0.252763)
(1.45895e-05 0.00203819 0.252837)
(4.29467e-05 0.00186794 0.253351)
(0.000103399 0.00185939 0.25415)
(0.000251349 0.00131298 0.255398)
(0.000260933 0.00148274 0.256573)
(0.000839112 -0.00019862 0.257084)
(-0.00319457 0.00193945 0.246837)
(2.34605e-05 0.00848904 0.233198)
(0.00313234 0.00201016 0.248433)
(-0.000736678 -0.000123571 0.258707)
(-0.000192939 0.0014847 0.258398)
(-0.0002138 0.0013142 0.257297)
(-7.79832e-05 0.00186167 0.25598)
(-1.59719e-05 0.0018721 0.255118)
(6.93295e-06 0.00204907 0.254513)
(1.26032e-05 0.00200847 0.254288)
(1.35511e-05 0.00205748 0.254363)
(4.11179e-05 0.00188608 0.254873)
(9.58086e-05 0.00187642 0.255672)
(0.000241787 0.00133359 0.256924)
(0.000227132 0.00149615 0.258067)
(0.000780062 -0.000115233 0.258494)
(-0.00308081 0.00200421 0.248353)
(2.35184e-05 0.00838874 0.235362)
(0.00302663 0.00207266 0.249904)
(-0.000676425 -4.26396e-05 0.260065)