0 	0 	0 	0
5.01672e-05 	-2.18002e-05 	-4.44638e-06 	0.0203389
0.000100334 	-4.36003e-05 	-8.89276e-06 	0.0406778
0.000150502 	-6.54005e-05 	-1.33391e-05 	0.0610167
0.000200669 	-8.72006e-05 	-1.77855e-05 	0.0813556
0.000250836 	-0.000109001 	-2.22319e-05 	0.101694
0.000301003 	-0.000130801 	-2.66783e-05 	0.122033
0.000351171 	-0.000150616 	-3.18314e-05 	0.140266
0.000401338 	-0.000162924 	-3.9657e-05 	0.150532
0.000451505 	-0.000175233 	-4.74825e-05 	0.160798
0.000501672 	-0.000187541 	-5.53081e-05 	0.171064
0.000551839 	-0.00019985 	-6.31337e-05 	0.18133
0.000602007 	-0.000212158 	-7.09592e-05 	0.191596
0.000652174 	-0.000224467 	-7.87848e-05 	0.201862
0.000702341 	-0.000236775 	-8.66104e-05 	0.212128
0.000752508 	-0.000246353 	-9.46639e-05 	0.220963
0.000802676 	-0.000249161 	-0.000103283 	0.22625
0.000852843 	-0.000251969 	-0.000111901 	0.231536
0.00090301 	-0.000254777 	-0.00012052 	0.236823
0.000953177 	-0.000257585 	-0.000129139 	0.24211
0.00100334 	-0.000260393 	-0.000137757 	0.247396
0.00105351 	-0.000263201 	-0.000146376 	0.252683
0.00110368 	-0.000266009 	-0.000154995 	0.257969
0.00115385 	-0.000268817 	-0.000163613 	0.263256
0.00120401 	-0.000271428 	-0.000172191 	0.268437
0.00125418 	-0.000269992 	-0.000179932 	0.271451
0.00130435 	-0.000268557 	-0.000187672 	0.274465
0.00135452 	-0.000267121 	-0.000195413 	0.277479
0.00140468 	-0.000265686 	-0.000203153 	0.280493
0.00145485 	-0.000264251 	-0.000210893 	0.283507
0.00150502 	-0.000262815 	-0.000218634 	0.286521
0.00155518 	-0.00026138 	-0.000226374 	0.289534
0.00160535 	-0.000259945 	-0.000234114 	0.292548
0.00165552 	-0.000258509 	-0.000241855 	0.295562
0.00170569 	-0.000257074 	-0.000249595 	0.298576
0.00175585 	-0.000255386 	-0.000256937 	0.301301
0.00180602 	-0.000253002 	-0.000263181 	0.303232
0.00185619 	-0.000250618 	-0.000269425 	0.305162
0.00190635 	-0.000248235 	-0.000275669 	0.307093
0.00195652 	-0.000245851 	-0.000281913 	0.309023
0.00200669 	-0.000243467 	-0.000288157 	0.310954
0.00205686 	-0.000241084 	-0.000294401 	0.312884
0.00210702 	-0.0002387 	-0.000300645 	0.314814
0.00215719 	-0.000236316 	-0.00030689 	0.316745
0.00220736 	-0.000233933 	-0.000313134 	0.318675
0.00225753 	-0.000231549 	-0.000319378 	0.320606
0.00230769 	-0.000229165 	-0.000325622 	0.322536
0.00235786 	-0.000226782 	-0.000331866 	0.324467
0.00240803 	-0.000224633 	-0.000336957 	0.325964
0.00245819 	-0.00022259 	-0.000341535 	0.327269
0.00250836 	-0.000220547 	-0.000346113 	0.328574
0.00255853 	-0.000218504 	-0.000350691 	0.329878
0.0026087 	-0.000216461 	-0.000355268 	0.331183
0.00265886 	-0.000214418 	-0.000359846 	0.332488
0.00270903 	-0.000212375 	-0.000364424 	0.333793
0.0027592 	-0.000210332 	-0.000369002 	0.335097
0.00280936 	-0.000208289 	-0.000373579 	0.336402
0.00285953 	-0.000206246 	-0.000378157 	0.337707
0.0029097 	-0.000204203 	-0.000382735 	0.339011
0.00295987 	-0.00020216 	-0.000387312 	0.340316
0.00301003 	-0.000200117 	-0.00039189 	0.341621
0.0030602 	-0.000198074 	-0.000396468 	0.342926
0.00311037 	-0.000196044 	-0.000401015 	0.344221
0.00316054 	-0.000194613 	-0.000404256 	0.345097
0.0032107 	-0.000193182 	-0.000407496 	0.345974
0.00326087 	-0.000191751 	-0.000410737 	0.34685
0.00331104 	-0.000190319 	-0.000413977 	0.347727
0.0033612 	-0.000188888 	-0.000417218 	0.348603
0.00341137 	-0.000187457 	-0.000420458 	0.34948
0.00346154 	-0.000186026 	-0.000423699 	0.350357
0.00351171 	-0.000184594 	-0.000426939 	0.351233
0.00356187 	-0.000183163 	-0.00043018 	0.35211
0.00361204 	-0.000181732 	-0.00043342 	0.352986
0.00366221 	-0.0001803 	-0.00043666 	0.353863
0.00371237 	-0.000178869 	-0.000439901 	0.354739
0.00376254 	-0.000177438 	-0.000443141 	0.355616
0.00381271 	-0.000176007 	-0.000446382 	0.356492
0.00386288 	-0.000174575 	-0.000449622 	0.357369
0.00391304 	-0.000173144 	-0.000452863 	0.358246
0.00396321 	-0.000171713 	-0.000456103 	0.359122
0.00401338 	-0.000170681 	-0.000458501 	0.359701
0.00406355 	-0.000169689 	-0.000460817 	0.360251
0.00411371 	-0.000168696 	-0.000463132 	0.360801
0.00416388 	-0.000167704 	-0.000465448 	0.36135
0.00421405 	-0.000166711 	-0.000467763 	0.3619
0.00426421 	-0.000165719 	-0.000470079 	0.36245
0.00431438 	-0.000164726 	-0.000472394 	0.363
0.00436455 	-0.000163734 	-0.00047471 	0.36355
0.00441472 	-0.000162742 	-0.000477025 	0.364099
0.00446488 	-0.000161749 	-0.000479341 	0.364649
0.00451505 	-0.000160757 	-0.000481656 	0.365199
0.00456522 	-0.000159764 	-0.000483972 	0.365749
0.00461538 	-0.000158772 	-0.000486287 	0.366298
0.00466555 	-0.000157779 	-0.000488603 	0.366848
0.00471572 	-0.000156787 	-0.000490918 	0.367398
0.00476589 	-0.000155794 	-0.000493234 	0.367948
0.00481605 	-0.000154802 	-0.000495549 	0.368498
0.00486622 	-0.00015381 	-0.000497864 	0.369047
0.00491639 	-0.000152817 	-0.00050018 	0.369597
0.00496656 	-0.000151825 	-0.000502495 	0.370147
0.00501672 	-0.000151037 	-0.000504094 	0.370448
0.00506689 	-0.000150261 	-0.000505654 	0.370735
0.00511706 	-0.000149485 	-0.000507214 	0.371022
0.00516722 	-0.000148708 	-0.000508774 	0.371309
0.00521739 	-0.000147932 	-0.000510334 	0.371597
0.00526756 	-0.000147156 	-0.000511894 	0.371884
0.00531773 	-0.000146379 	-0.000513454 	0.372171
0.00536789 	-0.000145603 	-0.000515014 	0.372458
0.00541806 	-0.000144827 	-0.000516574 	0.372746
0.00546823 	-0.00014405 	-0.000518134 	0.373033
0.00551839 	-0.000143274 	-0.000519694 	0.37332
0.00556856 	-0.000142498 	-0.000521254 	0.373608
0.00561873 	-0.000141721 	-0.000522814 	0.373895
0.0056689 	-0.000140945 	-0.000524374 	0.374182
0.00571906 	-0.000140169 	-0.000525934 	0.374469
0.00576923 	-0.000139392 	-0.000527494 	0.374757
0.0058194 	-0.000138616 	-0.000529054 	0.375044
0.00586957 	-0.00013784 	-0.000530614 	0.375331
0.00591973 	-0.000137063 	-0.000532174 	0.375619
0.0059699 	-0.000136287 	-0.000533734 	0.375906
0.00602007 	-0.000135511 	-0.000535294 	0.376193
0.00607023 	-0.000134734 	-0.000536854 	0.37648
0.0061204 	-0.000133958 	-0.000538414 	0.376768
0.00617057 	-0.000133279 	-0.00053946 	0.376909
0.00622074 	-0.000132648 	-0.000540245 	0.376976
0.0062709 	-0.000132018 	-0.00054103 	0.377043
0.00632107 	-0.000131388 	-0.000541815 	0.37711
0.00637124 	-0.000130758 	-0.000542599 	0.377177
0.0064214 	-0.000130127 	-0.000543384 	0.377244
0.00647157 	-0.000129497 	-0.000544169 	0.377311
0.00652174 	-0.000128867 	-0.000544954 	0.377378
0.00657191 	-0.000128236 	-0.000545739 	0.377445
0.00662207 	-0.000127606 	-0.000546524 	0.377512
0.00667224 	-0.000126976 	-0.000547309 	0.377579
0.00672241 	-0.000126346 	-0.000548094 	0.377646
0.00677258 	-0.000125715 	-0.000548879 	0.377713
0.00682274 	-0.000125085 	-0.000549664 	0.37778
0.00687291 	-0.000124455 	-0.000550449 	0.377847
0.00692308 	-0.000123825 	-0.000551234 	0.377914
0.00697324 	-0.000123194 	-0.000552019 	0.377981
0.00702341 	-0.000122564 	-0.000552804 	0.378048
0.00707358 	-0.000121934 	-0.000553589 	0.378115
0.00712375 	-0.000121303 	-0.000554374 	0.378182
0.00717391 	-0.000120673 	-0.000555159 	0.378249
0.00722408 	-0.000120043 	-0.000555943 	0.378316
0.00727425 	-0.000119413 	-0.000556728 	0.378383
0.00732441 	-0.000118782 	-0.000557513 	0.37845
0.00737458 	-0.000118152 	-0.000558298 	0.378517
0.00742475 	-0.000117522 	-0.000559083 	0.378584
0.00747492 	-0.000116891 	-0.000559868 	0.378651
0.00752508 	-0.000116319 	-0.000560269 	0.378619
0.00757525 	-0.000115803 	-0.000560285 	0.378488
0.00762542 	-0.000115288 	-0.000560302 	0.378356
0.00767559 	-0.000114772 	-0.000560318 	0.378225
0.00772575 	-0.000114256 	-0.000560335 	0.378094
0.00777592 	-0.000113741 	-0.000560351 	0.377963
0.00782609 	-0.000113225 	-0.000560367 	0.377832
0.00787625 	-0.00011271 	-0.000560384 	0.377701
0.00792642 	-0.000112194 	-0.0005604 	0.377569
0.00797659 	-0.000111679 	-0.000560417 	0.377438
0.00802676 	-0.000111163 	-0.000560433 	0.377307
0.00807692 	-0.000110648 	-0.000560449 	0.377176
0.00812709 	-0.000110132 	-0.000560466 	0.377045
0.00817726 	-0.000109617 	-0.000560482 	0.376913
0.00822742 	-0.000109101 	-0.000560499 	0.376782
0.00827759 	-0.000108586 	-0.000560515 	0.376651
0.00832776 	-0.00010807 	-0.000560532 	0.37652
0.00837793 	-0.000107555 	-0.000560548 	0.376389
0.00842809 	-0.000107039 	-0.000560564 	0.376258
0.00847826 	-0.000106524 	-0.000560581 	0.376126
0.00852843 	-0.000106008 	-0.000560597 	0.375995
0.0085786 	-0.000105493 	-0.000560614 	0.375864
0.00862876 	-0.000104977 	-0.00056063 	0.375733
0.00867893 	-0.000104462 	-0.000560646 	0.375602
0.0087291 	-0.000103946 	-0.000560663 	0.37547
0.00877926 	-0.000103431 	-0.000560679 	0.375339
0.00882943 	-0.000102915 	-0.000560696 	0.375208
0.0088796 	-0.000102453 	-0.000560396 	0.374996
0.00892977 	-0.000102097 	-0.000559473 	0.374625
0.00897993 	-0.000101741 	-0.000558549 	0.374254
0.0090301 	-0.000101384 	-0.000557626 	0.373883
0.00908027 	-0.000101028 	-0.000556703 	0.373512
0.00913043 	-0.000100672 	-0.00055578 	0.373141
0.0091806 	-0.000100315 	-0.000554857 	0.37277
0.00923077 	-9.99591e-05 	-0.000553933 	0.372399
0.00928094 	-9.96028e-05 	-0.00055301 	0.372028
0.0093311 	-9.92466e-05 	-0.000552087 	0.371657
0.00938127 	-9.88903e-05 	-0.000551164 	0.371286
0.00943144 	-9.8534e-05 	-0.00055024 	0.370915
0.00948161 	-9.81777e-05 	-0.000549317 	0.370544
0.00953177 	-9.78214e-05 	-0.000548394 	0.370173
0.00958194 	-9.74652e-05 	-0.000547471 	0.369802
0.00963211 	-9.71089e-05 	-0.000546548 	0.369431
0.00968227 	-9.67526e-05 	-0.000545624 	0.36906
0.00973244 	-9.63963e-05 	-0.000544701 	0.368689
0.00978261 	-9.604e-05 	-0.000543778 	0.368318
0.00983278 	-9.56837e-05 	-0.000542855 	0.367947
0.00988294 	-9.53275e-05 	-0.000541931 	0.367576
0.00993311 	-9.49712e-05 	-0.000541008 	0.367205
0.00998328 	-9.46149e-05 	-0.000540085 	0.366834
0.0100334 	-9.42761e-05 	-0.000539106 	0.366449
0.0100836 	-9.42631e-05 	-0.000537082 	0.365794
0.0101338 	-9.42501e-05 	-0.000535057 	0.36514
0.0101839 	-9.4237e-05 	-0.000533033 	0.364485
0.0102341 	-9.4224e-05 	-0.000531009 	0.363831
0.0102843 	-9.4211e-05 	-0.000528985 	0.363176
0.0103344 	-9.4198e-05 	-0.000526961 	0.362522
0.0103846 	-9.4185e-05 	-0.000524937 	0.361867
0.0104348 	-9.4172e-05 	-0.000522913 	0.361213
0.0104849 	-9.4159e-05 	-0.000520888 	0.360558
0.0105351 	-9.4146e-05 	-0.000518864 	0.359904
0.0105853 	-9.4133e-05 	-0.00051684 	0.359249
0.0106355 	-9.412e-05 	-0.000514816 	0.358595
0.0106856 	-9.4107e-05 	-0.000512792 	0.35794
0.0107358 	-9.40939e-05 	-0.000510768 	0.357286
0.010786 	-9.40809e-05 	-0.000508743 	0.356631
0.0108361 	-9.40679e-05 	-0.000506719 	0.355977
0.0108863 	-9.40549e-05 	-0.000504695 	0.355322
0.0109365 	-9.40419e-05 	-0.000502671 	0.354668
0.0109866 	-9.40289e-05 	-0.000500647 	0.354013
0.0110368 	-9.40708e-05 	-0.00049848 	0.353326
0.011087 	-9.46725e-05 	-0.000494863 	0.352305
0.0111371 	-9.52742e-05 	-0.000491246 	0.351283
0.0111873 	-9.58759e-05 	-0.000487629 	0.350262
0.0112375 	-9.64776e-05 	-0.000484011 	0.34924
0.0112876 	-9.70794e-05 	-0.000480394 	0.348219
0.0113378 	-9.76811e-05 	-0.000476777 	0.347197
0.011388 	-9.82828e-05 	-0.00047316 	0.346176
0.0114381 	-9.88845e-05 	-0.000469542 	0.345154
0.0114883 	-9.94862e-05 	-0.000465925 	0.344133
0.0115385 	-0.000100088 	-0.000462308 	0.343111
0.0115886 	-0.00010069 	-0.000458691 	0.34209
0.0116388 	-0.000101291 	-0.000455074 	0.341068
0.011689 	-0.000101893 	-0.000451456 	0.340047
0.0117391 	-0.000102495 	-0.000447839 	0.339025
0.0117893 	-0.000103096 	-0.000444222 	0.338004
0.0118395 	-0.000103698 	-0.000440605 	0.336982
0.0118896 	-0.0001043 	-0.000436987 	0.335961
0.0119398 	-0.000105771 	-0.000430883 	0.334402
0.01199 	-0.000107262 	-0.000424721 	0.332832
0.0120401 	-0.000108753 	-0.000418559 	0.331261
0.0120903 	-0.000110244 	-0.000412398 	0.32969
0.0121405 	-0.000111736 	-0.000406236 	0.32812
0.0121906 	-0.000113227 	-0.000400074 	0.326549
0.0122408 	-0.000114718 	-0.000393912 	0.324978
0.012291 	-0.000116209 	-0.000387751 	0.323408
0.0123411 	-0.0001177 	-0.000381589 	0.321837
0.0123913 	-0.000119191 	-0.000375427 	0.320267
0.0124415 	-0.000120682 	-0.000369265 	0.318696
0.0124916 	-0.000122174 	-0.000363103 	0.317125
0.0125418 	-0.000123665 	-0.000356942 	0.315555
0.012592 	-0.000125156 	-0.00035078 	0.313984
0.0126421 	-0.000126897 	-0.000343656 	0.312129
0.0126923 	-0.000129199 	-0.000334374 	0.309638
0.0127425 	-0.000131501 	-0.000325093 	0.307147
0.0127926 	-0.000133803 	-0.000315811 	0.304655
0.0128428 	-0.000136104 	-0.00030653 	0.302164
0.012893 	-0.000138406 	-0.000297248 	0.299673
0.0129431 	-0.000140708 	-0.000287966 	0.297181
0.0129933 	-0.00014301 	-0.000278685 	0.29469
0.0130435 	-0.000145312 	-0.000269403 	0.292198
0.0130936 	-0.000147614 	-0.000260122 	0.289707
0.0131438 	-0.000149915 	-0.00025084 	0.287216
0.013194 	-0.000152217 	-0.000241558 	0.284724
0.0132441 	-0.000154519 	-0.000232277 	0.282233
0.0132943 	-0.000156519 	-0.000221403 	0.278529
0.0133445 	-0.00015841 	-0.00020995 	0.274385
0.0133946 	-0.0001603 	-0.000198498 	0.27024
0.0134448 	-0.00016219 	-0.000187045 	0.266095
0.013495 	-0.00016408 	-0.000175592 	0.261951
0.0135452 	-0.000165971 	-0.00016414 	0.257806
0.0135953 	-0.000167861 	-0.000152687 	0.253661
0.0136455 	-0.000169751 	-0.000141234 	0.249517
0.0136957 	-0.000171642 	-0.000129781 	0.245372
0.0137458 	-0.000173532 	-0.000118329 	0.241227
0.013796 	-0.000175422 	-0.000106876 	0.237083
0.0138462 	-0.000173426 	-9.70386e-05 	0.229645
0.0138963 	-0.00017124 	-8.72799e-05 	0.222047
0.0139465 	-0.000169055 	-7.75211e-05 	0.214449
0.0139967 	-0.000166869 	-6.77624e-05 	0.20685
0.0140468 	-0.000164683 	-5.80036e-05 	0.199252
0.014097 	-0.000162498 	-4.82448e-05 	0.191654
0.0141472 	-0.000160312 	-3.84861e-05 	0.184056
0.0141973 	-0.000158126 	-2.87273e-05 	0.176458
0.0142475 	-0.00015594 	-1.89686e-05 	0.16886
0.0142977 	-0.000148521 	-1.3852e-05 	0.158315
0.0143478 	-0.000138991 	-1.06076e-05 	0.146583
0.014398 	-0.000129461 	-7.36327e-06 	0.13485
0.0144482 	-0.000119932 	-4.11892e-06 	0.123118
0.0144983 	-0.000110402 	-8.74566e-07 	0.111385
0.0145485 	-0.000100872 	2.36979e-06 	0.0996529
0.0145987 	-9.13418e-05 	5.61414e-06 	0.0879205
0.0146488 	-8.18118e-05 	8.85849e-06 	0.076188
0.014699 	-7.05231e-05 	8.42633e-06 	0.0651472
0.0147492 	-5.87693e-05 	7.02194e-06 	0.0542894
0.0147993 	-4.70154e-05 	5.61755e-06 	0.0434315
0.0148495 	-3.52616e-05 	4.21316e-06 	0.0325736
0.0148997 	-2.35077e-05 	2.80878e-06 	0.0217157
0.0149498 	-1.17539e-05 	1.40439e-06 	0.0108579
0.015 	0 	0 	0
