
400
(
1.53751e-08
3.22257e-08
2.74957e-08
1.18931e-08
1.50995e-07
1.48502e-07
5.99122e-07
6.10665e-07
1.72257e-06
1.77427e-06
3.87747e-06
4.0238e-06
7.33678e-06
7.66387e-06
1.22232e-05
1.28395e-05
1.85039e-05
1.95192e-05
2.60336e-05
2.75347e-05
3.46164e-05
3.66483e-05
4.40575e-05
4.6615e-05
5.41949e-05
5.72246e-05
6.4911e-05
6.83183e-05
7.61336e-05
7.97924e-05
8.78305e-05
9.15909e-05
9.99907e-05
0.000103688
0.000112605
0.000116063
0.000125661
0.000128694
0.000139141
0.000141559
0.000153025
0.00015464
0.000167287
0.000167934
0.000181898
0.000181444
0.000196827
0.000195169
0.000212041
0.000209098
0.000227496
0.000223196
0.000243132
0.000237397
0.000258868
0.000251611
0.000274625
0.000265757
0.000290327
0.000279771
0.000305901
0.0002936
0.000321287
0.000307197
0.000336493
0.00032057
0.000351665
0.000333861
0.000367082
0.000347347
0.00038287
0.000361249
0.000398717
0.000375434
0.000414238
0.000389567
0.000429342
0.000403448
0.000444027
0.000416995
0.000458363
0.000430279
0.00047268
0.000443615
0.000488141
0.000458128
0.000506394
0.000475438
0.000526637
0.000494758
0.000547274
0.000514518
0.000568483
0.000534918
0.000590139
0.00055592
0.000611826
0.000577265
0.000633396
0.00059882
0.000654586
0.000620143
0.00067512
0.000640798
0.000694746
0.000660519
0.000713235
0.000679124
0.000730362
0.000696404
0.000745913
0.000712093
0.000759683
0.000725875
0.000771468
0.000737462
0.000781049
0.000746612
0.000788289
0.000753186
0.000793127
0.000757139
0.000795639
0.000758549
0.000795855
0.000757445
0.000793878
0.000753981
0.000793037
0.000751569
0.000796965
0.000753906
0.000802984
0.000758431
0.000808124
0.000762206
0.00081266
0.000765402
0.000816578
0.000767978
0.000819947
0.000770077
0.000822679
0.00077179
0.000823657
0.000772408
0.000821548
0.000771089
0.000815628
0.000767584
0.000805022
0.000761544
0.000795812
0.000759384
0.000793286
0.000766385
0.000790282
0.000775184
0.000782167
0.000780686
2.32908e-08
1.03643e-08
1.25429e-07
5.21051e-07
1.53077e-06
3.50992e-06
6.75289e-06
1.14096e-05
1.74586e-05
2.47401e-05
3.30175e-05
4.20384e-05
5.15798e-05
6.14838e-05
7.1657e-05
8.20525e-05
9.26586e-05
0.000103477
0.000114511
0.000125767
0.000137259
0.000149011
0.000161064
0.000173471
0.00018626
0.00019939
0.000212732
0.000226126
0.000239452
0.00025268
0.000265894
0.000279314
0.000293171
0.000307428
0.0003218
0.000336124
0.000350495
0.000365029
0.000379986
0.000396178
0.000413933
0.000432351
0.000450774
0.000469359
0.000488288
0.000507514
0.000526952
0.000546619
0.000566548
0.000586579
0.000606321
0.000625358
0.000643405
0.000660305
0.000676188
0.000691694
0.000706593
0.000719524
0.000729763
0.000737288
0.000742219
0.000747643
0.00075676
0.00076638
0.000773876
0.000780556
0.000786892
0.00079268
0.000797691
0.000801869
0.000805345
0.000808139
0.000810042
0.000810978
0.000810996
0.000810158
0.000808488
0.000805689
0.000800811
0.000792833
2.80207e-08
1.38463e-08
1.27923e-07
5.09507e-07
1.47907e-06
3.36359e-06
6.4258e-06
1.07933e-05
1.64433e-05
2.3239e-05
3.09856e-05
3.94809e-05
4.85501e-05
5.80765e-05
6.79982e-05
7.82921e-05
8.89616e-05
0.000100019
0.000111478
0.00012335
0.000135644
0.000148364
0.000161518
0.000175129
0.000189204
0.00020369
0.000218467
0.000233383
0.00024832
0.000263236
0.000278195
0.000293404
0.000309094
0.000325232
0.000341534
0.000357745
0.000373778
0.000389701
0.000405881
0.00042321
0.000442017
0.000461416
0.000480787
0.000500315
0.000520168
0.000540269
0.000560517
0.000580838
0.000601109
0.000621156
0.000640764
0.00065968
0.000677632
0.000694415
0.000710145
0.000725513
0.000740401
0.00075353
0.0007642
0.000772391
0.000778207
0.000784732
0.000795171
0.000806276
0.000815344
0.000823616
0.000831445
0.000838598
0.00084495
0.000850468
0.000855215
0.000859027
0.000861291
0.000861437
0.00085904
0.000853636
0.000844916
0.000832591
0.000815909
0.000794315
3.22257e-08
1.53751e-08
1.50995e-07
5.99122e-07
1.72257e-06
3.87747e-06
7.33678e-06
1.22232e-05
1.85039e-05
2.60336e-05
3.46164e-05
4.40575e-05
5.41949e-05
6.4911e-05
7.61336e-05
8.78305e-05
9.99907e-05
0.000112605
0.000125661
0.000139141
0.000153025
0.000167287
0.000181898
0.000196827
0.000212041
0.000227496
0.000243132
0.000258868
0.000274625
0.000290327
0.000305901
0.000321287
0.000336493
0.000351665
0.000367082
0.00038287
0.000398717
0.000414238
0.000429342
0.000444027
0.000458363
0.00047268
0.000488141
0.000506394
0.000526637
0.000547274
0.000568483
0.000590139
0.000611826
0.000633396
0.000654586
0.00067512
0.000694746
0.000713235
0.000730362
0.000745913
0.000759683
0.000771468
0.000781049
0.000788289
0.000793127
0.000795639
0.000795855
0.000793878
0.000793037
0.000796965
0.000802984
0.000808124
0.00081266
0.000816578
0.000819947
0.000822679
0.000823657
0.000821548
0.000815628
0.000805022
0.000795812
0.000793286
0.000790282
0.000782167
)
