-0.0075 	0 	0 	0
-0.0075 	-7.52285e-34 	-3.08756e-36 	-7.29639e-33
-0.00745622 	-0.000988728 	-4.05798e-06 	-0.00958965
-0.00745622 	-0.000988728 	-4.05798e-06 	-0.00958965
-0.00741165 	-0.0014768 	-6.03183e-06 	-0.0193057
-0.00741165 	-0.0014768 	-6.03183e-06 	-0.0193057
-0.00736628 	-0.00163158 	-5.67249e-06 	-0.029241
-0.00736628 	-0.00163158 	-5.67249e-06 	-0.029241
-0.0073201 	-0.00172961 	-2.40123e-06 	-0.0393661
-0.0073201 	-0.00172961 	-2.40123e-06 	-0.0393661
-0.00727309 	-0.00184066 	1.32101e-06 	-0.0495395
-0.00727309 	-0.00184066 	1.32101e-06 	-0.0495395
-0.00722524 	-0.00193921 	6.02569e-06 	-0.0596424
-0.00722524 	-0.00193921 	6.02569e-06 	-0.0596424
-0.00717653 	-0.00201427 	1.14799e-05 	-0.0695838
-0.00717653 	-0.00201427 	1.14799e-05 	-0.0695838
-0.00712695 	-0.0020616 	1.77653e-05 	-0.0792755
-0.00712695 	-0.0020616 	1.77653e-05 	-0.0792755
-0.00707647 	-0.00208057 	2.52591e-05 	-0.0886364
-0.00707647 	-0.00208057 	2.52591e-05 	-0.0886364
-0.0070251 	-0.00207342 	3.43213e-05 	-0.0976015
-0.0070251 	-0.00207342 	3.43213e-05 	-0.0976015
-0.0069728 	-0.00204428 	4.43823e-05 	-0.106132
-0.0069728 	-0.00204428 	4.43823e-05 	-0.106132
-0.00691956 	-0.00199723 	5.45958e-05 	-0.114221
-0.00691956 	-0.00199723 	5.45958e-05 	-0.114221
-0.00686537 	-0.00193605 	6.54337e-05 	-0.121888
-0.00686537 	-0.00193605 	6.54337e-05 	-0.121888
-0.00681021 	-0.0018637 	7.79712e-05 	-0.129165
-0.00681021 	-0.0018637 	7.79712e-05 	-0.129165
-0.00675406 	-0.00178141 	9.20922e-05 	-0.136077
-0.00675406 	-0.00178141 	9.20922e-05 	-0.136077
-0.0066969 	-0.00168987 	0.000107 	-0.142646
-0.0066969 	-0.00168987 	0.000107 	-0.142646
-0.00663871 	-0.00159044 	0.000122445 	-0.148888
-0.00663871 	-0.00159044 	0.000122445 	-0.148888
-0.00657949 	-0.00148495 	0.000138518 	-0.154823
-0.00657949 	-0.00148495 	0.000138518 	-0.154823
-0.0065192 	-0.00137529 	0.00015566 	-0.160471
-0.0065192 	-0.00137529 	0.00015566 	-0.160471
-0.00645783 	-0.00126269 	0.000174735 	-0.165853
-0.00645783 	-0.00126269 	0.000174735 	-0.165853
-0.00639535 	-0.00114723 	0.000196028 	-0.17099
-0.00639535 	-0.00114723 	0.000196028 	-0.17099
-0.00633176 	-0.00102828 	0.000218469 	-0.175891
-0.00633176 	-0.00102828 	0.000218469 	-0.175891
-0.00626703 	-0.000905596 	0.00023929 	-0.180554
-0.00626703 	-0.000905596 	0.00023929 	-0.180554
-0.00620114 	-0.000780061 	0.000256574 	-0.184963
-0.00620114 	-0.000780061 	0.000256574 	-0.184963
-0.00613406 	-0.000652978 	0.000270261 	-0.189104
-0.00613406 	-0.000652978 	0.000270261 	-0.189104
-0.00606579 	-0.000525946 	0.000280568 	-0.192988
-0.00606579 	-0.000525946 	0.000280568 	-0.192988
-0.00599629 	-0.000402684 	0.000297662 	-0.196666
-0.00599629 	-0.000402684 	0.000297662 	-0.196666
-0.00592554 	-0.000287509 	0.000333762 	-0.200234
-0.00592554 	-0.000287509 	0.000333762 	-0.200234
-0.00585352 	-0.000179792 	0.000388894 	-0.203766
-0.00585352 	-0.000179792 	0.000388894 	-0.203766
-0.00578022 	-7.38421e-05 	0.000445675 	-0.207217
-0.00578022 	-7.38421e-05 	0.000445675 	-0.207217
-0.00570559 	3.29518e-05 	0.000470863 	-0.210485
-0.00570559 	3.29518e-05 	0.000470863 	-0.210485
-0.00562963 	0.00013901 	0.00045791 	-0.213589
-0.00562963 	0.00013901 	0.00045791 	-0.213589
-0.00555231 	0.000244106 	0.000430854 	-0.216659
-0.00555231 	0.000244106 	0.000430854 	-0.216659
-0.0054736 	0.000348951 	0.000412567 	-0.219735
-0.0054736 	0.000348951 	0.000412567 	-0.219735
-0.00539348 	0.000446727 	0.000423756 	-0.2227
-0.00539348 	0.000446727 	0.000423756 	-0.2227
-0.00531193 	0.000523232 	0.000495118 	-0.225462
-0.00531193 	0.000523232 	0.000495118 	-0.225462
-0.00522891 	0.000575181 	0.000639443 	-0.228117
-0.00522891 	0.000575181 	0.000639443 	-0.228117
-0.0051444 	0.000620642 	0.000760254 	-0.230796
-0.0051444 	0.000620642 	0.000760254 	-0.230796
-0.00505838 	0.000691572 	0.000710391 	-0.233409
-0.00505838 	0.000691572 	0.000710391 	-0.233409
-0.00497081 	0.000793629 	0.000565718 	-0.23579
-0.00497081 	0.000793629 	0.000565718 	-0.23579
-0.00488168 	0.000891084 	0.000544491 	-0.237913
-0.00488168 	0.000891084 	0.000544491 	-0.237913
-0.00479094 	0.000963953 	0.000654754 	-0.239844
-0.00479094 	0.000963953 	0.000654754 	-0.239844
-0.00469858 	0.00102601 	0.000747531 	-0.24167
-0.00469858 	0.00102601 	0.000747531 	-0.24167
-0.00460456 	0.00108579 	0.000760538 	-0.243438
-0.00460456 	0.00108579 	0.000760538 	-0.243438
-0.00450886 	0.00114038 	0.000754438 	-0.245153
-0.00450886 	0.00114038 	0.000754438 	-0.245153
-0.00441144 	0.00119124 	0.000781957 	-0.246809
-0.00441144 	0.00119124 	0.000781957 	-0.246809
-0.00431227 	0.00124254 	0.00081414 	-0.24841
-0.00431227 	0.00124254 	0.00081414 	-0.24841
-0.00421133 	0.00129207 	0.000801432 	-0.249974
-0.00421133 	0.00129207 	0.000801432 	-0.249974
-0.00410857 	0.00132729 	0.000773053 	-0.251578
-0.00410857 	0.00132729 	0.000773053 	-0.251578
-0.00400397 	0.00134406 	0.000856731 	-0.253364
-0.00400397 	0.00134406 	0.000856731 	-0.253364
-0.0038975 	0.00136391 	0.00106658 	-0.255418
-0.0038975 	0.00136391 	0.00106658 	-0.255418
-0.00378912 	0.00142683 	0.00112552 	-0.257419
-0.00378912 	0.00142683 	0.00112552 	-0.257419
-0.00367879 	0.00153533 	0.000972948 	-0.259003
-0.00367879 	0.00153533 	0.000972948 	-0.259003
-0.00356649 	0.0016433 	0.000884243 	-0.260307
-0.00356649 	0.0016433 	0.000884243 	-0.260307
-0.00345217 	0.00172285 	0.000933532 	-0.26159
-0.00345217 	0.00172285 	0.000933532 	-0.26159
-0.0033358 	0.00178044 	0.00100671 	-0.2629
-0.0033358 	0.00178044 	0.00100671 	-0.2629
-0.00321735 	0.00183056 	0.00104236 	-0.264202
-0.00321735 	0.00183056 	0.00104236 	-0.264202
-0.00309677 	0.00187962 	0.00105941 	-0.26549
-0.00309677 	0.00187962 	0.00105941 	-0.26549
-0.00297403 	0.00192844 	0.00107632 	-0.266771
-0.00297403 	0.00192844 	0.00107632 	-0.266771
-0.00284909 	0.00197703 	0.00109463 	-0.268047
-0.00284909 	0.00197703 	0.00109463 	-0.268047
-0.0027219 	0.00202467 	0.00111596 	-0.269322
-0.0027219 	0.00202467 	0.00111596 	-0.269322
-0.00259244 	0.00206879 	0.00114195 	-0.270621
-0.00259244 	0.00206879 	0.00114195 	-0.270621
-0.00246065 	0.00210446 	0.00117256 	-0.271955
-0.00246065 	0.00210446 	0.00117256 	-0.271955
-0.00232651 	0.00212729 	0.00120678 	-0.273281
-0.00232651 	0.00212729 	0.00120678 	-0.273281
-0.00218995 	0.00213599 	0.00124371 	-0.274528
-0.00218995 	0.00213599 	0.00124371 	-0.274528
-0.00205095 	0.00213069 	0.00128246 	-0.275658
-0.00205095 	0.00213069 	0.00128246 	-0.275658
-0.00190946 	0.00211109 	0.00132107 	-0.276668
-0.00190946 	0.00211109 	0.00132107 	-0.276668
-0.00176543 	0.00207654 	0.00135778 	-0.277568
-0.00176543 	0.00207654 	0.00135778 	-0.277568
-0.00161881 	0.002027 	0.00139338 	-0.278359
-0.00161881 	0.002027 	0.00139338 	-0.278359
-0.00146957 	0.00196351 	0.00142848 	-0.279043
-0.00146957 	0.00196351 	0.00142848 	-0.279043
-0.00131765 	0.00188806 	0.00146226 	-0.279616
-0.00131765 	0.00188806 	0.00146226 	-0.279616
-0.001163 	0.0018034 	0.00149382 	-0.280078
-0.001163 	0.0018034 	0.00149382 	-0.280078
-0.00100559 	0.0017126 	0.00152263 	-0.280427
-0.00100559 	0.0017126 	0.00152263 	-0.280427
-0.000845345 	0.00161895 	0.00155455 	-0.280661
-0.000845345 	0.00161895 	0.00155455 	-0.280661
-0.000682232 	0.00152585 	0.0015844 	-0.280775
-0.000682232 	0.00152585 	0.0015844 	-0.280775
-0.000516194 	0.00143689 	0.00160419 	-0.280764
-0.000516194 	0.00143689 	0.00160419 	-0.280764
-0.000347178 	0.00135458 	0.0016213 	-0.280622
-0.000347178 	0.00135458 	0.0016213 	-0.280622
-0.000175132 	0.0012718 	0.00161824 	-0.28034
-0.000175132 	0.0012718 	0.00161824 	-0.28034
0 	0.00117813 	0.00160997 	-0.279909
0 	0.00117813 	0.00160997 	-0.279909
0 	0.00117813 	0.00160997 	-0.279909
0 	0.00117813 	0.00160997 	-0.279909
0.000175132 	0.00107366 	0.00161223 	-0.279323
0.000175132 	-0.00140891 	0.002358 	-0.27322
0.000347178 	0.000964092 	0.00160165 	-0.278585
0.000347178 	-0.00158645 	0.00234056 	-0.272839
0.000516194 	0.00085797 	0.00159663 	-0.277705
0.000516194 	-0.00176204 	0.00230849 	-0.273198
0.000682232 	0.000759796 	0.00159433 	-0.276698
0.000682232 	-0.00192945 	0.00235933 	-0.273738
0.000845345 	0.000667538 	0.00158054 	-0.275575
0.000845345 	-0.00208231 	0.00240835 	-0.273461
0.00100559 	0.000580961 	0.00156545 	-0.274348
0.00100559 	-0.00221446 	0.00237447 	-0.272069
0.001163 	0.000503343 	0.00154659 	-0.273057
0.001163 	-0.00233481 	0.00233937 	-0.270156
0.00131765 	0.000441135 	0.00152 	-0.271742
0.00131765 	-0.00244361 	0.00233825 	-0.268107
0.00146957 	0.000398343 	0.00149095 	-0.270381
0.00146957 	-0.00252177 	0.00235907 	-0.265609
0.00161881 	0.000369432 	0.00146644 	-0.26893
0.00161881 	-0.00257627 	0.00240688 	-0.262388
0.00176543 	0.00034355 	0.00144398 	-0.267449
0.00176543 	-0.00265335 	0.00245524 	-0.258962
0.00190946 	0.000312956 	0.00141777 	-0.266083
0.00190946 	-0.0027955 	0.00246867 	-0.256409
0.00205095 	0.000277137 	0.00138859 	-0.264849
0.00205095 	-0.00300027 	0.00245955 	-0.254853
0.00218995 	0.000241452 	0.00136205 	-0.263622
0.00218995 	-0.00322754 	0.00248063 	-0.253477
0.00232651 	0.000209691 	0.00133843 	-0.262332
0.00232651 	-0.00345513 	0.00253253 	-0.251941
0.00246065 	0.000181231 	0.00131347 	-0.260986
0.00246065 	-0.0036905 	0.00255285 	-0.25053
0.00259244 	0.000154776 	0.00128535 	-0.259602
0.00259244 	-0.00393688 	0.00251752 	-0.249521
0.0027219 	0.000130187 	0.00125472 	-0.258188
0.0027219 	-0.00417577 	0.00248334 	-0.248502
0.00284909 	0.000107772 	0.00122261 	-0.256751
0.00284909 	-0.00439062 	0.00248586 	-0.246882
0.00297403 	8.784e-05 	0.00119038 	-0.255291
0.00297403 	-0.0045891 	0.0024911 	-0.244825
0.00309677 	7.05844e-05 	0.00115885 	-0.253807
0.00309677 	-0.00478263 	0.00247445 	-0.242757
0.00321735 	5.60779e-05 	0.00112795 	-0.252297
0.00321735 	-0.00497225 	0.00244589 	-0.240817
0.0033358 	4.43106e-05 	0.00109748 	-0.250757
0.0033358 	-0.00515403 	0.00242154 	-0.238968
0.00345217 	3.52117e-05 	0.00106749 	-0.249188
0.00345217 	-0.00532404 	0.00239766 	-0.237165
0.00356649 	2.86852e-05 	0.0010379 	-0.247587
0.00356649 	-0.00547951 	0.00236713 	-0.235444
0.00367879 	2.47075e-05 	0.00100772 	-0.245956
0.00367879 	-0.005617 	0.00234578 	-0.233932
0.00378912 	-0.00573479 	0.00236173 	-0.23283
0.00378912 	2.34274e-05 	0.000978546 	-0.244297
0.0038975 	2.20405e-05 	0.000950732 	-0.242577
0.0038975 	-0.00584599 	0.00240075 	-0.232172
0.00400397 	1.22413e-05 	0.000920556 	-0.240685
0.00400397 	-0.00598486 	0.00238304 	-0.231641
0.00410857 	-1.07353e-05 	0.000890978 	-0.2385
0.00410857 	-0.00616371 	0.00230629 	-0.231068
0.00421133 	-3.75571e-05 	0.000859524 	-0.236088
0.00421133 	-0.00633752 	0.00223485 	-0.230197
0.00431227 	-4.85425e-05 	0.000821058 	-0.233849
0.00431227 	-0.00646804 	0.00220911 	-0.228574
0.00441144 	-4.01807e-05 	0.000782927 	-0.232005
0.00441144 	-0.00656931 	0.00221829 	-0.226325
0.00450886 	-2.97128e-05 	0.000748637 	-0.230306
0.00450886 	-0.00666664 	0.00220496 	-0.223924
0.00460456 	-2.86279e-05 	0.000713903 	-0.22851
0.00460456 	-0.00676848 	0.00216232 	-0.221601
0.00469858 	-3.66948e-05 	0.00067653 	-0.226579
0.00469858 	-0.00687084 	0.00211253 	-0.219333
0.00479094 	-5.04064e-05 	0.000639265 	-0.224564
0.00479094 	-0.00696775 	0.00206708 	-0.217052
0.00488168 	-6.79568e-05 	0.000604113 	-0.222496
0.00488168 	-0.00705661 	0.00202975 	-0.21474
0.00497081 	-8.91173e-05 	0.000570744 	-0.220374
0.00497081 	-0.00713846 	0.00199598 	-0.212411
0.00505838 	-0.000113738 	0.000539016 	-0.218191
0.00505838 	-0.00721482 	0.00194954 	-0.210101
0.0051444 	-0.000141482 	0.000507852 	-0.215939
0.0051444 	-0.00728258 	0.00188434 	-0.207866
0.00522891 	-0.000171991 	0.000476806 	-0.213614
0.00522891 	-0.00733435 	0.00182263 	-0.205721
0.00531193 	-0.00736425 	0.00178139 	-0.203618
0.00531193 	-0.00020494 	0.000446043 	-0.211211
0.00539348 	-0.000240017 	0.000415529 	-0.208724
0.00539348 	-0.00737261 	0.00175272 	-0.201486
0.0054736 	-0.000276916 	0.000385282 	-0.206148
0.0054736 	-0.00736899 	0.00170673 	-0.199196
0.00555231 	-0.000315378 	0.000355291 	-0.203475
0.00555231 	-0.00736384 	0.00163348 	-0.196652
0.00562963 	-0.000355238 	0.000325598 	-0.200698
0.00562963 	-0.00735786 	0.00156022 	-0.193904
0.00570559 	-0.000396419 	0.000296068 	-0.197806
0.00570559 	-0.00734597 	0.00150009 	-0.191042
0.00578022 	-0.000438889 	0.000267628 	-0.194787
0.00578022 	-0.00732373 	0.0014448 	-0.188111
0.00585352 	-0.00048304 	0.000242556 	-0.191628
0.00585352 	-0.00728885 	0.00138621 	-0.185096
0.00592554 	-0.000529859 	0.000219831 	-0.188315
0.00592554 	-0.00724011 	0.00132334 	-0.181951
0.00599629 	-0.000579863 	0.000194609 	-0.184832
0.00599629 	-0.00717639 	0.00126027 	-0.178637
0.00606579 	-0.00709703 	0.00119718 	-0.175128
0.00606579 	-0.000632839 	0.000164746 	-0.181154
0.00613406 	-0.000688578 	0.000134602 	-0.177249
0.00613406 	-0.0070016 	0.00113246 	-0.171417
0.00620114 	-0.000746352 	0.000110283 	-0.173083
0.00620114 	-0.00688934 	0.00106659 	-0.167498
0.00626703 	-0.000804865 	9.16975e-05 	-0.168628
0.00626703 	-0.006759 	0.00100053 	-0.16337
0.00633176 	-0.000863377 	7.43223e-05 	-0.163865
0.00633176 	-0.00660907 	0.000935014 	-0.159025
0.00639535 	-0.000921858 	5.64099e-05 	-0.158777
0.00639535 	-0.00643821 	0.000870109 	-0.154451
0.00645783 	-0.0009802 	3.91845e-05 	-0.153346
0.00645783 	-0.00624533 	0.000805563 	-0.149629
0.0065192 	-0.00103766 	2.38139e-05 	-0.147552
0.0065192 	-0.00602939 	0.000741564 	-0.144541
0.00657949 	-0.0010932 	1.10913e-05 	-0.141372
0.00657949 	-0.00578902 	0.00067871 	-0.139167
0.00663871 	-0.00114556 	3.23558e-07 	-0.134787
0.00663871 	-0.00552249 	0.000617363 	-0.133474
0.0066969 	-0.00119241 	-1.0506e-05 	-0.127777
0.0066969 	-0.00522814 	0.0005576 	-0.127412
0.00675406 	-0.001231 	-2.10234e-05 	-0.120327
0.00675406 	-0.00490579 	0.000499492 	-0.120927
0.00681021 	-0.00125901 	-2.83759e-05 	-0.112433
0.00681021 	-0.00455789 	0.000442974 	-0.113984
0.00686537 	-0.00127315 	-3.14775e-05 	-0.104112
0.00686537 	-0.00418936 	0.000388186 	-0.10657
0.00691956 	-0.00126998 	-3.27435e-05 	-0.0954165
0.00691956 	-0.00380711 	0.00033558 	-0.0987071
0.0069728 	-0.00124807 	-3.38228e-05 	-0.0864451
0.0069728 	-0.00341977 	0.00028571 	-0.0904505
0.0070251 	-0.00120799 	-3.38734e-05 	-0.0773378
0.0070251 	-0.00303659 	0.000239149 	-0.0818912
0.00707647 	-0.00115202 	-3.26891e-05 	-0.0682555
0.00707647 	-0.00266585 	0.000196434 	-0.0731465
0.00712695 	-0.00108408 	-3.06128e-05 	-0.0593498
0.00712695 	-0.00231321 	0.000158013 	-0.0643481
0.00717653 	-0.00100935 	-2.75805e-05 	-0.0507334
0.00717653 	-0.00198084 	0.0001241 	-0.0556279
0.00722524 	-0.000933666 	-2.35304e-05 	-0.0424658
0.00722524 	-0.00166718 	9.51954e-05 	-0.0471147
0.00727309 	-0.000863301 	-1.86773e-05 	-0.0345608
0.00727309 	-0.00136721 	7.06187e-05 	-0.0389492
0.0073201 	-0.000805355 	-1.38036e-05 	-0.0270051
0.0073201 	-0.00107207 	4.85824e-05 	-0.0313206
0.00736628 	-0.000768863 	-6.89614e-06 	-0.0197921
0.00736628 	-0.000767692 	3.72412e-05 	-0.024542
0.00741165 	-0.000694749 	-3.04785e-06 	-0.0129222
0.00741165 	-0.000458578 	1.82134e-05 	-0.0181587
0.00745622 	-0.00044708 	-1.36733e-06 	-0.00635227
0.00745622 	-0.000189924 	7.33555e-06 	-0.0103493
0.0075 	0 	0 	0
0.0075 	0 	0 	0
