/*--------------------------------*- C++ -*----------------------------------*\
| =========                 |                                                 |
| \\      /  F ield         | OpenFOAM: The Open Source CFD Toolbox           |
|  \\    /   O peration     | Version:  v1906                                 |
|   \\  /    A nd           | Web:      www.OpenFOAM.com                      |
|    \\/     M anipulation  |                                                 |
\*---------------------------------------------------------------------------*/
FoamFile
{
    version     2.0;
    format      ascii;
    class       volScalarField;
    location    "96.8";
    object      nut;
}
// * * * * * * * * * * * * * * * * * * * * * * * * * * * * * * * * * * * * * //

dimensions      [0 2 -1 0 0 0 0];


internalField   nonuniform List<scalar> 
2528
(
1.65552e-11
6.64444e-12
1.20338e-11
1.70634e-11
2.79385e-11
9.81912e-12
2.16505e-11
2.8831e-11
2.66715e-10
7.52064e-11
1.97967e-10
2.50671e-10
1.79749e-09
5.10713e-10
1.30852e-09
1.63261e-09
7.30261e-09
2.1741e-09
5.30272e-09
6.50268e-09
2.12277e-08
6.72714e-09
1.55732e-08
1.86539e-08
4.89614e-08
1.66737e-08
3.65696e-08
4.26258e-08
9.54481e-08
3.50942e-08
7.27938e-08
8.24705e-08
1.63972e-07
6.51421e-08
1.27627e-07
1.40613e-07
2.55633e-07
1.09487e-07
2.02563e-07
2.1733e-07
3.69609e-07
1.69895e-07
2.97157e-07
3.10976e-07
5.03851e-07
2.47066e-07
4.09521e-07
4.18665e-07
6.55797e-07
3.40725e-07
5.36998e-07
5.23641e-07
8.13581e-07
4.49876e-07
6.72442e-07
6.32989e-07
9.81903e-07
5.73079e-07
8.09421e-07
7.47446e-07
1.16135e-06
7.0868e-07
9.52536e-07
8.66187e-07
1.35146e-06
8.5496e-07
1.10099e-06
9.87961e-07
1.55162e-06
1.01023e-06
1.25406e-06
1.11147e-06
1.76061e-06
1.17285e-06
1.41041e-06
1.23541e-06
1.97693e-06
1.3413e-06
1.56867e-06
1.35856e-06
2.19893e-06
1.5141e-06
1.72748e-06
1.47978e-06
2.42489e-06
1.68989e-06
1.88567e-06
1.59807e-06
2.65308e-06
1.86734e-06
2.0423e-06
1.71256e-06
2.88193e-06
2.0453e-06
2.19667e-06
1.82259e-06
3.11e-06
2.22331e-06
2.34826e-06
1.92768e-06
3.33599e-06
2.40121e-06
2.49629e-06
2.0276e-06
3.5591e-06
2.57922e-06
2.63826e-06
2.1224e-06
3.77873e-06
2.75689e-06
2.77467e-06
2.21235e-06
3.99451e-06
2.93502e-06
2.90564e-06
2.29784e-06
4.20628e-06
3.11464e-06
3.03161e-06
2.37854e-06
4.41415e-06
3.29465e-06
3.15359e-06
2.45486e-06
4.61842e-06
3.47179e-06
3.27311e-06
2.52857e-06
4.8195e-06
3.64522e-06
3.39216e-06
2.60056e-06
5.01783e-06
3.81615e-06
3.51255e-06
2.67102e-06
5.21384e-06
3.98573e-06
3.63507e-06
2.73936e-06
5.40791e-06
4.15519e-06
3.75871e-06
2.80544e-06
5.60047e-06
4.32578e-06
3.88069e-06
2.87441e-06
5.79223e-06
4.49913e-06
3.99809e-06
2.9626e-06
5.98429e-06
4.67714e-06
4.11135e-06
3.09785e-06
6.17804e-06
4.86164e-06
4.22712e-06
3.3049e-06
6.37435e-06
5.05379e-06
4.35676e-06
3.56141e-06
6.57233e-06
5.25382e-06
4.50691e-06
3.62659e-06
6.7683e-06
5.46167e-06
4.66528e-06
3.69828e-06
6.95651e-06
5.6786e-06
4.79406e-06
3.77993e-06
7.13247e-06
5.90893e-06
4.84909e-06
3.87626e-06
7.29787e-06
6.15984e-06
4.82387e-06
3.99358e-06
7.46457e-06
6.43757e-06
4.77458e-06
4.13709e-06
7.6354e-06
6.74021e-06
4.7855e-06
4.3029e-06
7.75815e-06
7.05308e-06
4.90461e-06
4.4864e-06
7.86616e-06
7.32226e-06
5.10501e-06
4.68935e-06
7.96096e-06
7.538e-06
5.25135e-06
4.9133e-06
7.29079e-06
7.74648e-06
5.28172e-06
5.15871e-06
6.38245e-06
7.94585e-06
5.30851e-06
5.42485e-06
5.95108e-06
8.13781e-06
5.28006e-06
5.7099e-06
6.41774e-06
7.67143e-06
5.22496e-06
6.01101e-06
7.67768e-06
6.69251e-06
5.33387e-06
6.32453e-06
8.4911e-06
6.03661e-06
5.41078e-06
6.64633e-06
8.59273e-06
6.07363e-06
5.44768e-06
6.97206e-06
8.69712e-06
6.92759e-06
5.4908e-06
7.29735e-06
8.80831e-06
8.39187e-06
5.54398e-06
7.61842e-06
8.93383e-06
9.75448e-06
5.60807e-06
7.92027e-06
9.07443e-06
1.02079e-05
5.68356e-06
8.20294e-06
9.22664e-06
1.04844e-05
5.77072e-06
8.46419e-06
9.38777e-06
1.0763e-05
5.87112e-06
8.70314e-06
9.55753e-06
1.10419e-05
5.98506e-06
8.92077e-06
9.7352e-06
1.13188e-05
6.11161e-06
9.11963e-06
9.92003e-06
1.15901e-05
6.24995e-06
9.30161e-06
1.01101e-05
1.18517e-05
6.39818e-06
9.46895e-06
1.03024e-05
1.20989e-05
6.55361e-06
9.62372e-06
1.04932e-05
1.23392e-05
6.71147e-06
9.76764e-06
1.06804e-05
1.04593e-05
6.86839e-06
9.90201e-06
1.08621e-05
8.91395e-06
7.0234e-06
1.00251e-05
1.10364e-05
9.42161e-06
7.17608e-06
1.01301e-05
1.12016e-05
1.17186e-05
7.32515e-06
1.02184e-05
1.13549e-05
1.37933e-05
7.4685e-06
1.02906e-05
1.14966e-05
1.40306e-05
7.60394e-06
1.03468e-05
1.16257e-05
1.42496e-05
7.72942e-06
1.01846e-05
1.17411e-05
1.44477e-05
7.84278e-06
9.47697e-06
1.18417e-05
1.46212e-05
7.94649e-06
9.65145e-06
2.12628e-12
2.31983e-12
6.96873e-12
5.07234e-12
6.4772e-12
6.98298e-12
1.89315e-11
1.24632e-11
9.54111e-11
1.03324e-10
2.62775e-10
1.66638e-10
6.9692e-10
7.55551e-10
1.87066e-09
1.19419e-09
3.02338e-09
3.27817e-09
7.84672e-09
5.07327e-09
9.44376e-09
1.02328e-08
2.34196e-08
1.54021e-08
2.35062e-08
2.54279e-08
5.51069e-08
3.69807e-08
4.94127e-08
5.32997e-08
1.08729e-07
7.45798e-08
9.10374e-08
9.77893e-08
1.87501e-07
1.31503e-07
1.50896e-07
1.61205e-07
2.91294e-07
2.08715e-07
2.29564e-07
2.43653e-07
4.17322e-07
3.04911e-07
3.25778e-07
3.43256e-07
5.61392e-07
4.17249e-07
4.37029e-07
4.56877e-07
7.12745e-07
5.42215e-07
5.60244e-07
5.80944e-07
8.60858e-07
6.63946e-07
6.92311e-07
7.02616e-07
1.01401e-06
7.86248e-07
8.17675e-07
8.19368e-07
1.17232e-06
9.13142e-07
9.43362e-07
9.38249e-07
1.33503e-06
1.04423e-06
1.06989e-06
1.05909e-06
1.50116e-06
1.17872e-06
1.19755e-06
1.18106e-06
1.66978e-06
1.31595e-06
1.32578e-06
1.30337e-06
1.84016e-06
1.4554e-06
1.454e-06
1.42543e-06
2.0118e-06
1.59677e-06
1.58169e-06
1.54686e-06
2.18443e-06
1.73995e-06
1.70853e-06
1.66756e-06
2.35785e-06
1.8851e-06
1.83458e-06
1.78771e-06
2.53095e-06
2.03252e-06
1.96018e-06
1.90771e-06
2.70331e-06
2.18226e-06
2.08552e-06
2.02717e-06
2.87572e-06
2.33228e-06
2.20824e-06
2.1404e-06
3.04871e-06
2.48192e-06
2.3268e-06
2.24982e-06
3.22285e-06
2.6331e-06
2.44294e-06
2.35626e-06
3.39879e-06
2.78672e-06
2.55736e-06
2.45988e-06
3.57725e-06
2.94348e-06
2.67064e-06
2.5607e-06
3.75881e-06
3.1041e-06
2.78319e-06
2.65863e-06
3.94367e-06
3.26932e-06
2.8953e-06
2.75353e-06
4.13131e-06
3.43968e-06
3.00709e-06
2.84513e-06
4.3205e-06
3.61521e-06
3.1184e-06
2.9331e-06
4.50985e-06
3.79547e-06
3.22871e-06
3.01711e-06
4.69857e-06
3.97992e-06
3.33718e-06
3.09687e-06
4.88771e-06
4.16839e-06
3.44308e-06
3.1721e-06
5.08163e-06
4.36108e-06
3.5467e-06
3.24248e-06
5.28933e-06
4.55878e-06
3.65077e-06
3.3077e-06
5.52314e-06
4.76345e-06
3.76179e-06
3.36743e-06
5.79208e-06
4.97855e-06
3.88946e-06
3.42139e-06
6.08892e-06
5.20865e-06
4.04175e-06
3.46935e-06
6.37701e-06
5.45855e-06
4.21382e-06
3.51124e-06
6.59262e-06
5.73324e-06
4.37444e-06
3.54753e-06
6.6793e-06
6.03849e-06
4.46463e-06
3.57981e-06
6.64263e-06
6.38054e-06
4.42897e-06
3.61175e-06
6.57475e-06
6.76398e-06
4.26995e-06
3.64979e-06
6.61536e-06
7.15995e-06
4.06634e-06
3.70193e-06
6.87763e-06
7.4711e-06
3.92824e-06
3.75846e-06
7.37503e-06
7.62852e-06
3.94115e-06
3.73703e-06
7.97567e-06
7.76692e-06
4.13295e-06
3.66707e-06
8.3503e-06
7.88413e-06
4.44451e-06
3.58581e-06
8.46859e-06
7.97805e-06
4.69299e-06
3.49505e-06
8.57282e-06
8.04673e-06
4.69229e-06
3.3971e-06
8.66204e-06
8.08839e-06
4.68696e-06
3.29354e-06
8.73539e-06
8.10158e-06
4.67781e-06
3.18478e-06
8.79234e-06
8.08517e-06
4.66539e-06
3.07325e-06
8.83251e-06
8.03845e-06
4.65007e-06
2.96072e-06
8.85588e-06
7.96119e-06
4.63224e-06
2.84778e-06
8.86284e-06
7.85454e-06
4.61191e-06
2.73392e-06
8.85564e-06
7.72922e-06
4.58857e-06
2.61768e-06
8.83532e-06
7.58653e-06
4.56155e-06
2.4981e-06
8.80352e-06
7.4281e-06
4.53021e-06
2.37419e-06
8.76182e-06
7.25629e-06
4.49376e-06
2.24545e-06
8.71224e-06
7.07414e-06
4.45115e-06
2.11195e-06
8.65638e-06
6.88544e-06
4.40126e-06
1.97476e-06
8.59502e-06
6.69442e-06
4.34277e-06
1.83655e-06
8.52907e-06
6.5058e-06
4.27467e-06
1.70241e-06
8.45978e-06
6.32474e-06
4.19596e-06
1.58089e-06
8.38796e-06
6.15711e-06
4.10485e-06
1.48514e-06
8.31384e-06
6.00926e-06
4.00126e-06
1.43248e-06
8.24709e-06
5.88376e-06
3.88468e-06
1.43966e-06
8.19732e-06
5.77963e-06
3.75489e-06
1.51545e-06
8.16599e-06
5.69785e-06
3.61286e-06
1.65733e-06
8.15392e-06
5.64214e-06
3.46025e-06
1.85527e-06
8.16084e-06
5.61732e-06
3.29997e-06
2.0965e-06
8.18609e-06
5.62831e-06
3.13712e-06
2.36847e-06
8.22795e-06
5.67907e-06
2.98017e-06
2.66036e-06
8.28445e-06
5.77154e-06
7.93637e-12
2.1175e-12
7.26559e-12
1.12928e-11
1.85588e-11
4.78147e-12
1.52194e-11
2.30236e-11
2.41637e-10
6.26404e-11
1.86521e-10
2.71788e-10
1.71473e-09
4.58614e-10
1.32489e-09
1.88757e-09
7.17986e-09
2.00393e-09
5.5775e-09
7.73444e-09
2.13315e-08
6.30108e-09
1.66765e-08
2.24178e-08
4.98116e-08
1.57653e-08
3.91977e-08
5.10168e-08
9.7333e-08
3.32474e-08
7.70725e-08
9.72572e-08
1.66111e-07
6.13429e-08
1.3227e-07
1.623e-07
2.55473e-07
1.01722e-07
2.04378e-07
2.44679e-07
3.62549e-07
1.54807e-07
2.9106e-07
3.41094e-07
4.83464e-07
2.19873e-07
3.89021e-07
4.31439e-07
5.99923e-07
2.95418e-07
4.80973e-07
5.25907e-07
7.19245e-07
3.79524e-07
5.76895e-07
6.25349e-07
8.44448e-07
4.64424e-07
6.77639e-07
7.28815e-07
9.74631e-07
5.49234e-07
7.82495e-07
8.35433e-07
1.10897e-06
6.38946e-07
8.90842e-07
9.44492e-07
1.2468e-06
7.33468e-07
1.0022e-06
1.05542e-06
1.38761e-06
8.32598e-07
1.11622e-06
1.16778e-06
1.53106e-06
9.36229e-07
1.23264e-06
1.2813e-06
1.67696e-06
1.04434e-06
1.35134e-06
1.3958e-06
1.82532e-06
1.15701e-06
1.47228e-06
1.51126e-06
1.97628e-06
1.27446e-06
1.59556e-06
1.6278e-06
2.12999e-06
1.39715e-06
1.72139e-06
1.74566e-06
2.2863e-06
1.52587e-06
1.85005e-06
1.86527e-06
2.44359e-06
1.66172e-06
1.98179e-06
1.98716e-06
2.60183e-06
1.80557e-06
2.11685e-06
2.11208e-06
2.76245e-06
1.95696e-06
2.2556e-06
2.24102e-06
2.92633e-06
2.10999e-06
2.39962e-06
2.37581e-06
3.09475e-06
2.26514e-06
2.55879e-06
2.52019e-06
3.26988e-06
2.43029e-06
2.74328e-06
2.6849e-06
3.45522e-06
2.60867e-06
2.95728e-06
2.88458e-06
3.65568e-06
2.79918e-06
3.18846e-06
3.13025e-06
3.87714e-06
2.99544e-06
3.38287e-06
3.41132e-06
4.12466e-06
3.18085e-06
3.53273e-06
3.66796e-06
4.39939e-06
3.35798e-06
3.68531e-06
3.82017e-06
4.69473e-06
3.53982e-06
3.8412e-06
3.9765e-06
4.99327e-06
3.72661e-06
4.00057e-06
4.13704e-06
5.27052e-06
3.91845e-06
4.16353e-06
4.30166e-06
5.49362e-06
4.11537e-06
4.33e-06
4.47449e-06
5.68643e-06
4.31729e-06
4.49975e-06
4.65665e-06
5.87476e-06
4.52398e-06
4.67229e-06
4.84933e-06
6.05782e-06
4.735e-06
4.84691e-06
5.05363e-06
6.23481e-06
4.94969e-06
5.02256e-06
5.27052e-06
6.40495e-06
5.167e-06
5.20159e-06
5.5008e-06
6.56741e-06
5.3855e-06
5.38729e-06
5.74505e-06
6.72127e-06
5.60561e-06
5.57959e-06
6.00355e-06
6.86965e-06
5.82895e-06
5.77806e-06
6.27628e-06
7.01415e-06
6.05563e-06
5.98198e-06
6.56281e-06
7.15516e-06
6.28523e-06
6.1903e-06
6.86227e-06
7.29285e-06
6.51702e-06
6.40173e-06
7.17333e-06
7.42726e-06
6.75023e-06
6.61476e-06
7.49411e-06
7.55849e-06
6.984e-06
6.82829e-06
7.82225e-06
7.6867e-06
7.21742e-06
7.04139e-06
8.15489e-06
7.81208e-06
7.44954e-06
7.25265e-06
8.48871e-06
7.93704e-06
7.68101e-06
7.46066e-06
8.81994e-06
8.0663e-06
7.91478e-06
7.66411e-06
9.14446e-06
8.20286e-06
8.1509e-06
7.86184e-06
9.45779e-06
8.35019e-06
8.38941e-06
8.05293e-06
9.7553e-06
8.51148e-06
8.63056e-06
8.2366e-06
1.0034e-05
8.68858e-06
8.87446e-06
8.41353e-06
1.02926e-05
8.88272e-06
9.12107e-06
8.58461e-06
1.05296e-05
9.09551e-06
9.36939e-06
8.74925e-06
1.07435e-05
9.32946e-06
9.61792e-06
8.90713e-06
1.09247e-05
9.58585e-06
9.86559e-06
9.05844e-06
1.10623e-05
9.86495e-06
1.01115e-05
9.20382e-06
1.11535e-05
1.01659e-05
1.03553e-05
9.34458e-06
1.11977e-05
1.04865e-05
1.05966e-05
9.48279e-06
1.12004e-05
1.08235e-05
1.08349e-05
9.62139e-06
8.22419e-06
1.11732e-05
1.10699e-05
9.76434e-06
5.39458e-06
1.15311e-05
1.13007e-05
9.91641e-06
4.65261e-06
1.18904e-05
1.15261e-05
1.00716e-05
5.56617e-06
1.22445e-05
1.17446e-05
1.02219e-05
8.29308e-06
1.25864e-05
1.1954e-05
1.03656e-05
1.1675e-05
1.29098e-05
1.21525e-05
1.05013e-05
1.18128e-05
1.32096e-05
1.23379e-05
1.06273e-05
1.18376e-05
1.34796e-05
1.25078e-05
1.0742e-05
1.18306e-05
1.37158e-05
1.26589e-05
1.08435e-05
1.17942e-05
1.3914e-05
1.2787e-05
1.09315e-05
1.1731e-05
8.48095e-12
9.85592e-12
1.51841e-11
1.29133e-11
1.14799e-11
1.26645e-11
2.37801e-11
2.03439e-11
7.80299e-11
7.53482e-11
2.2413e-10
1.79133e-10
5.20332e-10
4.92037e-10
1.53992e-09
1.20992e-09
2.19094e-09
2.06241e-09
6.37081e-09
4.98328e-09
6.67871e-09
6.26358e-09
1.87776e-08
1.47137e-08
1.62242e-08
1.51508e-08
4.37161e-08
3.44584e-08
3.33154e-08
3.09721e-08
8.56697e-08
6.8116e-08
6.01402e-08
5.5678e-08
1.47482e-07
1.18457e-07
9.81528e-08
9.05527e-08
2.29934e-07
1.86628e-07
1.47904e-07
1.36084e-07
3.32069e-07
2.72245e-07
2.09132e-07
1.92051e-07
4.51892e-07
3.73904e-07
2.80997e-07
2.57731e-07
5.87092e-07
4.89757e-07
3.62371e-07
3.29196e-07
7.28394e-07
6.17943e-07
4.45441e-07
4.03035e-07
8.77972e-07
7.53872e-07
5.34061e-07
4.83903e-07
1.04057e-06
8.95868e-07
6.30857e-07
5.72187e-07
1.21627e-06
1.04875e-06
7.36109e-07
6.68025e-07
1.40517e-06
1.21283e-06
8.50166e-07
7.71557e-07
1.60738e-06
1.38802e-06
9.73529e-07
8.82909e-07
1.82297e-06
1.57396e-06
1.10688e-06
1.00219e-06
2.0515e-06
1.7697e-06
1.25117e-06
1.12947e-06
2.29094e-06
1.97022e-06
1.40758e-06
1.26473e-06
2.5301e-06
2.17001e-06
1.57681e-06
1.40775e-06
2.76672e-06
2.37518e-06
1.75736e-06
1.55788e-06
3.00868e-06
2.58547e-06
1.93063e-06
1.71353e-06
3.25546e-06
2.80056e-06
2.10273e-06
1.86867e-06
3.5066e-06
3.02011e-06
2.27945e-06
2.01726e-06
3.76162e-06
3.24371e-06
2.46049e-06
2.16892e-06
4.01986e-06
3.47093e-06
2.64547e-06
2.32338e-06
4.28067e-06
3.70126e-06
2.83378e-06
2.48032e-06
4.54338e-06
3.93411e-06
3.02481e-06
2.63936e-06
4.80726e-06
4.16876e-06
3.21787e-06
2.80012e-06
5.07158e-06
4.40435e-06
3.41223e-06
2.96215e-06
5.33556e-06
4.64002e-06
3.60713e-06
3.12499e-06
5.59859e-06
4.8511e-06
3.80176e-06
3.28809e-06
5.86046e-06
5.05173e-06
3.99529e-06
3.45086e-06
6.11631e-06
5.24552e-06
4.18688e-06
3.61265e-06
6.36113e-06
5.435e-06
4.37569e-06
3.77267e-06
6.60244e-06
5.62153e-06
4.56086e-06
3.93009e-06
6.84051e-06
5.80509e-06
4.74159e-06
4.0839e-06
7.07579e-06
5.98442e-06
4.91702e-06
4.23337e-06
7.30844e-06
6.15796e-06
5.08631e-06
4.3809e-06
7.53753e-06
6.32514e-06
5.24858e-06
4.52876e-06
7.75873e-06
6.48665e-06
5.40288e-06
4.67589e-06
7.9663e-06
6.64406e-06
5.5482e-06
4.82086e-06
8.15966e-06
6.8001e-06
5.68342e-06
4.96196e-06
8.34172e-06
6.9593e-06
5.79361e-06
5.08228e-06
8.51517e-06
7.12867e-06
5.89297e-06
5.17784e-06
8.68257e-06
7.31722e-06
5.98162e-06
5.24964e-06
8.84713e-06
7.5322e-06
6.06034e-06
5.29363e-06
9.01706e-06
7.77078e-06
6.13461e-06
5.30653e-06
9.20493e-06
8.00878e-06
6.21718e-06
5.28692e-06
9.41861e-06
8.19532e-06
6.32026e-06
5.23899e-06
9.63561e-06
8.25942e-06
6.39892e-06
5.17714e-06
9.8163e-06
8.25533e-06
6.28735e-06
5.12719e-06
9.88553e-06
8.2205e-06
5.77835e-06
5.11927e-06
9.62297e-06
8.15466e-06
4.9946e-06
5.17402e-06
8.7065e-06
8.0582e-06
4.45746e-06
5.2904e-06
7.39185e-06
7.93234e-06
4.57073e-06
5.44574e-06
6.58635e-06
7.77696e-06
5.46946e-06
5.61117e-06
6.85818e-06
7.59193e-06
6.76606e-06
5.76822e-06
8.32102e-06
7.37811e-06
6.92462e-06
5.90906e-06
1.02079e-05
7.13746e-06
6.96166e-06
6.02359e-06
1.03232e-05
6.88234e-06
6.99287e-06
6.08923e-06
1.02573e-05
6.62845e-06
7.01913e-06
6.08672e-06
1.01665e-05
6.38537e-06
7.04297e-06
6.02844e-06
1.00532e-05
6.1638e-06
7.06257e-06
5.95162e-06
9.9221e-06
5.97515e-06
7.07437e-06
5.8556e-06
9.77965e-06
5.83128e-06
7.07931e-06
5.73965e-06
9.63502e-06
5.74422e-06
7.0798e-06
5.60344e-06
9.49607e-06
5.72413e-06
7.0779e-06
5.44661e-06
9.36854e-06
5.77688e-06
7.07595e-06
5.26833e-06
9.25657e-06
5.90303e-06
7.07687e-06
5.06805e-06
9.16399e-06
6.09102e-06
7.08297e-06
4.84662e-06
9.09424e-06
6.32758e-06
7.09672e-06
4.60675e-06
9.05007e-06
6.59891e-06
7.11928e-06
4.35275e-06
9.0333e-06
6.8915e-06
7.15164e-06
4.09037e-06
9.04463e-06
7.19277e-06
7.19417e-06
3.82734e-06
9.08374e-06
7.49152e-06
1.19358e-05
1.47916e-05
8.03717e-06
1.04171e-05
1.20169e-05
1.49573e-05
8.11047e-06
1.03906e-05
1.2069e-05
1.50975e-05
8.16588e-06
1.03424e-05
1.20922e-05
1.52106e-05
8.20458e-06
1.02764e-05
1.2088e-05
1.52953e-05
8.22813e-06
1.01954e-05
1.20598e-05
1.53509e-05
8.23848e-06
1.01017e-05
1.20116e-05
1.5378e-05
8.23759e-06
9.9972e-06
1.1947e-05
1.53748e-05
8.22726e-06
9.88344e-06
1.18693e-05
1.53393e-05
8.20898e-06
9.7615e-06
1.17807e-05
1.52696e-05
8.18441e-06
9.63228e-06
1.16829e-05
1.51643e-05
8.15602e-06
9.49649e-06
1.1577e-05
1.50241e-05
8.1242e-06
9.35495e-06
1.1464e-05
1.48526e-05
8.08987e-06
9.20778e-06
1.13441e-05
1.46592e-05
8.05358e-06
9.05508e-06
1.12175e-05
1.44505e-05
8.01554e-06
8.89692e-06
1.10843e-05
1.42313e-05
7.97565e-06
8.73342e-06
1.09449e-05
1.40048e-05
7.93362e-06
8.56472e-06
1.07992e-05
1.37735e-05
7.88902e-06
8.391e-06
1.06475e-05
1.35388e-05
7.84133e-06
8.2125e-06
1.04897e-05
1.33011e-05
7.79e-06
8.02949e-06
1.03261e-05
1.30597e-05
7.73443e-06
7.84229e-06
1.01567e-05
1.28131e-05
7.67403e-06
7.65124e-06
9.98163e-06
1.25589e-05
7.60823e-06
7.45672e-06
9.80066e-06
1.22953e-05
7.53649e-06
7.25914e-06
9.61361e-06
1.2025e-05
7.45834e-06
7.05882e-06
9.42021e-06
1.17501e-05
7.37338e-06
6.85585e-06
9.22029e-06
1.14724e-05
7.28125e-06
6.65035e-06
9.01371e-06
1.11936e-05
7.1817e-06
6.44253e-06
8.80046e-06
1.0915e-05
7.07449e-06
6.23267e-06
8.5806e-06
1.06374e-05
6.94759e-06
6.02114e-06
8.35428e-06
1.03615e-05
6.6742e-06
5.80832e-06
8.12172e-06
1.00871e-05
6.48344e-06
5.57853e-06
7.88326e-06
9.8142e-06
6.39286e-06
5.28997e-06
7.6393e-06
9.5424e-06
6.34099e-06
4.98329e-06
7.35916e-06
9.27032e-06
6.25455e-06
4.68032e-06
7.04586e-06
8.99744e-06
6.10767e-06
4.40007e-06
6.71409e-06
8.72523e-06
5.92739e-06
4.15044e-06
6.37528e-06
8.4535e-06
5.72582e-06
3.92924e-06
6.04004e-06
8.13753e-06
5.51451e-06
3.72892e-06
5.71477e-06
7.73628e-06
5.29683e-06
3.5411e-06
5.40213e-06
7.33427e-06
5.07429e-06
3.35941e-06
5.10247e-06
6.96065e-06
4.84812e-06
3.18056e-06
4.81514e-06
6.62153e-06
4.6196e-06
3.00408e-06
4.5392e-06
6.30904e-06
4.38992e-06
2.83113e-06
4.27372e-06
6.01226e-06
4.16026e-06
2.66311e-06
4.01788e-06
5.72253e-06
3.93188e-06
2.50033e-06
3.77098e-06
5.43499e-06
3.70604e-06
2.3413e-06
3.53247e-06
5.14823e-06
3.48393e-06
2.18235e-06
3.3019e-06
4.86286e-06
3.26652e-06
2.01087e-06
3.07893e-06
4.58003e-06
3.05455e-06
1.8351e-06
2.86317e-06
4.30057e-06
2.8485e-06
1.67143e-06
2.65396e-06
4.02482e-06
2.64845e-06
1.51995e-06
2.44989e-06
3.75285e-06
2.45393e-06
1.37847e-06
2.24686e-06
3.4847e-06
2.2634e-06
1.24534e-06
2.04142e-06
3.22053e-06
2.07085e-06
1.11952e-06
1.84463e-06
2.96056e-06
1.88306e-06
1.00034e-06
1.6575e-06
2.70499e-06
1.70281e-06
8.87428e-07
1.47932e-06
2.45328e-06
1.52985e-06
7.8059e-07
1.30952e-06
2.206e-06
1.36376e-06
6.79765e-07
1.14795e-06
1.96586e-06
1.20442e-06
5.84927e-07
9.94777e-07
1.73389e-06
1.05199e-06
4.9582e-07
8.5032e-07
1.511e-06
9.06856e-07
4.07624e-07
7.14935e-07
1.29824e-06
7.69499e-07
3.18447e-07
5.88231e-07
1.09669e-06
6.40079e-07
2.39562e-07
4.60655e-07
9.07071e-07
5.17542e-07
1.72498e-07
3.37482e-07
7.29004e-07
3.88232e-07
1.18162e-07
2.33331e-07
5.48073e-07
2.75143e-07
7.65445e-08
1.50674e-07
3.84309e-07
1.81909e-07
4.66382e-08
8.99842e-08
2.48977e-07
1.10714e-07
2.65901e-08
4.92757e-08
1.46198e-07
6.12622e-08
1.41029e-08
2.45455e-08
7.6339e-08
3.0491e-08
6.90093e-09
1.10078e-08
3.4853e-08
1.35075e-08
3.07454e-09
4.3665e-09
1.3688e-08
5.24459e-09
1.22059e-09
1.48379e-09
4.51251e-09
1.734e-09
4.16814e-10
4.07979e-10
1.18947e-09
4.62284e-10
1.15386e-10
8.18516e-11
2.27275e-10
8.97318e-11
2.3333e-11
9.93676e-12
2.59703e-11
1.04927e-11
2.87325e-12
7.50392e-13
1.57698e-12
7.27698e-13
2.42275e-13
3.81624e-13
6.00756e-13
3.4272e-13
1.39772e-13
2.84326e-06
2.96222e-06
8.35261e-06
5.90673e-06
2.74352e-06
3.26222e-06
8.42762e-06
6.07585e-06
2.69542e-06
3.55077e-06
8.50441e-06
6.26612e-06
2.70675e-06
3.82504e-06
8.58014e-06
6.46893e-06
2.77751e-06
4.08353e-06
8.6526e-06
6.6767e-06
2.90004e-06
4.32572e-06
8.72005e-06
6.88315e-06
3.06229e-06
4.55177e-06
8.78108e-06
7.08329e-06
3.25133e-06
4.76243e-06
8.83308e-06
7.27328e-06
3.45572e-06
4.95907e-06
8.87683e-06
7.45027e-06
3.66631e-06
5.14037e-06
8.91297e-06
7.61242e-06
3.8765e-06
5.30169e-06
8.94014e-06
7.75844e-06
4.08168e-06
5.44338e-06
8.95854e-06
7.88738e-06
4.2787e-06
5.56565e-06
8.96727e-06
7.99867e-06
4.46537e-06
5.66868e-06
8.96566e-06
8.09209e-06
4.64014e-06
5.7528e-06
8.95345e-06
8.16762e-06
4.80179e-06
5.81852e-06
8.9313e-06
8.22543e-06
4.94924e-06
5.86665e-06
8.89988e-06
8.26583e-06
5.08137e-06
5.8982e-06
8.85941e-06
8.28923e-06
5.19688e-06
5.91444e-06
8.81009e-06
8.29614e-06
5.29505e-06
5.91665e-06
8.75213e-06
8.2871e-06
5.37657e-06
5.90552e-06
8.68569e-06
8.26272e-06
5.44225e-06
5.88195e-06
8.61091e-06
8.22363e-06
5.49296e-06
5.84689e-06
8.5279e-06
8.17049e-06
5.52981e-06
5.80069e-06
8.43677e-06
8.10397e-06
5.55363e-06
5.74362e-06
8.33757e-06
8.02477e-06
5.56476e-06
5.67657e-06
8.23034e-06
7.93356e-06
5.56339e-06
5.6004e-06
8.11509e-06
7.83101e-06
5.54979e-06
5.51595e-06
7.99181e-06
7.71778e-06
5.52436e-06
5.42401e-06
7.86049e-06
7.59453e-06
5.48752e-06
5.32528e-06
7.72109e-06
7.46203e-06
5.43906e-06
5.2204e-06
7.5736e-06
7.31923e-06
5.37823e-06
5.10994e-06
7.3813e-06
7.16576e-06
5.30426e-06
4.99441e-06
7.14245e-06
7.00167e-06
5.21689e-06
4.87427e-06
6.8907e-06
6.82698e-06
5.11628e-06
4.7499e-06
6.64163e-06
6.64084e-06
5.00301e-06
4.62161e-06
6.39894e-06
6.4438e-06
4.87835e-06
4.48967e-06
6.16377e-06
6.23737e-06
4.74342e-06
4.35427e-06
5.93521e-06
6.02295e-06
4.59927e-06
4.21558e-06
5.71138e-06
5.80178e-06
4.4469e-06
4.07372e-06
5.49039e-06
5.57491e-06
4.28725e-06
3.92881e-06
5.27067e-06
5.34333e-06
4.12124e-06
3.78096e-06
5.05111e-06
5.10789e-06
3.94974e-06
3.63034e-06
4.83101e-06
4.86946e-06
3.77362e-06
3.47716e-06
4.60998e-06
4.62889e-06
3.59372e-06
3.31035e-06
4.38791e-06
4.38696e-06
3.41088e-06
3.12791e-06
4.16489e-06
4.14449e-06
3.2259e-06
2.93471e-06
3.94118e-06
3.90225e-06
3.03958e-06
2.73459e-06
3.71721e-06
3.661e-06
2.85268e-06
2.54057e-06
3.49353e-06
3.42147e-06
2.66594e-06
2.36258e-06
3.27076e-06
3.18438e-06
2.48006e-06
2.19354e-06
3.0497e-06
2.94764e-06
2.29546e-06
2.02671e-06
2.83109e-06
2.68898e-06
2.1097e-06
1.86436e-06
2.61487e-06
2.43068e-06
1.90916e-06
1.7072e-06
2.39801e-06
2.18179e-06
1.71636e-06
1.55561e-06
2.18288e-06
1.94968e-06
1.53399e-06
1.40961e-06
1.97473e-06
1.73461e-06
1.36249e-06
1.269e-06
1.77441e-06
1.53448e-06
1.20148e-06
1.13365e-06
1.58218e-06
1.34784e-06
1.05056e-06
1.00367e-06
1.39827e-06
1.17392e-06
9.09472e-07
8.79379e-07
1.2231e-06
1.01229e-06
7.78153e-07
7.61209e-07
1.05719e-06
8.62606e-07
6.56572e-07
6.49481e-07
9.01258e-07
7.24539e-07
5.43501e-07
5.44579e-07
7.5584e-07
5.97114e-07
4.28504e-07
4.46572e-07
6.18211e-07
4.71689e-07
3.25031e-07
3.4667e-07
4.76412e-07
3.54459e-07
2.35177e-07
2.54465e-07
3.50574e-07
2.54063e-07
1.60765e-07
1.76687e-07
2.4379e-07
1.72122e-07
1.02764e-07
1.14848e-07
1.58346e-07
1.09185e-07
6.07995e-08
6.915e-08
9.4866e-08
6.42686e-08
3.29771e-08
3.81764e-08
5.17577e-08
3.4812e-08
1.62445e-08
1.9132e-08
2.53783e-08
1.72066e-08
7.18421e-09
8.59994e-09
1.1014e-08
7.67389e-09
2.80145e-09
3.40483e-09
4.14409e-09
3.03137e-09
9.33565e-10
1.15098e-09
1.31064e-09
1.02707e-09
2.51672e-10
3.14532e-10
3.31471e-10
2.82246e-10
4.98275e-11
6.30592e-11
6.14867e-11
5.70483e-11
6.29131e-12
8.01368e-12
7.30447e-12
7.34062e-12
8.35186e-13
1.00588e-12
9.03543e-13
9.56493e-13
6.2808e-13
7.1838e-13
8.23765e-13
6.98527e-13
1.40723e-05
1.29013e-05
1.10081e-05
1.16573e-05
1.41859e-05
1.30085e-05
1.10727e-05
1.1569e-05
1.42515e-05
1.30958e-05
1.11172e-05
1.14626e-05
1.42728e-05
1.31641e-05
1.1142e-05
1.13412e-05
1.42537e-05
1.32139e-05
1.11482e-05
1.12089e-05
1.4198e-05
1.32452e-05
1.11367e-05
1.10684e-05
1.41098e-05
1.32584e-05
1.1109e-05
1.09212e-05
1.39932e-05
1.32595e-05
1.10705e-05
1.07689e-05
1.3852e-05
1.32456e-05
1.10227e-05
1.06131e-05
1.369e-05
1.32198e-05
1.09662e-05
1.04552e-05
1.35101e-05
1.31907e-05
1.09031e-05
1.02962e-05
1.33154e-05
1.31583e-05
1.08354e-05
1.01368e-05
1.31081e-05
1.31203e-05
1.07635e-05
9.97761e-06
1.28908e-05
1.30745e-05
1.06874e-05
9.81928e-06
1.26655e-05
1.3018e-05
1.06078e-05
9.66145e-06
1.2434e-05
1.29486e-05
1.05252e-05
9.50371e-06
1.21974e-05
1.28649e-05
1.04399e-05
9.34558e-06
1.19566e-05
1.2766e-05
1.03518e-05
9.1866e-06
1.1713e-05
1.26513e-05
1.0261e-05
9.02627e-06
1.14691e-05
1.25203e-05
1.01673e-05
8.86415e-06
1.05949e-05
1.2374e-05
1.00704e-05
8.6998e-06
8.78626e-06
1.22137e-05
9.97003e-06
8.53289e-06
7.81067e-06
1.20409e-05
9.86579e-06
8.36316e-06
8.04898e-06
1.1857e-05
9.75725e-06
8.19041e-06
9.09376e-06
1.16638e-05
9.64395e-06
8.01565e-06
9.77977e-06
1.1463e-05
9.52547e-06
7.83918e-06
9.82758e-06
1.12566e-05
9.40137e-06
7.66047e-06
9.61369e-06
1.10456e-05
9.27122e-06
7.47911e-06
9.39197e-06
1.08306e-05
9.13458e-06
7.29477e-06
9.16194e-06
1.06114e-05
8.991e-06
7.10715e-06
8.92344e-06
1.03877e-05
8.84002e-06
6.91738e-06
8.65361e-06
1.01593e-05
8.68123e-06
6.72615e-06
8.37926e-06
9.92664e-06
8.51424e-06
6.53367e-06
8.10875e-06
9.69019e-06
8.33871e-06
6.34014e-06
7.84393e-06
9.45102e-06
8.15443e-06
6.14499e-06
7.58248e-06
9.21053e-06
7.96125e-06
5.94687e-06
7.32214e-06
8.9698e-06
7.75918e-06
5.74607e-06
7.06302e-06
8.72887e-06
7.54833e-06
5.54361e-06
6.80452e-06
8.48667e-06
7.32897e-06
5.34023e-06
6.54569e-06
8.24167e-06
7.10149e-06
5.13581e-06
6.2868e-06
7.99253e-06
6.86625e-06
4.93015e-06
6.02849e-06
7.73833e-06
6.62354e-06
4.72336e-06
5.77096e-06
7.47859e-06
6.37406e-06
4.51543e-06
5.51395e-06
7.21314e-06
6.11875e-06
4.30634e-06
5.25694e-06
6.94212e-06
5.85856e-06
4.09609e-06
4.99943e-06
6.66591e-06
5.59439e-06
3.88472e-06
4.7411e-06
6.38504e-06
5.32717e-06
3.67235e-06
4.48182e-06
6.10012e-06
5.05715e-06
3.45916e-06
4.22162e-06
5.81172e-06
4.7843e-06
3.24543e-06
3.96074e-06
5.52032e-06
4.50953e-06
3.03145e-06
3.69962e-06
5.22583e-06
4.21899e-06
2.8177e-06
3.4388e-06
4.92736e-06
3.91263e-06
2.60468e-06
3.17885e-06
4.62473e-06
3.60716e-06
2.39299e-06
2.91987e-06
4.31815e-06
3.31055e-06
2.1833e-06
2.66269e-06
3.99435e-06
3.02387e-06
1.97635e-06
2.41027e-06
3.63849e-06
2.74672e-06
1.77306e-06
2.16414e-06
3.29831e-06
2.47759e-06
1.57443e-06
1.92558e-06
2.97528e-06
2.21743e-06
1.38156e-06
1.69588e-06
2.6673e-06
1.96803e-06
1.19564e-06
1.47627e-06
2.37294e-06
1.73008e-06
1.01799e-06
1.26785e-06
2.09147e-06
1.50413e-06
8.50094e-07
1.06865e-06
1.82291e-06
1.29085e-06
6.93647e-07
8.73567e-07
1.56782e-06
1.09098e-06
5.50462e-07
6.93425e-07
1.32714e-06
9.05228e-07
4.22497e-07
5.30996e-07
1.10199e-06
7.33e-07
3.11611e-07
3.8911e-07
8.9344e-07
5.63313e-07
2.19239e-07
2.7027e-07
6.85087e-07
4.08527e-07
1.45994e-07
1.76046e-07
4.9474e-07
2.77968e-07
9.12848e-08
1.06341e-07
3.31786e-07
1.74905e-07
5.31771e-08
5.89179e-08
2.02203e-07
1.00333e-07
2.86366e-08
2.96219e-08
1.09326e-07
5.18568e-08
1.41279e-08
1.33511e-08
5.12195e-08
2.39372e-08
6.30513e-09
5.29916e-09
2.03618e-08
9.76637e-09
2.49494e-09
1.79619e-09
6.70567e-09
3.44029e-09
8.46649e-10
4.92178e-10
1.75057e-09
9.90575e-10
2.32839e-10
9.87752e-11
3.30246e-10
2.08264e-10
4.70299e-11
1.23888e-11
3.75343e-11
2.62229e-11
6.00908e-12
1.35541e-12
2.64377e-12
2.22882e-12
7.42059e-13
8.87218e-13
1.33198e-12
1.04816e-12
5.29262e-13
7.2456e-06
3.57669e-06
9.15563e-06
7.78356e-06
7.30911e-06
3.359e-06
9.25008e-06
8.03719e-06
7.37895e-06
3.18791e-06
9.3529e-06
8.00498e-06
7.4451e-06
3.07224e-06
9.458e-06
8.0544e-06
7.50484e-06
3.02037e-06
9.56019e-06
8.11412e-06
7.55589e-06
3.035e-06
9.65508e-06
8.15498e-06
7.59644e-06
3.11118e-06
9.73908e-06
8.17904e-06
7.62518e-06
2.9639e-06
9.80866e-06
8.18458e-06
7.64123e-06
2.72533e-06
9.86463e-06
8.17419e-06
7.64412e-06
2.58844e-06
9.45117e-06
8.15358e-06
7.63366e-06
2.58956e-06
8.75374e-06
8.12659e-06
7.61021e-06
2.73031e-06
8.2876e-06
8.09218e-06
7.57479e-06
3.02494e-06
8.19123e-06
8.04646e-06
7.45523e-06
3.47614e-06
8.35619e-06
7.98613e-06
7.32505e-06
3.99776e-06
8.58303e-06
7.91047e-06
7.18949e-06
4.40346e-06
8.72158e-06
7.82161e-06
7.05023e-06
4.61909e-06
8.73638e-06
7.72453e-06
6.92424e-06
4.8442e-06
8.67418e-06
7.62728e-06
6.81769e-06
5.2585e-06
8.58972e-06
7.53932e-06
6.71591e-06
5.75385e-06
8.50632e-06
7.4658e-06
6.58837e-06
6.1301e-06
8.42e-06
7.39947e-06
6.40711e-06
6.44001e-06
8.31869e-06
7.31616e-06
6.17273e-06
6.54123e-06
8.19573e-06
7.18217e-06
5.92411e-06
6.37029e-06
8.05296e-06
6.97432e-06
5.71321e-06
5.44073e-06
7.89798e-06
6.70007e-06
5.56599e-06
4.57082e-06
7.74002e-06
6.39903e-06
5.46975e-06
4.2548e-06
7.58692e-06
6.12326e-06
5.39419e-06
4.58444e-06
7.44405e-06
5.91377e-06
5.31539e-06
5.3789e-06
7.31464e-06
5.78821e-06
5.22416e-06
6.16194e-06
7.20001e-06
5.73989e-06
5.11994e-06
6.63984e-06
7.09984e-06
5.74127e-06
5.00432e-06
6.6271e-06
7.01188e-06
5.7506e-06
4.87983e-06
6.52344e-06
6.93106e-06
5.72434e-06
4.74943e-06
5.82444e-06
6.84974e-06
5.63446e-06
4.61581e-06
4.83589e-06
6.7596e-06
5.48029e-06
4.4805e-06
4.16921e-06
6.65398e-06
5.28475e-06
4.34366e-06
3.99481e-06
6.52908e-06
5.07767e-06
4.20497e-06
4.25917e-06
6.384e-06
4.88054e-06
4.06415e-06
4.75505e-06
6.21991e-06
4.70113e-06
3.92118e-06
5.14882e-06
6.03892e-06
4.53657e-06
3.77621e-06
5.27821e-06
5.84331e-06
4.37921e-06
3.62949e-06
5.21347e-06
5.63535e-06
4.22167e-06
3.48138e-06
5.02641e-06
5.41723e-06
4.05942e-06
3.33237e-06
4.78409e-06
5.191e-06
3.89112e-06
3.18294e-06
4.44635e-06
4.95851e-06
3.71762e-06
3.03349e-06
4.07628e-06
4.72141e-06
3.54061e-06
2.88433e-06
3.74536e-06
4.4812e-06
3.3617e-06
2.73569e-06
3.48979e-06
4.23921e-06
3.18208e-06
2.5876e-06
3.29913e-06
3.99666e-06
3.0025e-06
2.43967e-06
3.14031e-06
3.7546e-06
2.82345e-06
2.29114e-06
2.98157e-06
3.51389e-06
2.64502e-06
2.13988e-06
2.80646e-06
3.27513e-06
2.46567e-06
1.97525e-06
2.61467e-06
3.03872e-06
2.2802e-06
1.81444e-06
2.41268e-06
2.80471e-06
2.09743e-06
1.6595e-06
2.20738e-06
2.57167e-06
1.91891e-06
1.50941e-06
2.00793e-06
2.34254e-06
1.7447e-06
1.36331e-06
1.816e-06
2.11894e-06
1.57466e-06
1.22096e-06
1.63101e-06
1.90162e-06
1.40893e-06
1.0826e-06
1.45225e-06
1.69126e-06
1.24798e-06
9.48572e-07
1.27965e-06
1.48871e-06
1.09258e-06