/*--------------------------------*- C++ -*----------------------------------*\
| =========                 |                                                 |
| \\      /  F ield         | OpenFOAM: The Open Source CFD Toolbox           |
|  \\    /   O peration     | Version:  v1912                                 |
|   \\  /    A nd           | Website:  www.openfoam.com                      |
|    \\/     M anipulation  |                                                 |
\*---------------------------------------------------------------------------*/
FoamFile
{
    version     2.0;
    format      ascii;
    class       volScalarField;
    location    "96.8";
    object      turbulenceProperties:I;
}
// * * * * * * * * * * * * * * * * * * * * * * * * * * * * * * * * * * * * * //

dimensions      [0 0 0 0 0 0 0];


internalField   nonuniform List<scalar> 
2528
(
0.153587
0.155547
0.154793
0.152221
0.0273204
0.0252353
0.0275715
0.0269918
0.0299673
0.0247757
0.0295509
0.028599
0.0396616
0.0327054
0.0388333
0.0375018
0.0492775
0.0411215
0.0482372
0.0463659
0.0581199
0.0492841
0.0570548
0.0544959
0.0659643
0.0570112
0.0650433
0.0616819
0.0726765
0.0641814
0.0720334
0.0677911
0.0781925
0.0706907
0.0779127
0.0727471
0.0825273
0.0764596
0.0826439
0.0765467
0.0857753
0.0814443
0.0862722
0.0792639
0.0880862
0.0856444
0.0889077
0.0810322
0.0896277
0.0891001
0.0906998
0.0820041
0.0905617
0.0918836
0.0918023
0.0823584
0.091029
0.0940794
0.0923576
0.0822449
0.0911444
0.0957758
0.0924866
0.0817702
0.0909973
0.0970562
0.0922912
0.0810162
0.0906529
0.0979916
0.0918414
0.0800462
0.0901601
0.0986422
0.0911918
0.0789087
0.089556
0.0990563
0.0903847
0.0776399
0.0888677
0.0992744
0.0894507
0.0762678
0.0881161
0.099327
0.0884155
0.074814
0.0873156
0.0992409
0.0872973
0.0732949
0.0864768
0.0990359
0.0861108
0.071723
0.0856081
0.0987296
0.0848667
0.0701087
0.0847144
0.0983366
0.0835729
0.0684591
0.0837998
0.097868
0.0822357
0.0667814
0.0828672
0.0973346
0.0808593
0.0650812
0.0819188
0.0967449
0.0794472
0.063363
0.0809573
0.0961072
0.0780023
0.061632
0.0799835
0.0954298
0.0765271
0.0598932
0.079
0.094718
0.0750253
0.0581517
0.0780074
0.0939779
0.0735016
0.0564139
0.0770077
0.0932121
0.0719613
0.0546899
0.076002
0.0924248
0.0704109
0.0529898
0.0749918
0.0916192
0.0688568
0.0513214
0.0739785
0.0907976
0.0673046
0.0496909
0.0729637
0.0899644
0.0657576
0.0481083
0.0719489
0.0891217
0.0642191
0.0465915
0.0709357
0.0882748
0.0626933
0.0451627
0.0699266
0.0874275
0.0611871
0.0438396
0.0689229
0.086584
0.0597104
0.0426146
0.0679267
0.0857494
0.0582708
0.0414824
0.066938
0.0849285
0.0568669
0.04045
0.0659565
0.0841274
0.0554883
0.0395265
0.0649808
0.0833507
0.0541187
0.0387219
0.0640103
0.0826067
0.0527518
0.0380491
0.0630455
0.0819025
0.051397
0.0375248
0.0620874
0.0812441
0.0500755
0.037158
0.0611359
0.0806354
0.0488049
0.0369483
0.060171
0.0800761
0.0475891
0.0368917
0.0591324
0.0795699
0.0464208
0.036981
0.0579302
0.0791258
0.0452906
0.0372065
0.0565446
0.0787396
0.0441918
0.037556
0.055124
0.07837
0.0431265
0.0380158
0.0538407
0.077921
0.0421103
0.0385717
0.0526721
0.077274
0.0411622
0.0392093
0.0515719
0.0763922
0.0402938
0.0399156
0.0505402
0.0754037
0.0395145
0.0406778
0.0495752
0.0744885
0.0388328
0.0414851
0.0486786
0.0736912
0.0382507
0.0423283
0.0478548
0.0729927
0.0377644
0.0431986
0.0471097
0.0723716
0.0373665
0.0440886
0.0464481
0.0718148
0.0370491
0.0449905
0.0458723
0.0713191
0.0368049
0.0458972
0.0453828
0.0708828
0.0366269
0.0468012
0.04498
0.0705023
0.0365077
0.0476951
0.0446618
0.0701779
0.0364409
0.0485717
0.0444263
0.0699247
0.0364207
0.0494244
0.0442703
0.0697235
0.0364436
0.0502469
0.0441907
0.0694809
0.0365079
0.0510347
0.0441846
0.0690327
0.0366142
0.0517855
0.0442492
0.0683524
0.0367643
0.0524996
0.0443822
0.0676524
0.0369596
0.05318
0.0445813
0.067016
0.0372017
0.0538313
0.0448457
0.0664375
0.0374932
0.0544615
0.0451761
0.0658901
0.0378372
0.0550812
0.0455738
0.0653558
0.038236
0.0556885
0.0460376
0.0648238
0.0386887
0.0562463
0.167077
0.142569
0.155949
0.145299
0.0349831
0.0336464
0.033613
0.0312596
0.044039
0.0449149
0.0428705
0.0399211
0.0570983
0.0593295
0.0562903
0.05273
0.0693434
0.072208
0.068687
0.0644109
0.080325
0.0834755
0.0796065
0.074711
0.090006
0.0932363
0.0889182
0.0836092
0.0983611
0.101525
0.0965323
0.0910682
0.105349
0.108331
0.102426
0.0970627
0.110949
0.113653
0.10669
0.101625
0.115197
0.117551
0.109519
0.104867
0.118201
0.120157
0.111165
0.106958
0.120118
0.121654
0.111888
0.108098
0.12113
0.122241
0.111902
0.108469
0.12141
0.1221
0.111407
0.108268
0.121118
0.121404
0.110542
0.10764
0.120375
0.120294
0.109403
0.106693
0.119295
0.118875
0.108063
0.105506
0.117951
0.117224
0.106577
0.104141
0.116403
0.115397
0.104983
0.102643
0.114698
0.113442
0.103313
0.101046
0.112869
0.111391
0.101588
0.0993795
0.110946
0.109272
0.0998249
0.0976631
0.108949
0.107103
0.0980374
0.0959139
0.106898
0.104903
0.0962364
0.0941445
0.104807
0.102682
0.0944298
0.0923651
0.102688
0.100451
0.0926251
0.0905833
0.100549
0.0982134
0.0908276
0.0888053
0.0983979
0.0959771
0.0890431
0.0870371
0.0962407
0.0937469
0.0872767
0.0852834
0.094083
0.0915271
0.0855322
0.0835486
0.091931
0.0893211
0.0838141
0.0818364
0.0897909
0.0871323
0.0821245
0.0801495
0.0876677
0.0849628
0.0804653
0.0784908
0.0855679
0.0828148
0.0788368
0.076861
0.0834963
0.0806892
0.0772386
0.0752611
0.0814563
0.0785869
0.0756704
0.0736916
0.0794512
0.0765079
0.0741321
0.0721526
0.0774831
0.0744518
0.0726268
0.0706436
0.0755551
0.0724186
0.0711592
0.0691656
0.0736724
0.0704067
0.0697374
0.0677193
0.0718437
0.0684147
0.0683684
0.0663068
0.0700815
0.0664411
0.0670517
0.0649311
0.0683961
0.0644831
0.065776
0.063596
0.0667905
0.0625384
0.0645188
0.0623058
0.0652489
0.0606051
0.0632527
0.0610651
0.0637384
0.0586827
0.0619594
0.0598786
0.0622135
0.0567744
0.060644
0.0587487
0.0606346
0.0548907
0.059339
0.0576661
0.0589906
0.0530429
0.0580835
0.0566168
0.0573138
0.0512242
0.0568966
0.0555945
0.0556712
0.0494222
0.0557655
0.0545973
0.0541193
0.0476364
0.0546677
0.053624
0.0526667
0.0458706
0.0535908
0.0526735
0.051286
0.0441313
0.0525322
0.0517453
0.0499516
0.0424267
0.0514888
0.0508389
0.0486533
0.0407662
0.0504574
0.0499544
0.047387
0.0391597
0.0494362
0.049092
0.0461494
0.0376119
0.0484245
0.0482528
0.0449389
0.0361209
0.047422
0.047438
0.0437572
0.0346796
0.0464301
0.0466502
0.0426073
0.0332771
0.0454507
0.045892
0.0414885
0.0319013
0.0444871
0.0451673
0.0403999
0.0305397
0.0435435
0.0444798
0.0393421
0.0291811
0.0426251
0.043833
0.0383139
0.0278176
0.0417394
0.0432299
0.0373148
0.0264481
0.0408957
0.042673
0.0363427
0.0250839
0.040105
0.0421621
0.0353953
0.0237576
0.0393779
0.0416939
0.0344697
0.0225332
0.0387255
0.0412585
0.0335624
0.0215178
0.0381581
0.0408402
0.0326689
0.020858
0.0376859
0.0404304
0.0317845
0.020689
0.0373174
0.0400403
0.0309042
0.0210557
0.0370598
0.0396956
0.0300225
0.0218915
0.0369181
0.0394292
0.0291366
0.0230661
0.0368949
0.0392763
0.0282486
0.0244445
0.0369912
0.0392722
0.027374
0.0259178
0.0372058
0.0394489
0.0265506
0.02741
0.037534
0.0398304
0.138664
0.13019
0.137922
0.140627
0.0311393
0.0292272
0.0293001
0.0292219
0.0401569
0.0375557
0.036607
0.0358588
0.0530787
0.0493499
0.0483027
0.047186
0.0645642
0.0595963
0.0587639
0.0573612
0.074467
0.0684982
0.0678245
0.0661112
0.0827769
0.076264
0.0754776
0.0733862
0.0894649
0.0829635
0.0816909
0.0791544
0.0945485
0.0885967
0.0864626
0.083441
0.0981331
0.0931565
0.089861
0.0863471
0.100401
0.096667
0.0920278
0.0880404
0.101571
0.0991977
0.0931396
0.0887061
0.101877
0.100854
0.0934088
0.0886387
0.101568
0.101763
0.0930714
0.0880324
0.100812
0.102046
0.0922919
0.087027
0.0997321
0.101858
0.0911877
0.0857264
0.0984179
0.101324
0.0898482
0.0842082
0.0969363
0.100534
0.0883397
0.082532
0.0953374
0.0995599
0.0867113
0.0807434
0.0936589
0.0984533
0.0850023
0.0788776
0.0919305
0.0972537
0.0832406
0.0769619
0.0901736
0.0959909
0.0814493
0.0750179
0.0884057
0.0946899
0.0796467
0.0730631
0.086641
0.0933678
0.0778468
0.0711111
0.0848901
0.0920394
0.0760608
0.0691733
0.0831605
0.0907179
0.074297
0.0672584
0.0814577
0.0894134
0.0725629
0.0653741
0.0797862
0.0881343
0.0708628
0.063527
0.0781496
0.0868863
0.069201
0.0617231
0.0765506
0.0856714
0.067585
0.0599681
0.0749922
0.0844968
0.0660277
0.0582711
0.0734777
0.0833699
0.0645462
0.0566481
0.0720112
0.0822981
0.0631563
0.0551192
0.0705983
0.0812858
0.0618608
0.0537033
0.0692464
0.0803322
0.0606477
0.0524034
0.0679627
0.079434
0.0595065
0.0511979
0.0667527
0.0785885
0.0584363
0.050077
0.0656185
0.0777965
0.0574377
0.0490463
0.0645554
0.0770571
0.0565104
0.0481098
0.0635539
0.0763706
0.055653
0.0472701
0.0626008
0.0757354
0.0548638
0.0465291
0.0616882
0.0751501
0.0541406
0.045888
0.0608129
0.0746128
0.0534811
0.0453472
0.0599711
0.0741219
0.0528829
0.0449063
0.0591601
0.073674
0.0523439
0.0445649
0.058377
0.0732665
0.0518618
0.0443221
0.0576188
0.0728969
0.051434
0.0441769
0.0568832
0.0725628
0.051056
0.0441276
0.0561686
0.0722613
0.0507231
0.0441731
0.0554721
0.0719883
0.0504294
0.0443117
0.0547911
0.07174
0.0501695
0.0445412
0.0541228
0.0715119
0.0499377
0.0448591
0.0534644
0.0712997
0.0497294
0.0452623
0.0528144
0.0710985
0.0495397
0.0457474
0.0521715
0.0709042
0.0493645
0.0463107
0.0515363
0.070712
0.049199
0.0469481
0.0509108
0.070519
0.0490392
0.0476559
0.0502979
0.0703221
0.0488804
0.0484296
0.0497026
0.0701194
0.0487183
0.0492652
0.0491327
0.06991
0.0485495
0.0501589
0.0486
0.0696937
0.0483737
0.051106
0.0481175
0.0694699
0.0481935
0.0521019
0.0476986
0.0692391
0.0480127
0.0531413
0.047355
0.069001
0.0478337
0.0542177
0.047098
0.0687552
0.0476585
0.0553229
0.0469366
0.0685006
0.047488
0.0564366
0.0468779
0.0682352
0.0473244
0.0575252
0.0469263
0.0679564
0.0471693
0.0586633
0.0470835
0.0676611
0.0470259
0.0600203
0.0473481
0.0673453
0.0468972
0.0615984
0.0477163
0.067005
0.0467862
0.0629843
0.0481818
0.0666364
0.0466973
0.0636478
0.0487366
0.0662371
0.0466353
0.0637267
0.0493699
0.065806
0.0466051
0.0635767
0.0500705
0.0653446
0.0466113
0.0633977
0.0508268
0.0648558
0.046658
0.0632681
0.0516271
0.0643433
0.0467486
0.0631987
0.0524615
0.0638126
0.0468855
0.0631783
0.0533247
0.0632724
0.0470751
0.063208
0.136647
0.148533
0.141227
0.147984
0.0238155
0.0237871
0.0264944
0.0266814
0.0230848
0.0208993
0.029792
0.0286362
0.0305067
0.0270284
0.0398715
0.0378575
0.0380526
0.0336148
0.0495848
0.0469393
0.0451172
0.0398865
0.0583963
0.0552661
0.051587
0.0456798
0.0661508
0.062677
0.0573826
0.0508937
0.0727425
0.0690712
0.062439
0.0554527
0.0781218
0.0743911
0.0667191
0.0593139
0.0823154
0.0786375
0.0702224
0.0624718
0.0854259
0.0818748
0.072985
0.064958
0.0876029
0.0842164
0.0750721
0.0668317
0.0890106
0.085805
0.0765666
0.0681681
0.0898172
0.0867854
0.077561
0.0690621
0.0901795
0.0872858
0.0781721
0.0696145
0.0902128
0.0874248
0.0784868
0.0699003
0.0900049
0.0872961
0.0785729
0.0699783
0.0896217
0.0869688
0.078483
0.0698972
0.0891147
0.0864964
0.0782608
0.0696962
0.0885232
0.0859199
0.0779399
0.0694077
0.0878785
0.0852709
0.0775488
0.0690586
0.0872024
0.084572
0.0771112
0.0686717
0.0865106
0.0838385
0.0766477
0.0682638
0.0858108
0.0830815
0.0761742
0.067849
0.0851091
0.0823087
0.0757012
0.067437
0.0844067
0.081525
0.0752334
0.0670341
0.0837033
0.0807331
0.0747721
0.0666434
0.0829993
0.0799341
0.0743156
0.0662673
0.0822936
0.0791285
0.0738641
0.0659074
0.0815847
0.0783153
0.073416
0.0655646
0.0808709
0.0774937
0.0729689
0.0652374
0.0801501
0.0766627
0.0725208
0.0649253
0.0794209
0.075821
0.0720683
0.0646263
0.0786817
0.0749661
0.0716085
0.064339
0.077931
0.0740962
0.071139
0.0640608
0.0771687
0.0732094
0.0706567
0.0637898
0.0763945
0.0723041
0.0701603
0.0635242
0.0756082
0.071379
0.0696481
0.0632621
0.0748096
0.070434
0.0691188
0.0630008
0.0739997
0.0694686
0.0685722
0.062739
0.0731782
0.0684831
0.0680081
0.0624748
0.0723461
0.0674763
0.067426
0.0622069
0.0715035
0.0664485
0.0668263
0.0619334
0.0706515
0.0653989
0.0662082
0.0616536
0.0697897
0.0643274
0.065572
0.0613657
0.0689171
0.0632344
0.0649173
0.0610684
0.0680334
0.0621208
0.0642441
0.0607592
0.0671388
0.0609884
0.0635519
0.060437
0.0662336
0.059841
0.0628399
0.0600992
0.0653183
0.0586839
0.062107
0.0597419
0.0643944
0.0575236
0.0613516
0.0593606
0.0634648
0.0563652
0.0605748
0.0589465
0.062533
0.0552097
0.0597801
0.0584905
0.0616062
0.0540482
0.0589764
0.0579799
0.0606868
0.0528721
0.058168
0.0574033
0.0597745
0.0516805
0.0573318
0.0567516
0.0588663
0.0504748
0.0563745
0.0560249
0.0579392
0.0492571
0.0551665
0.0552329
0.056889
0.0480311
0.0537124
0.05439
0.0555888
0.0468015
0.0522374
0.0535103
0.0540859
0.0455757
0.0509348
0.0526044
0.0526168
0.0443629
0.0497693
0.0516785
0.0513389
0.0431759
0.0486476
0.0507355
0.0501935
0.0420317
0.0475459
0.0497747
0.0490745
0.0409538
0.0464829
0.0487861
0.0479541
0.0399718
0.045472
0.0477618
0.0468479
0.0391195
0.0445286
0.0466978
0.0457679
0.0384353
0.04367
0.0455883
0.0447252
0.0379608
0.0429087
0.0444249
0.0437327
0.03774
0.0422557
0.043198
0.0428046
0.0378137
0.0417214
0.0418981
0.0419575
0.0382029
0.0413153
0.0405209
0.0412089
0.0388946
0.041045
0.039071
0.0405768
0.0398497
0.0409155
0.0375611
0.0400794
0.0410159
0.0409293
0.0360115
0.0397328
0.0423369
0.0410856
0.0344461
0.0395504
0.0437587
0.0413815
0.0328929
0.0395423
0.0452341
0.0418145
0.0313903
0.0397161
0.0467257
0.0465611
0.0642855
0.0391872
0.056702
0.0471379
0.063741
0.039722
0.0570787
0.0477651
0.0631975
0.0402886
0.057458
0.0484418
0.0626585
0.0408861
0.0578787
0.0491624
0.062125
0.0415113
0.0583418
0.0499208
0.0615987
0.0421629
0.0588476
0.050712
0.0610833
0.0428407
0.0593937
0.0515298
0.0605838
0.0435451
0.0599759
0.0523696
0.0601073
0.0442779
0.0605878
0.0532264
0.0596618
0.0450403
0.0612235
0.0540968
0.0592561
0.0458341
0.0618762
0.0549772
0.0589007
0.0466615
0.0625402
0.0558647
0.0586051
0.0475242
0.06321
0.0567575
0.0583793
0.0484235
0.0638814
0.0576534
0.0582317
0.0493597
0.0645502
0.0585509
0.0581687
0.0503312
0.0652145
0.0594489
0.0581962
0.0513362
0.0658722
0.0603464
0.058318
0.0523727
0.0665218
0.0612426
0.0585368
0.0534379
0.0671637
0.0621371
0.0588541
0.0545292
0.0677975
0.0630297
0.0592692
0.0556433
0.0684248
0.0639201
0.0597801
0.0567777
0.0690468
0.0648092
0.0603842
0.0579286
0.0696655
0.0656977
0.061078
0.0590936
0.0702829
0.066587
0.0618573
0.0602694
0.0709028
0.0674782
0.0627189
0.0614537
0.071528
0.0683736
0.0636586
0.0626436
0.0721626
0.069275
0.0646732
0.0638373
0.0728107
0.0701839
0.0657575
0.0650332
0.0734764
0.071103
0.0669038
0.0662342
0.0741626
0.072034
0.0681042
0.0674439
0.0748744
0.0729797
0.0693504
0.0686566
0.0756158
0.0739429
0.0706348
0.0698536
0.0763935
0.0749265
0.0719506
0.071023
0.0772124
0.0759359
0.0732958
0.0721693
0.0780748
0.0769758
0.0746683
0.0733069
0.0789779
0.0780532
0.0760552
0.0744496
0.079916
0.0791731
0.0774495
0.0756066
0.0808829
0.0803395
0.0788616
0.0767834
0.0818741
0.0815528
0.0803046
0.0779855
0.0828879
0.0828135
0.0817863
0.0792173
0.0839268
0.0841217
0.0833088
0.0804835
0.0849931
0.0854759
0.0848689
0.0817892
0.0860899
0.0868763
0.0864622
0.0831386
0.0872193
0.0883212
0.0880867
0.0845358
0.0883819
0.0898104
0.089743
0.0859847
0.0895771
0.0913415
0.0914329
0.0874881
0.0908039
0.0929139
0.0931593
0.089048
0.0920605
0.0945247
0.094925
0.0906658
0.0933435
0.0961714
0.0967312
0.0923412
0.0946489
0.0978499
0.0985796
0.0940728
0.0959666
0.0995556
0.100471
0.0958572
0.0972819
0.101282
0.102404
0.0976911
0.0985767
0.103022
0.104378
0.0995675
0.0998345
0.104764
0.106391
0.101479
0.101033
0.106495
0.108439
0.103414
0.102147
0.10819
0.110514
0.105357
0.103143
0.109819
0.112607
0.107282
0.103978
0.111343
0.114702
0.109157
0.104602
0.112715
0.116776
0.110941
0.104943
0.113868
0.118793
0.112577
0.104924
0.114718
0.120702
0.11399
0.10443
0.115158
0.122433
0.11508
0.103345
0.115041
0.123883
0.115712
0.101587
0.114158
0.12491
0.115696
0.0990927
0.112313
0.125305
0.114782
0.0958421
0.109351
0.124754
0.11276
0.0918617
0.105182
0.122936
0.109435
0.0872208
0.0998249
0.119507
0.104713
0.0820129
0.0934061
0.114214
0.0986335
0.0763284
0.0861136
0.10702
0.0913647
0.07023
0.0781264
0.0981188
0.0831291
0.0637411
0.0695631
0.087843
0.0741156
0.056848
0.0604698
0.0765002
0.0644336
0.0495151
0.0508489
0.0642899
0.0541278
0.0417141
0.0407345
0.0513584
0.0432621
0.0334979
0.0305668
0.0381727
0.0322911
0.0253958
0.0259455
0.0296089
0.0266002
0.0231888
0.148811
0.149851
0.148915
0.148548
0.0258579
0.0288574
0.0379663
0.0404213
0.0254098
0.0302092
0.0384899
0.0412013
0.025311
0.0314495
0.0390919
0.0421381
0.025628
0.032583
0.0397632
0.0432018
0.026365
0.0336194
0.0404946
0.0443636
0.0274648
0.0345698
0.0412778
0.0455998
0.0288425
0.0354461
0.0421064
0.0468898
0.0304118
0.0362601
0.0429749
0.0482167
0.0320991
0.0370218
0.0438785
0.0495665
0.0338503
0.037741
0.0448132
0.0509284
0.0356294
0.0384258
0.0457748
0.0522927
0.0374136
0.039084
0.04676
0.053652
0.039189
0.0397222
0.0477674
0.0550005
0.0409476
0.0403464
0.0487952
0.0563329
0.0426852
0.0409621
0.049842
0.057645
0.0444003
0.0415742
0.0509052
0.0589341
0.0460922
0.0421878
0.0519825
0.0601976
0.0477611
0.0428068
0.0530726
0.0614336
0.0494076
0.0434356
0.0541743
0.062641
0.0510282
0.0440781
0.0552859
0.0638185
0.0526137
0.0447375
0.0564067
0.0649663
0.0541566
0.0454175
0.0575357
0.0660838
0.0556513
0.0461207
0.0586721
0.0671714
0.0570945
0.0468507
0.0598155
0.0682292
0.0584864
0.0476103
0.0609654
0.0692586
0.0598317
0.0484016
0.0621214
0.0702601
0.0611358
0.0492257
0.063284
0.0712344
0.0624019
0.050084
0.064453
0.0721833
0.0636316
0.0509778
0.0656289
0.0731075
0.0648267
0.0519072
0.0668121
0.0740091
0.0659899
0.0528728
0.0680036
0.0748891
0.0671241
0.0538745
0.0692048
0.0757504
0.0682298
0.0549122
0.0704211
0.0765944
0.0693083
0.0559844
0.0716567
0.0774235
0.0703619
0.05709
0.0729111
0.0782413
0.071392
0.0582267
0.074182
0.07905
0.0724007
0.0593928
0.0754675
0.0798524
0.0733914
0.0605854
0.0767656
0.0806517
0.0743669
0.0618025
0.0780736
0.0814503
0.0753307
0.0630416
0.0793899
0.0822513
0.0762858
0.0643014
0.0807129
0.0830574
0.0772368
0.0655812
0.082042
0.0838706
0.0781863
0.0668814
0.0833763
0.0846938
0.0791393
0.068203
0.0847161
0.0855285
0.0800982
0.0695487
0.0860611
0.0863775
0.081067
0.0709233
0.0874114
0.0872418
0.0820488
0.0723314
0.0887666
0.0881233
0.0830465
0.0737744
0.0901263
0.0890222
0.0840606
0.0752493
0.0914897
0.0899404
0.0850921
0.0767469
0.0928544
0.0908767
0.0861402
0.078252
0.0942183
0.0918316
0.0872035
0.0797556
0.0955772
0.0928045
0.0882806
0.0812515
0.0969246
0.0937909
0.0893653
0.0827289
0.0982532
0.0947817
0.0904467
0.0841745
0.0995516
0.0957581
0.0915053
0.085571
0.100806
0.0966944
0.092514
0.0868954
0.101994
0.0975595
0.0934399
0.088121
0.103089
0.0983176
0.094241
0.089212
0.104054
0.0989248
0.0948662
0.0901246
0.104844
0.0993263
0.0952477
0.0907997
0.105399
0.0994545
0.0953017
0.0911656
0.10564
0.0992252
0.0949197
0.0911302
0.105464
0.0985306
0.0939585
0.0905736
0.104739
0.0972199
0.0922805
0.0893197
0.103275
0.0951582
0.089767
0.0872397
0.100918
0.0922222
0.0863312
0.0842223
0.0975316
0.0883304
0.0819498
0.0802135
0.0930346
0.0834758
0.0766834
0.0752481
0.0874388
0.0777411
0.0706738
0.0694465
0.0808561
0.0712892
0.0641098
0.0629915
0.073468
0.0643246
0.0571758
0.0560831
0.0654669
0.0570421
0.0500088
0.0488982
0.0570035
0.0495895
0.0426804
0.0415745
0.0481759
0.0420614
0.0352043
0.0342262
0.0390646
0.0345204
0.0275913
0.0270221
0.0298216
0.0270724
0.0203216
0.0207087
0.0211078
0.0203608
0.0211455
0.0229674
0.0206508
0.0219865
0.134726
0.163081
0.136248
0.148946
0.0542068
0.0627441
0.0473229
0.0632955
0.0550868
0.0622452
0.0476242
0.0634383
0.0559471
0.061778
0.0479683
0.0636306
0.0567846
0.0613399
0.0483491
0.0638737
0.0576022
0.0609341
0.048765
0.064173
0.0584045
0.060563
0.0492144
0.0645322
0.0591964
0.0602296
0.0496969
0.0649524
0.0599835
0.0599349
0.0502123
0.065433
0.0607716
0.0596798
0.0507604
0.0659722
0.0615664
0.0594638
0.0513418
0.0665671
0.062373
0.0592861
0.0519574
0.067214
0.0631965
0.0591447
0.0526076
0.0679094
0.0640406
0.0590381
0.0532926
0.0686485
0.0649092
0.0589644
0.0540134
0.0694276
0.0658055
0.0589234
0.0547706
0.0702422
0.0667316
0.0589158
0.0555649
0.0710891
0.0676884
0.0589429
0.0563976
0.0719641
0.0686751
0.059007
0.0572693
0.072865
0.0696845
0.0591099
0.0581792
0.0737884
0.0707108
0.0592542
0.059127
0.0747327
0.0718122
0.0594435
0.0601111
0.0756959
0.0730889
0.0596811
0.0611295
0.0766765
0.0744947
0.059971
0.0621796
0.0776734
0.0758009
0.0603167
0.0632584
0.0786867
0.0768796
0.0607209
0.0643628
0.0797148
0.0778231
0.0611854
0.0654892
0.0807571
0.0787529
0.06171
0.0666337
0.0818117
0.079702
0.0622939
0.0677929
0.0828757
0.0806786
0.0629363
0.0689637
0.0839479
0.0816796
0.0636377
0.0701427
0.0850267
0.0827016
0.0643989
0.0713274
0.0861118
0.0837438
0.0652203
0.0725157
0.0872027
0.0848039
0.0661019
0.0737065
0.0882993
0.0858805
0.0670425
0.0748985
0.0894018
0.0869713
0.0680402
0.0760915
0.09051
0.0880747
0.0690914
0.0772861
0.0916238
0.0891898
0.070192
0.0784831
0.0927425
0.0903157
0.0713379
0.0796829
0.0938656
0.0914514
0.0725265
0.080888
0.0949906
0.0925963
0.0737568
0.0820997
0.0961169
0.0937491
0.0750281
0.0833202
0.0972429
0.0949088
0.0763406
0.0845512
0.0983668
0.0960742
0.0776936
0.085795
0.0994869
0.0972436
0.0790877
0.0870536
0.100602
0.0984157
0.0805222
0.0883288
0.101709
0.099589
0.0819971
0.0896233
0.102806
0.100762
0.0835123
0.0909372
0.103889
0.101932
0.0850679
0.0922728
0.104954
0.103097
0.0866631
0.0936309
0.105997
0.104255
0.0882976
0.0950116
0.107011
0.105402
0.0899739
0.0964164
0.10799
0.106534
0.0916981
0.0978465
0.108923
0.107644
0.0934749
0.0993063
0.109799
0.108725
0.095307
0.10079
0.110603
0.109767
0.097197
0.102289
0.111317
0.110756
0.0991454
0.103794
0.111917
0.111672
0.101145
0.105292
0.112373
0.11249
0.103178
0.106764
0.112649
0.113176
0.105228
0.108186
0.112694
0.113686
0.107271
0.109523
0.112451
0.113958
0.109273
0.110729
0.111846
0.113913
0.111193
0.11174
0.110792
0.113443
0.112968
0.11247
0.109194
0.112424
0.114513
0.112801
0.106949
0.110709
0.115707
0.112573
0.103961
0.108141
0.116374
0.111549
0.100162
0.104581
0.116267
0.109496
0.0955279
0.0999375
0.115023
0.106171
0.0900944
0.0942133
0.112266
0.101403
0.0839614
0.0875143
0.107663
0.0951731
0.0772738
0.0800318
0.101042
0.0876717
0.0701889
0.0719872
0.0925263
0.0792566
0.0628417
0.0635691
0.08252
0.0703259
0.0553184
0.0548931
0.0714925
0.061179
0.0476461
0.0459977
0.059756
0.0519377
0.0397921
0.0368866
0.0474094
0.0425244
0.0316993
0.0279409
0.0346817
0.0329446
0.0237477
0.0270592
0.027668
0.0296417
0.0239782
0.15731
0.145872
0.156889
0.14589
0.042378
0.0300078
0.0400721
0.0481958
0.0430505
0.0288359
0.0405934
0.0496079
0.0438074
0.0279486
0.0412523
0.0509431
0.0446324
0.0274062
0.042025
0.0522007
0.0455128
0.0272508
0.0428915
0.0533874
0.0464373
0.0274912
0.043834
0.0545165
0.047397
0.0280964
0.044836
0.0555973
0.0483835
0.0290278
0.0458815
0.056639
0.0493908
0.0302906
0.0469528
0.0576506
0.0504135
0.031862
0.0480674
0.0586395
0.0514479
0.0336547
0.0492607
0.0596124
0.0524913
0.0355626
0.0505175
0.0605765
0.0535419
0.037481
0.0517936
0.0615386
0.0545993
0.0393296
0.0530526
0.0625061
0.0556634
0.0410901
0.054287
0.0634859
0.0567374
0.042816
0.0555084
0.0644843
0.0578271
0.0445628
0.0567356
0.0655071
0.0589353
0.0463317
0.05798
0.0665582
0.0600629
0.048066
0.0592438
0.0676404
0.0612123
0.0497361
0.0605253
0.0687552
0.0623901
0.0513818
0.0618226
0.0699038
0.0636066
0.0530333
0.0631364
0.0710901
0.064873
0.0546875
0.0644679
0.0723216
0.0661963
0.0564025
0.0658187
0.0736104
0.0675705
0.0583174
0.0671886
0.0749676
0.0689796
0.0605103
0.0685756
0.0763976
0.0704078
0.0628633
0.0699752
0.0778933
0.0718481
0.0651074
0.071383
0.0794356
0.0733027
0.0670267
0.0727927
0.0809978
0.074776
0.0686946
0.0741987
0.0825559
0.0762733
0.0703
0.0755954
0.0840952
0.0778
0.0719203
0.0769793
0.0856165
0.0793588
0.0736057
0.0783479
0.0871322
0.0809531
0.0754577
0.0797009
0.0886633
0.0825854
0.0775808
0.081041
0.0902315
0.0842567
0.0799499
0.0823724
0.0918521
0.0859677
0.0823305
0.0836999
0.0935293
0.0877173
0.0844471
0.0850293
0.0952588
0.0895062
0.0862093
0.0863666
0.0970303
0.0913351
0.0877395
0.0877165
0.0988357
0.0932039
0.0892129
0.0890828
0.10067
0.095113
0.0907203
0.090469
0.102532
0.0970627
0.0922954
0.0918786
0.104426
0.0990525
0.0939566
0.093314
0.106354
0.101082
0.0957277
0.0947775
0.108322
0.10315
0.0976296
0.0962711
0.110332
0.105255
0.0996534
0.0977956
0.112384
0.107393
0.101754
0.0993518
0.114478
0.109561
0.103877
0.100939
0.116614
0.111755
0.105984
0.102558
0.118787
0.113971
0.108069
0.104205
0.120993
0.1162
0.110144
0.105878
0.123225
0.118439
0.112225
0.107573
0.125478
0.120678
0.114322
0.109284
0.127743
0.1229
0.11643
0.111002
0.130004
0.125079
0.118533
0.112719
0.13224
0.127186
0.120606
0.114416
0.13442
0.129185
0.12261
0.116072
0.136507
0.131026
0.124506
0.117657
0.138453
0.132646
0.126242
0.11913
0.140193
0.133968
0.127745
0.120437
0.141637
0.134881
0.128925
0.121504
0.142667
0.135228
0.129655
0.122233
0.143125
0.134879
0.129761
0.122487
0.14288
0.133675
0.129026
0.12208
0.141786
0.131474
0.127278
0.120825
0.139715
0.128185
0.124372
0.118513
0.136589
0.123793
0.120231
0.114971
0.132405
0.118357
0.114881
0.11011
0.12724
0.111987
0.108466
0.103968
0.121217
0.104789
0.101202
0.0966953
0.114452
0.0968272
0.0932781
0.0884967
0.107001
0.0881007
0.0847706
0.0795432
0.098823
0.0785516
0.0755751
0.0699217
0.0897355
0.0681053
0.0653493
0.0596371
0.0793437
0.0567635
0.0534159
0.0486743
0.0668639
0.0451034
0.0388828
0.0373777
0.0510472
0.0369356
0.0275445
0.0308134
0.0364516
0.181817
0.119196
0.16377
0.142716
)
;

boundaryField
{
    leftWall
    {
        type            calculated;
        value           uniform 1;
    }
    rightWall
    {
        type            calculated;
        value           uniform 1;
    }
    leftSides_periodic0
    {
        type            cyclic;
    }
    leftSides_periodic1
    {
        type            cyclic;
    }
    rightSides_periodic0
    {
        type            cyclic;
    }
    rightSides_periodic1
    {
        type            cyclic;
    }
    leftInOut_periodic0
    {
        type            cyclic;
    }
    leftInOut_periodic1
    {
        type            cyclic;
    }
    rightInOut_periodic0
    {
        type            cyclic;
    }
    rightInOut_periodic1
    {
        type            cyclic;
    }
}


// ************************************************************************* //
