/*--------------------------------*- C++ -*----------------------------------*\
| =========                 |                                                 |
| \\      /  F ield         | OpenFOAM: The Open Source CFD Toolbox           |
|  \\    /   O peration     | Version:  v1912                                 |
|   \\  /    A nd           | Website:  www.openfoam.com                      |
|    \\/     M anipulation  |                                                 |
\*---------------------------------------------------------------------------*/
FoamFile
{
    version     2.0;
    format      ascii;
    class       volScalarField;
    location    "96.8";
    object      turbulenceProperties:nuTilda;
}
// * * * * * * * * * * * * * * * * * * * * * * * * * * * * * * * * * * * * * //

dimensions      [0 2 -1 0 0 0 0];


internalField   nonuniform List<scalar> 
2528
(
1.65552e-11
6.64441e-12
1.20337e-11
1.70634e-11
2.79385e-11
9.81912e-12
2.16505e-11
2.8831e-11
2.66716e-10
7.52064e-11
1.97967e-10
2.5067e-10
1.79749e-09
5.10712e-10
1.30852e-09
1.63261e-09
7.3026e-09
2.1741e-09
5.3027e-09
6.5027e-09
2.12277e-08
6.72716e-09
1.55732e-08
1.86539e-08
4.89613e-08
1.66737e-08
3.65695e-08
4.26259e-08
9.54484e-08
3.50941e-08
7.27938e-08
8.24709e-08
1.63972e-07
6.5142e-08
1.27626e-07
1.40613e-07
2.55634e-07
1.09487e-07
2.02563e-07
2.1733e-07
3.69609e-07
1.69895e-07
2.97158e-07
3.10976e-07
5.0385e-07
2.47066e-07
4.0952e-07
4.18665e-07
6.55797e-07
3.40723e-07
5.36997e-07
5.37171e-07
8.22877e-07
4.49878e-07
6.76708e-07
6.6411e-07
1.00286e-06
5.7308e-07
8.25993e-07
7.97521e-07
1.19397e-06
7.08682e-07
9.8277e-07
9.35469e-07
1.39468e-06
8.5496e-07
1.14536e-06
1.07617e-06
1.60339e-06
1.01022e-06
1.312e-06
1.21849e-06
1.81858e-06
1.17285e-06
1.48101e-06
1.36111e-06
2.03885e-06
1.3413e-06
1.65082e-06
1.50284e-06
2.26312e-06
1.5141e-06
1.81994e-06
1.6426e-06
2.49014e-06
1.68989e-06
1.98759e-06
1.77942e-06
2.71876e-06
1.86734e-06
2.15371e-06
1.91237e-06
2.94794e-06
2.0453e-06
2.31771e-06
2.04069e-06
3.17676e-06
2.22331e-06
2.47911e-06
2.16455e-06
3.40437e-06
2.4016e-06
2.63751e-06
2.28401e-06
3.63008e-06
2.5806e-06
2.7927e-06
2.39902e-06
3.85316e-06
2.76036e-06
2.94441e-06
2.50968e-06
4.07284e-06
2.94091e-06
3.09261e-06
2.61622e-06
4.28849e-06
3.12224e-06
3.23745e-06
2.71891e-06
4.50212e-06
3.30443e-06
3.37906e-06
2.81815e-06
4.71385e-06
3.48778e-06
3.51763e-06
2.91429e-06
4.92363e-06
3.67276e-06
3.65313e-06
3.00744e-06
5.13141e-06
3.85993e-06
3.78551e-06
3.09599e-06
5.33708e-06
4.0499e-06
3.91459e-06
3.17758e-06
5.54047e-06
4.24332e-06
4.04016e-06
3.25151e-06
5.74137e-06
4.44088e-06
4.16193e-06
3.31868e-06
5.93952e-06
4.64333e-06
4.27965e-06
3.38088e-06
6.13451e-06
4.8512e-06
4.39312e-06
3.44051e-06
6.32587e-06
5.06485e-06
4.50203e-06
3.49996e-06
6.51288e-06
5.28437e-06
4.60583e-06
3.5614e-06
6.69478e-06
5.50919e-06
4.70375e-06
3.62659e-06
6.87062e-06
5.73587e-06
4.79498e-06
3.69828e-06
7.03953e-06
5.96232e-06
4.87909e-06
3.77992e-06
7.20102e-06
6.18982e-06
4.95575e-06
3.87627e-06
7.35474e-06
6.41808e-06
5.02433e-06
3.99358e-06
7.49997e-06
6.64666e-06
5.08403e-06
4.13709e-06
7.63539e-06
6.87496e-06
5.13485e-06
4.30289e-06
7.75815e-06
7.10088e-06
5.1785e-06
4.48639e-06
7.86617e-06
7.32226e-06
5.21702e-06
4.68935e-06
7.96097e-06
7.538e-06
5.25134e-06
4.91331e-06
8.0468e-06
7.74648e-06
5.28174e-06
5.1587e-06
8.13311e-06
7.94585e-06
5.30851e-06
5.42486e-06
8.22364e-06
8.13781e-06
5.3324e-06
5.70991e-06
8.30941e-06
8.33074e-06
5.35512e-06
6.01102e-06
8.39678e-06
8.53903e-06
5.37996e-06
6.32452e-06
8.4911e-06
8.78078e-06
5.41078e-06
6.64631e-06
8.59273e-06
9.06495e-06
5.44769e-06
6.97205e-06
8.69711e-06
9.37027e-06
5.49079e-06
7.29733e-06
8.80832e-06
9.66148e-06
5.54397e-06
7.61841e-06
8.93381e-06
9.93505e-06
5.60806e-06
7.92028e-06
9.07442e-06
1.02079e-05
5.68356e-06
8.20296e-06
9.22666e-06
1.04844e-05
5.77071e-06
8.46418e-06
9.38777e-06
1.0763e-05
5.87114e-06
8.70314e-06
9.55753e-06
1.10419e-05
5.98504e-06
8.92076e-06
9.7352e-06
1.13189e-05
6.11161e-06
9.11965e-06
9.92002e-06
1.15901e-05
6.24993e-06
9.3016e-06
1.01101e-05
1.18517e-05
6.39816e-06
9.46896e-06
1.03024e-05
1.20989e-05
6.55362e-06
9.62372e-06
1.04931e-05
1.23392e-05
6.71145e-06
9.76763e-06
1.06805e-05
1.25963e-05
6.86841e-06
9.90201e-06
1.08622e-05
1.28963e-05
7.0234e-06
1.00251e-05
1.10364e-05
1.32322e-05
7.17611e-06
1.01301e-05
1.12016e-05
1.35365e-05
7.32515e-06
1.02184e-05
1.13549e-05
1.37933e-05
7.46853e-06
1.02906e-05
1.14966e-05
1.40306e-05
7.60394e-06
1.03468e-05
1.16256e-05
1.42496e-05
7.72942e-06
1.03861e-05
1.17412e-05
1.44477e-05
7.84278e-06
1.04057e-05
1.18417e-05
1.46212e-05
7.9465e-06
1.04166e-05
2.12628e-12
2.31984e-12
6.96874e-12
5.07233e-12
6.47719e-12
6.98297e-12
1.89315e-11
1.24632e-11
9.54112e-11
1.03324e-10
2.62775e-10
1.66638e-10
6.96919e-10
7.55552e-10
1.87066e-09
1.19418e-09
3.02339e-09
3.27817e-09
7.84672e-09
5.07325e-09
9.44377e-09
1.02328e-08
2.34196e-08
1.54021e-08
2.35061e-08
2.54278e-08
5.51069e-08
3.69808e-08
4.94128e-08
5.32997e-08
1.0873e-07
7.45797e-08
9.10374e-08
9.77894e-08
1.87501e-07
1.31502e-07
1.50896e-07
1.61205e-07
2.91295e-07
2.08714e-07
2.29563e-07
2.43653e-07
4.17322e-07
3.04912e-07
3.25778e-07
3.43256e-07
5.61391e-07
4.17248e-07
4.37029e-07
4.56877e-07
7.1903e-07
5.42215e-07
5.60242e-07
5.80943e-07
8.86583e-07
6.7657e-07
6.92313e-07
7.12186e-07
1.06202e-06
8.18365e-07
8.3043e-07
8.48465e-07
1.2435e-06
9.66057e-07
9.72572e-07
9.88174e-07
1.42954e-06
1.11833e-06
1.11762e-06
1.1299e-06
1.61905e-06
1.27423e-06
1.26432e-06
1.27255e-06
1.81129e-06
1.43313e-06
1.41165e-06
1.41535e-06
2.0058e-06
1.59464e-06
1.55892e-06
1.55773e-06
2.20239e-06
1.75859e-06
1.70565e-06
1.69935e-06
2.40046e-06
1.92497e-06
1.8515e-06
1.83999e-06
2.59898e-06
2.09387e-06
1.99628e-06
1.97955e-06
2.79784e-06
2.26554e-06
2.13984e-06
2.11754e-06
2.99706e-06
2.43923e-06
2.28208e-06
2.25301e-06
3.19687e-06
2.6149e-06
2.42296e-06
2.38503e-06
3.39749e-06
2.79292e-06
2.56258e-06
2.51345e-06
3.5993e-06
2.97377e-06
2.70113e-06
2.63809e-06
3.80271e-06
3.15804e-06
2.83881e-06
2.75876e-06
4.00831e-06
3.34642e-06
2.97355e-06
2.87529e-06
4.21666e-06
3.53974e-06
3.1052e-06
2.98748e-06
4.42847e-06
3.73901e-06
3.23363e-06
3.0951e-06
4.64472e-06
3.94544e-06
3.3587e-06
3.19794e-06
4.86361e-06
4.16043e-06
3.48021e-06
3.29566e-06
5.08342e-06
4.37908e-06
3.598e-06
3.38795e-06
5.30399e-06
4.60139e-06
3.71181e-06
3.4744e-06
5.52528e-06
4.82713e-06
3.82146e-06
3.55453e-06
5.74702e-06
5.05599e-06
3.92675e-06
3.62775e-06
5.96859e-06
5.28754e-06
4.02746e-06
3.69347e-06
6.18868e-06
5.52126e-06
4.1232e-06
3.75111e-06
6.40522e-06
5.75633e-06
4.21336e-06
3.8e-06
6.61579e-06
5.9917e-06
4.29704e-06
3.83957e-06
6.81848e-06
6.22582e-06
4.3731e-06
3.86924e-06
7.01275e-06
6.45669e-06
4.44061e-06
3.88816e-06
7.2001e-06
6.68194e-06
4.49924e-06
3.89548e-06
7.38306e-06
6.89899e-06
4.54958e-06
3.89038e-06
7.5636e-06
7.10483e-06
4.58979e-06
3.87177e-06
7.74125e-06
7.29624e-06
4.62046e-06
3.83955e-06
7.91183e-06
7.47111e-06
4.64408e-06
3.79459e-06
8.07151e-06
7.62852e-06
4.66305e-06
3.73703e-06
8.21805e-06
7.76692e-06
4.67794e-06
3.66706e-06
8.35031e-06
7.88412e-06
4.68817e-06
3.58581e-06
8.46858e-06
7.97805e-06
4.693e-06
3.49505e-06
8.57284e-06
8.04673e-06
4.69228e-06
3.3971e-06
8.66205e-06
8.08839e-06
4.68696e-06
3.29354e-06
8.7354e-06
8.1016e-06
4.67781e-06
3.18477e-06
8.79232e-06
8.08519e-06
4.66539e-06
3.07326e-06
8.83252e-06
8.03843e-06
4.65008e-06
2.96071e-06
8.85588e-06
7.96117e-06
4.63224e-06
2.84777e-06
8.86284e-06
7.85454e-06
4.61193e-06
2.73392e-06
8.85563e-06
7.72922e-06
4.58858e-06
2.61768e-06
8.8353e-06
7.58655e-06
4.56154e-06
2.4981e-06
8.80349e-06
7.42812e-06
4.53021e-06
2.37419e-06
8.76182e-06
7.2563e-06
4.49377e-06
2.24545e-06
8.71223e-06
7.07414e-06
4.45116e-06
2.11194e-06
8.65639e-06
6.88542e-06
4.40125e-06
1.97476e-06
8.59501e-06
6.6944e-06
4.34277e-06
1.83655e-06
8.52907e-06
6.5058e-06
4.27468e-06
1.70241e-06
8.45977e-06
6.32473e-06
4.19596e-06
1.58089e-06
8.38796e-06
6.15712e-06
4.10487e-06
1.48514e-06
8.31383e-06
6.00925e-06
4.00127e-06
1.43248e-06
8.24708e-06
5.88377e-06
3.88467e-06
1.43966e-06
8.19734e-06
5.77963e-06
3.75489e-06
1.51545e-06
8.16596e-06
5.69784e-06
3.61286e-06
1.65733e-06
8.15392e-06
5.64214e-06
3.46025e-06
1.85528e-06
8.16084e-06
5.6173e-06
3.29996e-06
2.09649e-06
8.18609e-06
5.6283e-06
3.13712e-06
2.36847e-06
8.22796e-06
5.67908e-06
2.98017e-06
2.66036e-06
8.28448e-06
5.77153e-06
7.93635e-12
2.11751e-12
7.26559e-12
1.12928e-11
1.85588e-11
4.78148e-12
1.52194e-11
2.30236e-11
2.41636e-10
6.26404e-11
1.86521e-10
2.71788e-10
1.71473e-09
4.58613e-10
1.32489e-09
1.88757e-09
7.17984e-09
2.00392e-09
5.5775e-09
7.73443e-09
2.13315e-08
6.30107e-09
1.66765e-08
2.24178e-08
4.98116e-08
1.57652e-08
3.91976e-08
5.10166e-08
9.73334e-08
3.32474e-08
7.70725e-08
9.72574e-08
1.66112e-07
6.1343e-08
1.3227e-07
1.623e-07
2.55473e-07
1.01722e-07
2.04378e-07
2.44679e-07
3.62549e-07
1.54807e-07
2.91059e-07
3.41094e-07
4.83464e-07
2.19874e-07
3.89021e-07
4.4777e-07
6.14894e-07
2.95417e-07
4.95358e-07
5.62643e-07
7.54829e-07
3.79525e-07
6.08356e-07
6.83781e-07
9.01497e-07
4.70395e-07
7.26531e-07
8.0966e-07
1.05351e-06
5.67027e-07
8.48783e-07
9.39106e-07
1.20983e-06
6.68672e-07
9.74347e-07
1.07123e-06
1.36969e-06
7.74783e-07
1.10277e-06
1.20536e-06
1.53253e-06
8.8502e-07
1.2339e-06
1.34103e-06
1.69799e-06
9.99244e-07
1.36732e-06
1.47791e-06
1.86581e-06
1.11752e-06
1.50238e-06
1.61577e-06
2.03584e-06
1.24013e-06
1.63899e-06
1.75456e-06
2.20798e-06
1.36673e-06
1.77715e-06
1.89431e-06
2.38221e-06
1.49687e-06
1.91683e-06
2.0352e-06
2.55848e-06
1.63064e-06
2.058e-06
2.17756e-06
2.73683e-06
1.76815e-06
2.20064e-06
2.3215e-06
2.91749e-06
1.90945e-06
2.34474e-06
2.4671e-06
3.10074e-06
2.05447e-06
2.49037e-06
2.61441e-06
3.28684e-06
2.20319e-06
2.63758e-06
2.76361e-06
3.4761e-06
2.35587e-06
2.78631e-06
2.91467e-06
3.66914e-06
2.51274e-06
2.93619e-06
3.06709e-06
3.86597e-06
2.67383e-06
3.08621e-06
3.21951e-06
4.0665e-06
2.83898e-06
3.23472e-06
3.37032e-06
4.27024e-06
3.00796e-06
3.38287e-06
3.51817e-06
4.47636e-06
3.18086e-06
3.53273e-06
3.66797e-06
4.6836e-06
3.35798e-06
3.68531e-06
3.82018e-06
4.89037e-06
3.53982e-06
3.84119e-06
3.97649e-06
5.09509e-06
3.72662e-06
4.00057e-06
4.13704e-06
5.29645e-06
3.91845e-06
4.16353e-06
4.30167e-06
5.49362e-06
4.11538e-06
4.33e-06
4.47449e-06
5.68644e-06
4.31729e-06
4.49975e-06
4.65664e-06
5.87475e-06
4.52398e-06
4.6723e-06
4.84932e-06
6.05782e-06
4.73501e-06
4.84692e-06
5.05363e-06
6.2348e-06
4.94969e-06
5.02255e-06
5.27053e-06
6.40495e-06
5.167e-06
5.2016e-06
5.50079e-06
6.56742e-06
5.38549e-06
5.3873e-06
5.74505e-06
6.72127e-06
5.60561e-06
5.57959e-06
6.00355e-06
6.86964e-06
5.82895e-06
5.77805e-06
6.27628e-06
7.01415e-06
6.05564e-06
5.98198e-06
6.56279e-06
7.15515e-06
6.28522e-06
6.1903e-06
6.86227e-06
7.29286e-06
6.51702e-06
6.40174e-06
7.17332e-06
7.42726e-06
6.75024e-06
6.61476e-06
7.49412e-06
7.55849e-06
6.98401e-06
6.82828e-06
7.82225e-06
7.68672e-06
7.21742e-06
7.04137e-06
8.15488e-06
7.81208e-06
7.44954e-06
7.25266e-06
8.48872e-06
7.93703e-06
7.68102e-06
7.46065e-06
8.81994e-06
8.06629e-06
7.91478e-06
7.66411e-06
9.14446e-06
8.20285e-06
8.15089e-06
7.86185e-06
9.45779e-06
8.35019e-06
8.38941e-06
8.05294e-06
9.75528e-06
8.51147e-06
8.63056e-06
8.2366e-06
1.00339e-05
8.68856e-06
8.87445e-06
8.41354e-06
1.02926e-05
8.88271e-06
9.12107e-06
8.58461e-06
1.05296e-05
9.09552e-06
9.36939e-06
8.74926e-06
1.07435e-05
9.32945e-06
9.61793e-06
8.90712e-06
1.09247e-05
9.58584e-06
9.86558e-06
9.05843e-06
1.10623e-05
9.86495e-06
1.01115e-05
9.20382e-06
1.11535e-05
1.01659e-05
1.03553e-05
9.34457e-06
1.11977e-05
1.04865e-05
1.05966e-05
9.4828e-06
1.12004e-05
1.08236e-05
1.08349e-05
9.62139e-06
1.11667e-05
1.11732e-05
1.10699e-05
9.76436e-06
1.11199e-05
1.15312e-05
1.13007e-05
9.91639e-06
1.12014e-05
1.18904e-05
1.15261e-05
1.00716e-05
1.14382e-05
1.22444e-05
1.17446e-05
1.02219e-05
1.16432e-05
1.25864e-05
1.19541e-05
1.03656e-05
1.17523e-05
1.29098e-05
1.21525e-05
1.05013e-05
1.18128e-05
1.32096e-05
1.23379e-05
1.06273e-05
1.18376e-05
1.34796e-05
1.25078e-05
1.0742e-05
1.18306e-05
1.37158e-05
1.26589e-05
1.08435e-05
1.17942e-05
1.3914e-05
1.2787e-05
1.09315e-05
1.1731e-05
8.48092e-12
9.85592e-12
1.51841e-11
1.29133e-11
1.14799e-11
1.26645e-11
2.378e-11
2.03439e-11
7.80299e-11
7.53483e-11
2.24129e-10
1.79133e-10
5.20333e-10
4.92037e-10
1.53992e-09
1.20992e-09
2.19094e-09
2.06241e-09
6.37079e-09
4.98326e-09
6.67874e-09
6.26359e-09
1.87776e-08
1.47137e-08
1.62242e-08
1.51508e-08
4.3716e-08
3.44583e-08
3.33154e-08
3.09721e-08
8.56697e-08
6.81159e-08
6.01403e-08
5.56779e-08
1.47483e-07
1.18457e-07
9.81528e-08
9.05526e-08
2.29934e-07
1.86627e-07
1.47904e-07
1.36084e-07
3.32069e-07
2.72245e-07
2.09132e-07
1.92051e-07
4.51891e-07
3.73904e-07
2.80997e-07
2.57731e-07
5.87092e-07
4.89757e-07
3.6237e-07
3.32166e-07
7.35891e-07
6.17943e-07
4.52278e-07
4.1461e-07
8.97253e-07
7.56949e-07
5.50338e-07
5.04671e-07
1.07015e-06
9.05936e-07
6.56201e-07
6.01908e-07
1.2536e-06
1.06437e-06
7.69636e-07
7.05887e-07
1.44662e-06
1.23124e-06
8.90512e-07
8.16141e-07
1.64813e-06
1.40589e-06
1.01879e-06
9.32138e-07
1.85758e-06
1.58768e-06
1.15421e-06
1.05323e-06
2.0749e-06
1.77598e-06
1.29668e-06
1.17862e-06
2.29932e-06
1.97022e-06
1.44597e-06
1.30836e-06
2.53011e-06
2.17002e-06
1.60175e-06
1.44266e-06
2.76673e-06
2.37517e-06
1.76348e-06
1.5811e-06
3.00869e-06
2.58547e-06
1.93063e-06
1.72323e-06
3.25546e-06
2.80056e-06
2.10273e-06
1.86867e-06
3.50661e-06
3.0201e-06
2.27944e-06
2.01727e-06
3.7616e-06
3.2437e-06
2.46049e-06
2.16893e-06
4.01986e-06
3.47092e-06
2.64546e-06
2.32337e-06
4.28067e-06
3.70126e-06
2.83378e-06
2.48033e-06
4.54337e-06
3.93412e-06
3.0248e-06
2.63936e-06
4.80725e-06
4.16877e-06
3.21787e-06
2.80012e-06
5.07159e-06
4.40435e-06
3.41223e-06
2.96215e-06
5.33556e-06
4.64001e-06
3.60713e-06
3.12499e-06
5.59859e-06
4.87532e-06
3.80176e-06
3.28808e-06
5.86046e-06
5.11042e-06
3.9953e-06
3.45086e-06
6.12106e-06
5.3457e-06
4.18688e-06
3.61265e-06
6.38039e-06
5.58172e-06
4.37569e-06
3.77268e-06
6.63863e-06
5.81927e-06
4.56086e-06
3.93009e-06
6.89597e-06
6.05465e-06
4.74158e-06
4.08391e-06
7.15265e-06
6.28674e-06
4.91702e-06
4.23337e-06
7.40902e-06
6.51439e-06
5.0863e-06
4.3809e-06
7.66558e-06
6.73643e-06
5.24858e-06
4.52877e-06
7.92302e-06
6.95147e-06
5.40289e-06
4.67589e-06
8.1784e-06
7.15804e-06
5.54821e-06
4.82086e-06
8.42778e-06
7.35442e-06
5.68342e-06
4.96196e-06
8.67008e-06
7.53848e-06
5.80785e-06
5.09731e-06
8.90409e-06
7.70762e-06
5.92292e-06
5.22503e-06
9.12846e-06
7.85901e-06
6.03107e-06
5.34463e-06
9.34183e-06
7.98977e-06
6.13277e-06
5.45645e-06
9.54263e-06
8.09725e-06
6.22837e-06
5.55998e-06
9.72925e-06
8.17912e-06
6.31831e-06
5.65488e-06
9.89987e-06
8.23364e-06
6.4029e-06
5.74114e-06
1.00522e-05
8.25944e-06
6.48213e-06
5.81917e-06
1.01843e-05
8.25533e-06
6.55436e-06
5.88977e-06
1.02943e-05
8.22051e-06
6.61752e-06
5.95392e-06
1.03803e-05
8.15466e-06
6.67136e-06
6.01185e-06
1.04399e-05
8.05819e-06
6.72117e-06
6.06253e-06
1.0468e-05
7.93236e-06
6.77804e-06
6.10409e-06
1.04656e-05
7.77696e-06
6.83278e-06
6.13486e-06
1.04404e-05
7.59192e-06
6.88122e-06
6.15366e-06
1.0404e-05
7.37812e-06
6.92462e-06
6.15933e-06
1.03681e-05
7.13748e-06
6.96168e-06
6.15082e-06
1.03232e-05
6.88235e-06
6.99285e-06
6.12714e-06
1.02573e-05
6.62843e-06
7.01913e-06
6.08672e-06
1.01665e-05
6.38535e-06
7.04296e-06
6.02846e-06
1.00532e-05
6.16381e-06
7.06258e-06
5.95161e-06
9.92211e-06
5.97515e-06
7.07438e-06
5.8556e-06
9.77965e-06
5.83127e-06
7.07928e-06
5.73963e-06
9.63503e-06
5.74422e-06
7.0798e-06
5.60343e-06
9.49605e-06
5.72413e-06
7.07789e-06
5.44661e-06
9.36852e-06
5.7769e-06
7.07596e-06
5.26834e-06
9.25655e-06
5.90304e-06
7.07688e-06
5.06806e-06
9.16398e-06
6.09103e-06
7.08297e-06
4.84662e-06
9.09424e-06
6.32758e-06
7.09675e-06
4.60675e-06
9.0501e-06
6.59889e-06
7.11929e-06
4.35275e-06
9.03329e-06
6.8915e-06
7.15165e-06
4.09037e-06
9.04461e-06
7.19277e-06
7.19418e-06
3.82734e-06
9.08376e-06
7.49151e-06
1.19358e-05
1.47916e-05
8.03717e-06
1.04171e-05
1.20169e-05
1.49573e-05
8.11048e-06
1.03906e-05
1.2069e-05
1.50975e-05
8.16587e-06
1.03424e-05
1.20922e-05
1.52106e-05
8.20459e-06
1.02764e-05
1.2088e-05
1.52952e-05
8.22813e-06
1.01954e-05
1.20598e-05
1.53509e-05
8.23848e-06
1.01017e-05
1.20115e-05
1.5378e-05
8.23759e-06
9.9972e-06
1.1947e-05
1.53748e-05
8.22726e-06
9.88345e-06
1.18693e-05
1.53393e-05
8.20896e-06
9.7615e-06
1.17807e-05
1.52696e-05
8.18441e-06
9.63227e-06
1.16828e-05
1.51643e-05
8.156e-06
9.49649e-06
1.1577e-05
1.50241e-05
8.12421e-06
9.35497e-06
1.1464e-05
1.48526e-05
8.08989e-06
9.20779e-06
1.13441e-05
1.46592e-05
8.05357e-06
9.05508e-06
1.12175e-05
1.44505e-05
8.01555e-06
8.89692e-06
1.10843e-05
1.42313e-05
7.97564e-06
8.73343e-06
1.09449e-05
1.40048e-05
7.93362e-06
8.56471e-06
1.07992e-05
1.37735e-05
7.88902e-06
8.39098e-06
1.06475e-05
1.35388e-05
7.84133e-06
8.21251e-06
1.04897e-05
1.33011e-05
7.78999e-06
8.02947e-06
1.03261e-05
1.30597e-05
7.73442e-06
7.84228e-06
1.01567e-05
1.28131e-05
7.67403e-06
7.65124e-06
9.98162e-06
1.25589e-05
7.60823e-06
7.45673e-06
9.80067e-06
1.22953e-05
7.53649e-06
7.25915e-06
9.61361e-06
1.2025e-05
7.45833e-06
7.05882e-06
9.42021e-06
1.17501e-05
7.37338e-06
6.85584e-06
9.22029e-06
1.14724e-05
7.28124e-06
6.65034e-06
9.0137e-06
1.11936e-05
7.18169e-06
6.44253e-06
8.80045e-06
1.0915e-05
7.07448e-06
6.23268e-06
8.5806e-06
1.06374e-05
6.95895e-06
6.02114e-06
8.35429e-06
1.03615e-05
6.8344e-06
5.80832e-06
8.12172e-06
1.00871e-05
6.70145e-06
5.59248e-06
7.88326e-06
9.81421e-06
6.56178e-06
5.37242e-06
7.6393e-06
9.5424e-06
6.41651e-06
5.14915e-06
7.39025e-06
9.27032e-06
6.26543e-06
4.92398e-06
7.13634e-06
8.99745e-06
6.10766e-06
4.69865e-06
6.87777e-06
8.72522e-06
5.94188e-06
4.47517e-06
6.61376e-06
8.45349e-06
5.76708e-06
4.25534e-06
6.3444e-06
8.18011e-06
5.58379e-06
4.04041e-06
6.07153e-06
7.90284e-06
5.3933e-06
3.83088e-06
5.79702e-06
7.6205e-06
5.19674e-06
3.62675e-06
5.52243e-06
7.3333e-06
4.99519e-06
3.42778e-06
5.24922e-06
7.04223e-06
4.78957e-06
3.23363e-06
4.9785e-06
6.74851e-06
4.58072e-06
3.04399e-06
4.71108e-06
6.4532e-06
4.36934e-06
2.85875e-06
4.4476e-06
6.15689e-06
4.15614e-06
2.67777e-06
4.18834e-06
5.86012e-06
3.9418e-06
2.50098e-06
3.93353e-06
5.56311e-06
3.72706e-06
2.32825e-06
3.68335e-06
5.2663e-06
3.51258e-06
2.15912e-06
3.43795e-06
4.9701e-06
3.29909e-06
1.99342e-06
3.19742e-06
4.67493e-06
3.0872e-06
1.83164e-06
2.96183e-06
4.38131e-06
2.8774e-06
1.67437e-06
2.73125e-06
4.08958e-06
2.6702e-06
1.52199e-06
2.5056e-06
3.80023e-06
2.46589e-06
1.37473e-06
2.28481e-06
3.51368e-06
2.26459e-06
1.23266e-06
2.06919e-06
3.23043e-06
2.06657e-06
1.09642e-06
1.85934e-06
2.95093e-06
1.87227e-06
9.66087e-07
1.65572e-06
2.67568e-06
1.68216e-06
8.41566e-07
1.45881e-06
2.40525e-06
1.49663e-06
7.2301e-07
1.26913e-06
2.14035e-06
1.31616e-06
6.10769e-07
1.08733e-06
1.88192e-06
1.14129e-06
5.05418e-07
9.14296e-07
1.63104e-06
9.72794e-07
4.07624e-07
7.51169e-07
1.38902e-06
8.11695e-07
3.18446e-07
5.99456e-07
1.15752e-06
6.59399e-07
2.39563e-07
4.60656e-07
9.38582e-07
5.17542e-07
1.72498e-07
3.37482e-07
7.34528e-07
3.88232e-07
1.18162e-07
2.33331e-07
5.48073e-07
2.75143e-07
7.65445e-08
1.50673e-07
3.84309e-07
1.81908e-07
4.66383e-08
8.99842e-08
2.48977e-07
1.10714e-07
2.659e-08
4.92756e-08
1.46198e-07
6.12623e-08
1.41029e-08
2.45456e-08
7.63392e-08
3.0491e-08
6.90095e-09
1.10079e-08
3.4853e-08
1.35075e-08
3.07454e-09
4.36651e-09
1.3688e-08
5.24459e-09
1.22059e-09
1.48379e-09
4.51251e-09
1.734e-09
4.16814e-10
4.0798e-10
1.18947e-09
4.62284e-10
1.15386e-10
8.18515e-11
2.27274e-10
8.97317e-11
2.3333e-11
9.93673e-12
2.59703e-11
1.04927e-11
2.87325e-12
7.50391e-13
1.57698e-12
7.27699e-13
2.42275e-13
3.81624e-13
6.00756e-13
3.42721e-13
1.39772e-13
2.84326e-06
2.96222e-06
8.35261e-06
5.90671e-06
2.74353e-06
3.26221e-06
8.42765e-06
6.07583e-06
2.69542e-06
3.55077e-06
8.50444e-06
6.26612e-06
2.70675e-06
3.82503e-06
8.58012e-06
6.46894e-06
2.77751e-06
4.08353e-06
8.65259e-06
6.67669e-06
2.90003e-06
4.32571e-06
8.72003e-06
6.88314e-06
3.06229e-06
4.55176e-06
8.78108e-06
7.08328e-06
3.25134e-06
4.76244e-06
8.83309e-06
7.27328e-06
3.45572e-06
4.95906e-06
8.87684e-06
7.45025e-06
3.66631e-06
5.14037e-06
8.91297e-06
7.61241e-06
3.87649e-06
5.30169e-06
8.94013e-06
7.75846e-06
4.08168e-06
5.44339e-06
8.95854e-06
7.88737e-06
4.2787e-06
5.56567e-06
8.96727e-06
7.99869e-06
4.46537e-06
5.66869e-06
8.96566e-06
8.0921e-06
4.64014e-06
5.75279e-06
8.95347e-06
8.16761e-06
4.80179e-06
5.81853e-06
8.93128e-06
8.22543e-06
4.94924e-06
5.86667e-06
8.89987e-06
8.26581e-06
5.08138e-06
5.89822e-06
8.8594e-06
8.28923e-06
5.19688e-06
5.91445e-06
8.8101e-06
8.29613e-06
5.29505e-06
5.91665e-06
8.75214e-06
8.2871e-06
5.37658e-06
5.90552e-06
8.68569e-06
8.26271e-06
5.44227e-06
5.88195e-06
8.61092e-06
8.22363e-06
5.49296e-06
5.84689e-06
8.52791e-06
8.17049e-06
5.52982e-06
5.8007e-06
8.43677e-06
8.10397e-06
5.55364e-06
5.74362e-06
8.33757e-06
8.02477e-06
5.56476e-06
5.67656e-06
8.23034e-06
7.93358e-06
5.56339e-06
5.60041e-06
8.1151e-06
7.83102e-06
5.54978e-06
5.51595e-06
7.99183e-06
7.71778e-06
5.52436e-06
5.42402e-06
7.86049e-06
7.59453e-06
5.48752e-06
5.32529e-06
7.72109e-06
7.46204e-06
5.43906e-06
5.22041e-06
7.57359e-06
7.31923e-06
5.37823e-06
5.10993e-06
7.41788e-06
7.16577e-06
5.30426e-06
4.99441e-06
7.25352e-06
7.00168e-06
5.21688e-06
4.87427e-06
7.08046e-06
6.82699e-06
5.11628e-06
4.74989e-06
6.89918e-06
6.64084e-06
5.00301e-06
4.62162e-06
6.71021e-06
6.44381e-06
4.87835e-06
4.48968e-06
6.51292e-06
6.23738e-06
4.74342e-06
4.35427e-06
6.30712e-06
6.02295e-06
4.59927e-06
4.21558e-06
6.09405e-06
5.80177e-06
4.44689e-06
4.07371e-06
5.87484e-06
5.57492e-06
4.28724e-06
3.92881e-06
5.65046e-06
5.34333e-06
4.12124e-06
3.78096e-06
5.42177e-06
5.10789e-06
3.94973e-06
3.63034e-06
5.18953e-06
4.86946e-06
3.77362e-06
3.47716e-06
4.95438e-06
4.62889e-06
3.59373e-06
3.32169e-06
4.71697e-06
4.38696e-06
3.41087e-06
3.16415e-06
4.4779e-06
4.14449e-06
3.22591e-06
3.00487e-06
4.23782e-06
3.90225e-06
3.03959e-06
2.84388e-06
3.99726e-06
3.66099e-06
2.85268e-06
2.68128e-06
3.7569e-06
3.42148e-06
2.66593e-06
2.51781e-06
3.51732e-06
3.18439e-06
2.48006e-06
2.3542e-06
3.27919e-06
2.95041e-06
2.29546e-06
2.19089e-06
3.04311e-06
2.72011e-06
2.11259e-06
2.02826e-06
2.80969e-06
2.4937e-06
1.93211e-06
1.86682e-06
2.57949e-06
2.27153e-06
1.75483e-06
1.70711e-06
2.35307e-06
2.05466e-06
1.58165e-06
1.54973e-06
2.13125e-06
1.84331e-06
1.41337e-06
1.39526e-06
1.91479e-06
1.63849e-06
1.25067e-06
1.24427e-06
1.70445e-06
1.4414e-06
1.09414e-06
1.09734e-06
1.50094e-06
1.25303e-06
9.44521e-07
9.5513e-07
1.30515e-06
1.07421e-06
8.02385e-07
8.18392e-07
1.11801e-06
9.0578e-07
6.68425e-07
6.88039e-07
9.40365e-07
7.48612e-07
5.435e-07
5.65159e-07
7.73308e-07
6.03658e-07
4.28504e-07
4.51e-07
6.18212e-07
4.71688e-07
3.25031e-07
3.4667e-07
4.76411e-07
3.54458e-07
2.35177e-07
2.54466e-07
3.50574e-07
2.54063e-07
1.60765e-07
1.76687e-07
2.4379e-07
1.72122e-07
1.02764e-07
1.14848e-07
1.58346e-07
1.09185e-07
6.07994e-08
6.915e-08
9.4866e-08
6.42686e-08
3.29771e-08
3.81764e-08
5.17578e-08
3.48122e-08
1.62445e-08
1.9132e-08
2.53784e-08
1.72066e-08
7.18421e-09
8.59995e-09
1.10139e-08
7.67391e-09
2.80145e-09
3.40482e-09
4.14408e-09
3.03137e-09
9.33564e-10
1.15098e-09
1.31064e-09
1.02708e-09
2.51672e-10
3.14533e-10
3.31471e-10
2.82247e-10
4.98276e-11
6.30592e-11
6.14867e-11
5.70482e-11
6.29129e-12
8.01371e-12
7.30448e-12
7.34063e-12
8.35187e-13
1.00588e-12
9.03542e-13
9.56493e-13
6.28081e-13
7.18381e-13
8.23765e-13
6.98526e-13
1.40723e-05
1.29012e-05
1.10081e-05
1.16573e-05
1.41859e-05
1.30085e-05
1.10727e-05
1.1569e-05
1.42515e-05
1.30957e-05
1.11172e-05
1.14626e-05
1.42728e-05
1.31641e-05
1.1142e-05
1.13412e-05
1.42537e-05
1.32139e-05
1.11482e-05
1.12089e-05
1.4198e-05
1.32452e-05
1.11367e-05
1.10684e-05
1.41098e-05
1.32585e-05
1.1109e-05
1.09211e-05
1.39932e-05
1.32595e-05
1.10706e-05
1.07689e-05
1.3852e-05
1.32456e-05
1.10228e-05
1.06131e-05
1.369e-05
1.32198e-05
1.09662e-05
1.04552e-05
1.35101e-05
1.31907e-05
1.09031e-05
1.02962e-05
1.33154e-05
1.31583e-05
1.08354e-05
1.01368e-05
1.31081e-05
1.31203e-05
1.07634e-05
9.97761e-06
1.28908e-05
1.30745e-05
1.06874e-05
9.81929e-06
1.26655e-05
1.30179e-05
1.06078e-05
9.66144e-06
1.2434e-05
1.29486e-05
1.05252e-05
9.5037e-06
1.21974e-05
1.28649e-05
1.04398e-05
9.34559e-06
1.19566e-05
1.2766e-05
1.03518e-05
9.18659e-06
1.1713e-05
1.26513e-05
1.0261e-05
9.02628e-06
1.14691e-05
1.25203e-05
1.01673e-05
8.86415e-06
1.12153e-05
1.2374e-05
1.00704e-05
8.69979e-06
1.09438e-05
1.22137e-05
9.97004e-06
8.53288e-06
1.06771e-05
1.20408e-05
9.8658e-06
8.36315e-06
1.04431e-05
1.1857e-05
9.75726e-06
8.19042e-06
1.02366e-05
1.16638e-05
9.64395e-06
8.01565e-06
1.00347e-05
1.1463e-05
9.52547e-06
7.8392e-06
9.82758e-06
1.12566e-05
9.40137e-06
7.66047e-06
9.61369e-06
1.10457e-05
9.27122e-06
7.47911e-06
9.39198e-06
1.08306e-05
9.13457e-06
7.29477e-06
9.16195e-06
1.06114e-05
8.99099e-06
7.10714e-06
8.92343e-06
1.03877e-05
8.84002e-06
6.91738e-06
8.67801e-06
1.01594e-05
8.68122e-06
6.72615e-06
8.42788e-06
9.92663e-06
8.51424e-06
6.53368e-06
8.1747e-06
9.69019e-06
8.33872e-06
6.34015e-06
7.9198e-06
9.45102e-06
8.15443e-06
6.14499e-06
7.66403e-06
9.21054e-06
7.96125e-06
5.94686e-06
7.40749e-06
8.9698e-06
7.75919e-06
5.74606e-06
7.15033e-06
8.72887e-06
7.54832e-06
5.54361e-06
6.89201e-06
8.48666e-06
7.32897e-06
5.34022e-06
6.63201e-06
8.24166e-06
7.10149e-06
5.13581e-06
6.37081e-06
7.99254e-06
6.86625e-06
4.93015e-06
6.10913e-06
7.73833e-06
6.62354e-06
4.72337e-06
5.84752e-06
7.47859e-06
6.37405e-06
4.51542e-06
5.58627e-06
7.21314e-06
6.11872e-06
4.30635e-06
5.32558e-06
6.94213e-06
5.85854e-06
4.09611e-06
5.06375e-06
6.6659e-06
5.59438e-06
3.88471e-06
4.80094e-06
6.38504e-06
5.32717e-06
3.67235e-06
4.53742e-06
6.10012e-06
5.05716e-06
3.45917e-06
4.27356e-06
5.81173e-06
4.78431e-06
3.24542e-06
4.00966e-06
5.52033e-06
4.50954e-06
3.03144e-06
3.74611e-06
5.22584e-06
4.23345e-06
2.8177e-06
3.48338e-06
4.92737e-06
3.95621e-06
2.60468e-06
3.22195e-06
4.62473e-06
3.6786e-06
2.393e-06
2.96245e-06
4.31814e-06
3.40198e-06
2.18329e-06
2.70558e-06
4.00833e-06
3.12757e-06
1.97635e-06
2.45218e-06
3.69712e-06
2.85651e-06
1.77305e-06
2.20331e-06
3.38667e-06
2.58974e-06
1.57444e-06
1.96005e-06
3.07903e-06
2.32825e-06
1.38157e-06
1.72363e-06
2.77587e-06
2.07305e-06
1.19564e-06
1.49529e-06
2.47864e-06
1.8251e-06
1.01799e-06
1.27642e-06
2.18864e-06
1.58534e-06
8.50094e-07
1.06865e-06
1.90715e-06
1.35514e-06
6.93649e-07
8.73568e-07
1.63558e-06
1.13603e-06
5.50463e-07
6.93426e-07
1.37533e-06
9.29722e-07
4.22498e-07
5.30996e-07
1.12848e-06
7.38179e-07
3.11611e-07
3.8911e-07
8.97441e-07
5.63314e-07
2.1924e-07
2.7027e-07
6.85088e-07
4.08528e-07
1.45994e-07
1.76046e-07
4.9474e-07
2.77968e-07
9.12847e-08
1.06341e-07
3.31785e-07
1.74905e-07
5.31771e-08
5.89178e-08
2.02203e-07
1.00333e-07
2.86365e-08
2.9622e-08
1.09326e-07
5.18566e-08
1.41278e-08
1.33511e-08
5.12195e-08
2.39372e-08
6.30514e-09
5.29916e-09
2.03619e-08
9.76636e-09
2.49494e-09
1.79619e-09
6.70568e-09
3.44028e-09
8.46651e-10
4.92178e-10
1.75058e-09
9.90574e-10
2.32839e-10
9.87755e-11
3.30247e-10
2.08264e-10
4.70299e-11
1.23888e-11
3.75344e-11
2.62229e-11
6.00908e-12
1.35541e-12
2.64378e-12
2.22882e-12
7.4206e-13
8.87218e-13
1.33198e-12
1.04816e-12
5.29262e-13
7.24557e-06
3.57668e-06
9.15563e-06
7.78356e-06
7.30914e-06
3.35898e-06
9.25008e-06
8.05454e-06
7.37897e-06
3.18791e-06
9.35291e-06
8.29085e-06
7.44512e-06
3.07224e-06
9.45799e-06
8.49098e-06
7.50484e-06
3.02037e-06
9.5602e-06
8.65426e-06
7.55586e-06
3.03501e-06
9.65506e-06
8.78243e-06
7.59644e-06
3.11118e-06
9.73906e-06
8.87781e-06
7.62517e-06
3.23935e-06
9.80868e-06
8.94262e-06
7.64123e-06
3.42266e-06
9.86465e-06
8.97939e-06
7.6441e-06
3.66346e-06
9.91107e-06
8.99092e-06
7.63365e-06
3.95353e-06
9.95267e-06
8.98001e-06
7.61022e-06
4.27777e-06
9.9875e-06
8.94957e-06
7.57477e-06
4.61248e-06
1.00078e-05
8.90214e-06
7.52821e-06
4.93084e-06
1.0007e-05
8.84009e-06
7.47146e-06
5.21772e-06
9.98515e-06
8.76551e-06
7.40554e-06
5.47424e-06
9.94719e-06
8.68027e-06
7.33166e-06
5.70777e-06
9.89624e-06
8.586e-06
7.25116e-06
5.92007e-06
9.83323e-06
8.484e-06
7.16487e-06
6.10281e-06
9.75928e-06
8.3754e-06
7.07251e-06
6.25143e-06
9.6753e-06
8.26098e-06
6.97421e-06
6.37072e-06
9.5819e-06
8.14128e-06
6.8703e-06
6.46603e-06
9.47955e-06
8.0163e-06
6.76114e-06
6.54124e-06
9.36872e-06
7.88585e-06
6.64749e-06
6.60328e-06
9.24995e-06
7.7496e-06
6.53059e-06
6.66102e-06
9.12378e-06
7.60633e-06
6.41171e-06
6.72092e-06
8.9909e-06
7.45665e-06
6.29143e-06
6.77889e-06
8.85193e-06
7.30286e-06
6.16963e-06
6.81241e-06
8.70738e-06
7.14741e-06
6.04577e-06
6.80781e-06
8.55765e-06
6.9921e-06
5.91929e-06
6.77126e-06
8.40296e-06
6.8374e-06
5.78981e-06
6.71e-06
8.24327e-06
6.68247e-06
5.65672e-06
6.6271e-06
8.07844e-06
6.52563e-06
5.51979e-06
6.52344e-06
7.90809e-06
6.36498e-06
5.37872e-06
6.39863e-06
7.73171e-06
6.19906e-06
5.23196e-06
6.25511e-06
7.5487e-06
6.02651e-06
5.07891e-06
6.10437e-06
7.35849e-06
5.84569e-06
4.92051e-06
5.96193e-06
7.16057e-06
5.65679e-06
4.75759e-06
5.82952e-06
6.95436e-06
5.46185e-06
4.59091e-06
5.6958e-06
6.73933e-06
5.26273e-06
4.42114e-06
5.54995e-06
6.51586e-06
5.06158e-06
4.24891e-06
5.38894e-06
6.28493e-06
4.85983e-06
4.07475e-06
5.21395e-06
6.04746e-06
4.65794e-06
3.89911e-06
5.02641e-06
5.80428e-06
4.45606e-06
3.72238e-06
4.827e-06
5.5563e-06
4.25429e-06
3.54483e-06
4.61638e-06
5.30425e-06
4.05262e-06
3.36819e-06
4.39625e-06
5.04903e-06
3.85111e-06
3.19257e-06
4.17006e-06
4.7913e-06
3.64985e-06
3.01794e-06
3.94187e-06
4.53233e-06
3.44893e-06
2.84415e-06
3.71444e-06
4.27353e-06
3.24842e-06
2.67113e-06
3.4884e-06
4.01544e-06
3.04842e-06
2.49879e-06
3.26351e-06
3.75849e-06
2.84907e-06
2.32694e-06
3.03978e-06
3.50319e-06
2.65047e-06
2.15535e-06
2.8176e-06
3.24999e-06
2.45263e-06
1.98424e-06
2.59767e-06
2.99932e-06
2.25585e-06
1.81412e-06
2.3806e-06
2.75157e-06
2.06062e-06
1.64546e-06
2.16675e-06
2.50723e-06
1.86738e-06
1.47879e-06
1.95664e-06
2.2669e-06
1.6767e-06
1.31461e-06
1.75076e-06
2.03128e-06
1.48916e-06
1.15359e-06
1.54963e-06
1.80115e-06
1.3056e-06