/*--------------------------------*- C++ -*----------------------------------*\
| =========                 |                                                 |
| \\      /  F ield         | OpenFOAM: The Open Source CFD Toolbox           |
|  \\    /   O peration     | Version:  v1912                                 |
|   \\  /    A nd           | Website:  www.openfoam.com                      |
|    \\/     M anipulation  |                                                 |
\*---------------------------------------------------------------------------*/
FoamFile
{
    version     2.0;
    format      ascii;
    class       volScalarField;
    location    "96.8";
    object      turbulenceProperties:mut;
}
// * * * * * * * * * * * * * * * * * * * * * * * * * * * * * * * * * * * * * //

dimensions      [1 -1 -1 0 0 0 0];


internalField   nonuniform List<scalar> 
2528
(
1.68706e-08
6.77103e-09
1.22631e-08
1.73885e-08
2.84708e-08
1.00062e-08
2.2063e-08
2.93803e-08
2.71797e-07
7.66393e-08
2.01739e-07
2.55447e-07
1.83174e-06
5.20443e-07
1.33345e-06
1.66372e-06
7.44174e-06
2.21552e-06
5.40375e-06
6.62657e-06
2.16321e-05
6.85531e-06
1.58699e-05
1.90093e-05
4.98943e-05
1.69914e-05
3.72664e-05
4.34379e-05
9.72667e-05
3.57628e-05
7.41807e-05
8.40418e-05
0.000167096
6.63832e-05
0.000130059
0.000143292
0.000260504
0.000111573
0.000206422
0.000221471
0.000376651
0.000173132
0.000302819
0.000316901
0.000513451
0.000251773
0.000417324
0.000426642
0.000668292
0.000347217
0.000547229
0.000533618
0.000829082
0.000458447
0.000685254
0.000645049
0.00100061
0.000583998
0.000824843
0.000761687
0.00118348
0.000722182
0.000970684
0.00088269
0.00137721
0.000871249
0.00112197
0.00100678
0.00158118
0.00102948
0.00127795
0.00113265
0.00179415
0.0011952
0.00143728
0.00125895
0.0020146
0.00136686
0.00159856
0.00138444
0.00224083
0.00154295
0.00176039
0.00150797
0.00247109
0.00172209
0.0019216
0.00162852
0.00270363
0.00190292
0.00208121
0.00174519
0.00293684
0.00208427
0.00223852
0.00185732
0.00316925
0.00226567
0.002393
0.00196441
0.00339955
0.00244696
0.00254385
0.00206623
0.00362691
0.00262836
0.00268853
0.00216284
0.00385073
0.00280942
0.00282754
0.0022545
0.00407062
0.00299094
0.002961
0.00234162
0.00428642
0.00317398
0.00308937
0.00242386
0.00449825
0.00335742
0.00321367
0.00250163
0.00470641
0.00353794
0.00333547
0.00257675
0.00491132
0.00371467
0.00345679
0.00265011
0.00511343
0.00388886
0.00357947
0.00272191
0.00531318
0.00406167
0.00370433
0.00279155
0.00551095
0.00423436
0.00383032
0.00285889
0.00570717
0.0044082
0.00395463
0.00292918
0.00590259
0.00458485
0.00407426
0.00301905
0.00609831
0.00476625
0.00418968
0.00315687
0.00629575
0.00495427
0.00430766
0.00336787
0.0064958
0.00515008
0.00443977
0.00362926
0.00669755
0.00535392
0.00459278
0.00369569
0.00689725
0.00556573
0.00475417
0.00376874
0.00708905
0.00578679
0.0048854
0.00385195
0.00726836
0.00602151
0.00494148
0.00395011
0.00743691
0.0062772
0.00491578
0.00406967
0.00760679
0.00656022
0.00486555
0.00421591
0.00778088
0.00686863
0.00487668
0.00438488
0.00790596
0.00718746
0.00499806
0.00457188
0.00801603
0.00746177
0.00520227
0.0047787
0.00811264
0.00768162
0.0053514
0.00500691
0.0074297
0.00789407
0.00538235
0.005257
0.00650405
0.00809724
0.00540965
0.00552821
0.00606446
0.00829286
0.00538066
0.00581869
0.00654002
0.00781759
0.00532451
0.00612554
0.00782396
0.00682002
0.0054355
0.00644503
0.00865288
0.00615162
0.00551387
0.00677296
0.00875645
0.00618935
0.00555147
0.0071049
0.00886282
0.00705958
0.00559541
0.00743638
0.00897613
0.00855176
0.00564961
0.00776357
0.00910404
0.00994033
0.00571492
0.00807117
0.00924732
0.0104024
0.00579185
0.00835923
0.00940243
0.0106842
0.00588067
0.00862546
0.00956663
0.0109681
0.00598298
0.00886896
0.00973963
0.0112523
0.00609909
0.00909074
0.00992068
0.0115345
0.00622805
0.00929338
0.010109
0.0118109
0.00636903
0.00947883
0.0103027
0.0120775
0.00652008
0.00964936
0.0104987
0.0123294
0.00667847
0.00980708
0.0106931
0.0125743
0.00683934
0.00995374
0.0108839
0.0106586
0.00699925
0.0100907
0.0110691
0.00908379
0.00715722
0.0102161
0.0112467
0.00960112
0.0073128
0.0103231
0.011415
0.0119419
0.00746471
0.0104131
0.0115712
0.0140561
0.0076108
0.0104867
0.0117156
0.0142979
0.00774882
0.0105439
0.0118472
0.0145211
0.00787669
0.0103786
0.0119648
0.014723
0.00799221
0.00965753
0.0120673
0.0148998
0.00809789
0.00983534
2.16679e-09
2.36403e-09
7.1015e-09
5.16898e-09
6.60061e-09
7.11603e-09
1.92922e-08
1.27007e-08
9.72289e-08
1.05293e-07
2.67782e-07
1.69813e-07
7.10198e-07
7.69946e-07
1.9063e-06
1.21694e-06
3.08098e-06
3.34063e-06
7.99622e-06
5.16993e-06
9.62369e-06
1.04278e-05
2.38658e-05
1.56956e-05
2.39541e-05
2.59124e-05
5.61568e-05
3.76853e-05
5.03541e-05
5.43152e-05
0.000110801
7.60008e-05
9.27719e-05
9.96525e-05
0.000191073
0.000134008
0.000153771
0.000164276
0.000296844
0.000212692
0.000233938
0.000248295
0.000425273
0.00031072
0.000331985
0.000349796
0.000572088
0.000425199
0.000445356
0.000465582
0.000726325
0.000552546
0.000570918
0.000592013
0.00087726
0.000676596
0.000705501
0.000716003
0.00103333
0.000801228
0.000833254
0.000834979
0.00119466
0.00093054
0.000961336
0.000956125
0.00136047
0.00106413
0.00109027
0.00107927
0.00152976
0.00120118
0.00122037
0.00120356
0.00170159
0.00134102
0.00135104
0.0013282
0.00187522
0.00148313
0.0014817
0.00145259
0.00205013
0.00162719
0.00161183
0.00157633
0.00222605
0.0017731
0.00174108
0.00169933
0.00240277
0.00192102
0.00186953
0.00182177
0.00257917
0.00207125
0.00199753
0.00194406
0.00275482
0.00222384
0.00212525
0.00206579
0.00293051
0.00237672
0.00225031
0.00218118
0.0031068
0.00252921
0.00237113
0.00229269
0.00328425
0.00268327
0.00248948
0.00240115
0.00346355
0.00283981
0.00260608
0.00250675
0.00364541
0.00299956
0.00272152
0.00260949
0.00383043
0.00316324
0.00283622
0.00270928
0.00401881
0.00333161
0.00295046
0.00280599
0.00421002
0.00350522
0.00306438
0.00289934
0.00440282
0.00368409
0.00317781
0.00298898
0.00459578
0.00386778
0.00329023
0.00307459
0.00478809
0.00405575
0.00340076
0.00315587
0.00498083
0.00424781
0.00350868
0.00323254
0.00517845
0.00444417
0.00361427
0.00330426
0.00539011
0.00464564
0.00372033
0.00337072
0.00562837
0.00485421
0.00383346
0.00343159
0.00590244
0.00507341
0.00396356
0.00348658
0.00620493
0.00530789
0.00411876
0.00353545
0.00649851
0.00556255
0.0042941
0.00357814
0.00671823
0.00584247
0.00445779
0.00361512
0.00680656
0.00615354
0.00454969
0.00364802
0.00676919
0.00650211
0.00451335
0.00368056
0.00670002
0.00689285
0.0043513
0.00371933
0.0067414
0.00729637
0.00414382
0.00377246
0.00700867
0.00761345
0.00400308
0.00383007
0.00751554
0.00777386
0.00401624
0.00380823
0.00812763
0.0079149
0.00421169
0.00373694
0.0085094
0.00803434
0.00452919
0.00365413
0.00862994
0.00813005
0.0047824
0.00356164
0.00873616
0.00820004
0.00478169
0.00346182
0.00882708
0.0082425
0.00477626
0.00335629
0.00890182
0.00825594
0.00476694
0.00324546
0.00895986
0.00823921
0.00475428
0.0031318
0.00900079
0.0081916
0.00473867
0.00301713
0.00902461
0.00811287
0.0047205
0.00290204
0.0090317
0.00800419
0.00469978
0.00278601
0.00902436
0.00787648
0.00467599
0.00266755
0.00900366
0.00773107
0.00464846
0.0025457
0.00897125
0.00756963
0.00461652
0.00241942
0.00892876
0.00739454
0.00457938
0.00228823
0.00887823
0.00720892
0.00453596
0.00215219
0.00882131
0.00701663
0.00448512
0.00201238
0.00875878
0.00682197
0.00442551
0.00187154
0.00869157
0.00662975
0.00435611
0.00173485
0.00862096
0.00644524
0.0042759
0.00161101
0.00854777
0.00627442
0.00418306
0.00151344
0.00847224
0.00612375
0.0040775
0.00145977
0.00840422
0.00599586
0.00395869
0.00146709
0.0083535
0.00588975
0.00382643
0.00154432
0.00832157
0.00580641
0.00368169
0.00168891
0.00830927
0.00574964
0.00352618
0.00189062
0.00831633
0.00572435
0.00336284
0.00213644
0.00834206
0.00573554
0.00319689
0.0024136
0.00838472
0.00578727
0.00303695
0.00271105
0.00844229
0.0058815
8.08758e-09
2.15784e-09
7.40402e-09
1.1508e-08
1.89124e-08
4.87257e-09
1.55094e-08
2.34623e-08
2.46241e-07
6.38339e-08
1.90075e-07
2.76966e-07
1.7474e-06
4.67352e-07
1.35013e-06
1.92353e-06
7.31666e-06
2.04211e-06
5.68377e-06
7.8818e-06
2.17379e-05
6.42113e-06
1.69942e-05
2.28449e-05
5.07606e-05
1.60657e-05
3.99445e-05
5.19888e-05
9.91875e-05
3.38809e-05
7.85409e-05
9.91102e-05
0.000169276
6.25117e-05
0.00013479
0.000165392
0.00026034
0.00010366
0.000208272
0.000249341
0.000369457
0.000157757
0.000296605
0.000347593
0.000492675
0.000224062
0.000396433
0.000439659
0.000611353
0.000301047
0.000490137
0.000535927
0.000732949
0.000386755
0.000587886
0.000637264
0.000860537
0.000473273
0.00069055
0.000742701
0.0009932
0.000559698
0.000797404
0.00085135
0.0011301
0.00065112
0.000907815
0.000962487
0.00127055
0.000747443
0.00102129
0.00107553
0.00141405
0.000848461
0.00113749
0.00119003
0.00156023
0.000954067
0.00125613
0.00130571
0.00170891
0.00106424
0.00137709
0.00142239
0.0018601
0.00117905
0.00150033
0.00154005
0.00201393
0.00129874
0.00162596
0.00165881
0.00217057
0.00142377
0.00175419
0.00177892
0.00232986
0.00155494
0.0018853
0.00190081
0.00249015
0.00169338
0.00201955
0.00202502
0.0026514
0.00183997
0.00215718
0.00215232
0.00281508
0.00199425
0.00229858
0.00228372
0.00298208
0.00215019
0.00244534
0.00242108
0.00315371
0.0023083
0.00260754
0.00256821
0.00333218
0.00247659
0.00279555
0.00273605
0.00352105
0.00265837
0.00301362
0.00293954
0.00372533
0.00285251
0.00324921
0.00318989
0.00395101
0.00305251
0.00344732
0.00347632
0.00420325
0.00324145
0.00360004
0.00373784
0.00448321
0.00342196
0.00375553
0.00389295
0.00478418
0.00360726
0.00391439
0.00405226
0.00508841
0.00379761
0.00407679
0.00421586
0.00537094
0.00399311
0.00424286
0.00438362
0.00559829
0.00419378
0.0044125
0.00455974
0.00579477
0.00439955
0.00458548
0.00474537
0.00598669
0.00461017
0.00476131
0.00494172
0.00617324
0.00482521
0.00493926
0.00514992
0.0063536
0.005044
0.00511825
0.00537094
0.00652698
0.00526545
0.00530069
0.00560561
0.00669254
0.00548811
0.00548993
0.00585451
0.00684933
0.00571241
0.0056859
0.00611793
0.00700054
0.00594001
0.00588815
0.00639586
0.00714779
0.00617101
0.00609595
0.00668785
0.00729149
0.00640498
0.00630824
0.00699302
0.0074318
0.00664119
0.0065237
0.00731
0.00756877
0.00687884
0.00674079
0.00763689
0.0077025
0.00711706
0.00695839
0.00797129
0.00783315
0.00735493
0.00717555
0.00831026
0.00796092
0.00759147
0.00739083
0.00865044
0.00808826
0.00782735
0.00760281
0.00898798
0.00821999
0.00806558
0.00781013
0.00931869
0.00835915
0.0083062
0.00801163
0.00963799
0.00850928
0.00854925
0.00820636
0.00994117
0.00867365
0.008795
0.00839353
0.0102252
0.00885412
0.00904354
0.00857383
0.0104887
0.00905196
0.00929485
0.00874817
0.0107302
0.0092688
0.0095479
0.00891595
0.0109482
0.00950721
0.00980117
0.00907684
0.0111328
0.00976849
0.0100536
0.00923103
0.0112731
0.0100529
0.0103042
0.00937918
0.011366
0.0103596
0.0105526
0.00952262
0.011411
0.0106863
0.0107985
0.00966346
0.0114138
0.0110297
0.0110413
0.0098047
0.00838088
0.0113861
0.0112808
0.00995038
0.00549736
0.0117508
0.011516
0.0101053
0.00474126
0.0121169
0.0117457
0.0102635
0.00567222
0.0124778
0.0119684
0.0104167
0.00845109
0.0128262
0.0121818
0.0105631
0.0118974
0.0131558
0.012384
0.0107014
0.0120379
0.0134613
0.012573
0.0108298
0.0120631
0.0137364
0.0127461
0.0109467
0.012056
0.0139771
0.0129001
0.0110501
0.0120189
0.0141791
0.0130306
0.0111398
0.0119545
8.64254e-09
1.00437e-08
1.54734e-08
1.31593e-08
1.16986e-08
1.29058e-08
2.42332e-08
2.07315e-08
7.95166e-08
7.67838e-08
2.284e-07
1.82546e-07
5.30246e-07
5.01412e-07
1.56926e-06
1.23297e-06
2.23268e-06
2.1017e-06
6.49219e-06
5.07823e-06
6.80596e-06
6.38292e-06
1.91354e-05
1.4994e-05
1.65333e-05
1.54395e-05
4.4549e-05
3.51149e-05
3.39502e-05
3.15622e-05
8.73019e-05
6.94138e-05
6.1286e-05
5.67388e-05
0.000150292
0.000120714
0.000100023
9.2278e-05
0.000234315
0.000190184
0.000150722
0.000138677
0.000338396
0.000277432
0.000213117
0.00019571
0.000460502
0.000381028
0.000286351
0.000262641
0.000598278
0.000499088
0.000369275
0.000335468
0.000742272
0.000629717
0.000453928
0.000410714
0.0008947
0.000768235
0.000544236
0.000493123
0.0010604
0.000912937
0.000642877
0.000583089
0.00123944
0.00106873
0.000750134
0.000680753
0.00143194
0.00123594
0.000866364
0.000786257
0.00163801
0.00141447
0.000992077
0.000899731
0.0018577
0.00160395
0.00112797
0.00102128
0.00209059
0.00180342
0.00127501
0.00115099
0.00233459
0.00200776
0.0014344
0.00128883
0.00257831
0.00221135
0.00160685
0.00143457
0.00281943
0.00242043
0.00179084
0.00158756
0.003066
0.00263473
0.00196741
0.00174618
0.00331749
0.00285392
0.00214279
0.00190427
0.00357341
0.00307765
0.00232288
0.00205569
0.00383329
0.00330551
0.00250737
0.00221024
0.00409645
0.00353706
0.00269587
0.00236765
0.00436223
0.00377178
0.00288777
0.00252758
0.00462994
0.00400907
0.00308244
0.00268965
0.00489885
0.00424819
0.00327918
0.00285347
0.00516821
0.00448827
0.00347724
0.00301859
0.00543722
0.00472843
0.00367586
0.00318453
0.00570526
0.00494353
0.00387419
0.00335074
0.00597212
0.00514798
0.00407141
0.00351661
0.00623284
0.00534546
0.00426665
0.00368148
0.00648233
0.00553855
0.00445906
0.00384455
0.00672823
0.00572864
0.00464776
0.00400497
0.00697084
0.00591569
0.00483193
0.00416171
0.0072106
0.00609844
0.0050107
0.00431403
0.00744769
0.00627529
0.00518322
0.00446437
0.00768114
0.00644565
0.00534858
0.00461505
0.00790656
0.00661024
0.00550582
0.00476498
0.00811808
0.00677065
0.00565391
0.00491271
0.00831512
0.00692966
0.0057917
0.0050565
0.00850065
0.00709189
0.00590399
0.00517911
0.00867741
0.00726449
0.00600525
0.00527649
0.008848
0.00745663
0.00609559
0.00534966
0.00901569
0.00767571
0.00617581
0.00539449
0.00918886
0.00791883
0.00625149
0.00540763
0.00938031
0.00816137
0.00633563
0.00538765
0.00959806
0.00835146
0.00644068
0.00533881
0.0098192
0.00841678
0.00652084
0.00527578
0.0100033
0.00841262
0.00640714
0.00522488
0.0100739
0.00837712
0.00588844
0.00521681
0.00980631
0.00831003
0.00508976
0.0052726
0.00887238
0.00821173
0.00454239
0.0053912
0.00753269
0.00808347
0.00465782
0.0055495
0.00671184
0.00792513
0.00557367
0.00571808
0.00698885
0.00773658
0.00689497
0.00587812
0.00847956
0.00751868
0.00705655
0.00602164
0.0104024
0.00727345
0.0070943
0.00613836
0.0105199
0.00701347
0.0071261
0.00620525
0.0104527
0.00675474
0.00715286
0.00620269
0.0103602
0.00650703
0.00717716
0.0061433
0.0102447
0.00628124
0.00719713
0.00606501
0.0101111
0.00608899
0.00720916
0.00596717
0.00996598
0.00594238
0.00721419
0.00584901
0.00981859
0.00585366
0.00721469
0.0057102
0.009677
0.00583319
0.00721275
0.00555038
0.00954704
0.00588695
0.00721077
0.00536871
0.00943293
0.0060155
0.0072117
0.00516461
0.00933859
0.00620707
0.00721792
0.00493896
0.00926751
0.00644814
0.00723193
0.00469452
0.0092225
0.00672464
0.00725492
0.00443568
0.00920541
0.0070228
0.0072879
0.0041683
0.00921696
0.00732981
0.00733124
0.00390026
0.00925681
0.00763425
0.0121632
0.0150734
0.0081903
0.0106156
0.0122459
0.0152423
0.008265
0.0105886
0.0122989
0.0153851
0.00832146
0.0105395
0.0123226
0.0155004
0.0083609
0.0104722
0.0123183
0.0155867
0.0083849
0.0103897
0.0122896
0.0156434
0.00839545
0.0102942
0.0122405
0.015671
0.00839454
0.0101877
0.0121746
0.0156677
0.00838401
0.0100717
0.0120954
0.0156316
0.00836538
0.00994748
0.0120052
0.0155605
0.00834035
0.0098158
0.0119055
0.0154532
0.00831141
0.00967742
0.0117976
0.0153104
0.00827899
0.00953319
0.0116824
0.0151356
0.008244
0.00938321
0.0115602
0.0149385
0.00820702
0.0092276
0.0114312
0.0147258
0.00816826
0.00906643
0.0112955
0.0145024
0.00812761
0.00889982
0.0111534
0.0142716
0.00808478
0.0087279
0.011005
0.0140359
0.00803933
0.00855087
0.0108504
0.0137968
0.00799073
0.00836897
0.0106896
0.0135545
0.00793842
0.00818247
0.0105228
0.0133085
0.00788179
0.00799171
0.0103502
0.0130572
0.00782024
0.00779702
0.0101718
0.0127982
0.00775319
0.00759879
0.00998739
0.0125296
0.00768008
0.00739745
0.00979678
0.0122541
0.00760044
0.00719331
0.00959969
0.011974
0.00751386
0.00698647
0.00939596
0.011691
0.00741998
0.00677706
0.00918545
0.0114069
0.00731853
0.00656528
0.00896813
0.011123
0.00720928
0.00635142
0.00874408
0.0108401
0.00707996
0.00613586
0.00851345
0.0105589
0.00680136
0.00591898
0.00827646
0.0102793
0.00660697
0.00568482
0.00803346
0.0100012
0.00651466
0.00539076
0.00778485
0.00972421
0.0064618
0.00507824
0.00749937
0.00944695
0.00637372
0.00476949
0.0071801
0.00916887
0.00622404
0.0044839
0.00684201
0.00889147
0.00604032
0.00422952
0.00649675
0.00861456
0.00583491
0.0040041
0.00615512
0.00829257
0.00561958
0.00379997
0.00582365
0.00788368
0.00539775
0.00360857
0.00550506
0.00747401
0.00517097
0.00342342
0.00519969
0.00709327
0.00494049
0.00324116
0.00490688
0.00674769
0.00470762
0.00306132
0.00462568
0.00642924
0.00447356
0.00288507
0.00435515
0.00612681
0.00423952
0.00271385
0.00409443
0.00583156
0.00400679
0.00254797
0.00384283
0.00553854
0.00377665
0.00238591
0.00359977
0.00524632
0.00355031
0.00222393
0.00336481
0.00495551
0.00332876
0.00204918
0.00313759
0.00466729
0.00311275
0.00187006
0.00291772
0.00438251
0.00290277
0.00170328
0.00270453
0.0041015
0.00269891
0.00154891
0.00249657
0.00382435
0.00250068
0.00140473
0.00228967
0.00355109
0.00230652
0.00126907
0.00208031
0.00328189
0.00211031
0.00114085
0.00187978
0.00301697
0.00191894
0.0010194
0.00168908
0.00275653
0.00173525
0.000904336
0.00150751
0.00250002
0.001559
0.000795462
0.00133447
0.00224803
0.00138974
0.000692716
0.00116982
0.00200332
0.00122737
0.000596071
0.00101373
0.00176693
0.00107203
0.000505267
0.000866521
0.00153979
0.000924134
0.00041539
0.000728556
0.00132298
0.00078416
0.000324514
0.000599438
0.00111758
0.000652274
0.000244126
0.000469432
0.000924353
0.000527403
0.000175785
0.000343912
0.000742894
0.000395629
0.000120413
0.000237777
0.000558515
0.000280385
7.80029e-05
0.000153545
0.000391631
0.000185375
4.75268e-05
9.16986e-05
0.000253721
0.000112823
2.70967e-05
5.02145e-05
0.000148983
6.24294e-05
1.43716e-05
2.50132e-05
7.77935e-05
3.10719e-05
7.03241e-06
1.12175e-05
3.5517e-05
1.37649e-05
3.13312e-06
4.44969e-06
1.39488e-05
5.34451e-06
1.24385e-06
1.51206e-06
4.59849e-06
1.76704e-06
4.24755e-07
4.15752e-07
1.21213e-06
4.71092e-07
1.17584e-07
8.34111e-08
2.31605e-07
9.14414e-08
2.37776e-08
1.01261e-08
2.64651e-08
1.06926e-08
2.92799e-09
7.64689e-10
1.60703e-09
7.41563e-10
2.46891e-10
3.88895e-10
6.12202e-10
3.4925e-10
1.42435e-10
0.00289743
0.00301866
0.00851175
0.00601927
0.00279579
0.00332437
0.00858819
0.00619161
0.00274678
0.00361842
0.00866644
0.00638551
0.00275832
0.00389792
0.00874362
0.00659218
0.00283043
0.00416133
0.00881746
0.00680391
0.00295529
0.00440814
0.00888619
0.00701429
0.00312064
0.00463849
0.00894838
0.00721825
0.00331328
0.00485317
0.00900137
0.00741186
0.00352156
0.00505355
0.00904596
0.00759222
0.00373616
0.00523831
0.00908279
0.00775746
0.00395036
0.0054027
0.00911047
0.00790626
0.00415945
0.00554709
0.00912923
0.00803766
0.00436022
0.00567169
0.00913812
0.00815107
0.00455045
0.00577668
0.00913648
0.00824627
0.00472855
0.00586241
0.00912404
0.00832324
0.00489328
0.00592938
0.00910147
0.00838215
0.00504354
0.00597843
0.00906945
0.00842332
0.00517818
0.00601058
0.00902821
0.00844716
0.00529589
0.00602713
0.00897795
0.0084542
0.00539594
0.00602938
0.00891888
0.00844499
0.00547901
0.00601804
0.00885118
0.00842015
0.00554594
0.00599402
0.00877497
0.00838031
0.00559762
0.00595829
0.00869038
0.00832616
0.00563517
0.00591121
0.00859751
0.00825837
0.00565944
0.00585305
0.00849642
0.00817766
0.00567078
0.00578472
0.00838715
0.00808472
0.00566939
0.0057071
0.0082697
0.00798021
0.00565553
0.00562104
0.00814408
0.00786483
0.00562961
0.00552735
0.00801025
0.00773923
0.00559207
0.00542674
0.0078682
0.0076042
0.00554269
0.00531986
0.0077179
0.00745868
0.0054807
0.0052073
0.00752193
0.00730229
0.00540532
0.00508957
0.00727853
0.00713507
0.00531629
0.00496714
0.00702199
0.00695705
0.00521376
0.0048404
0.00676817
0.00676737
0.00509833
0.00470966
0.00652086
0.00656657
0.0049713
0.00457521
0.00628121
0.00635621
0.0048338
0.00443723
0.00604829
0.0061377
0.0046869
0.0042959
0.0058202
0.00591232
0.00453163
0.00415134
0.005595
0.00568113
0.00436893
0.00400366
0.00537109
0.00544514
0.00419976
0.003853
0.00514735
0.00520521
0.00402499
0.00369951
0.00492305
0.00496224
0.00384552
0.00354341
0.00469781
0.00471708
0.00366219
0.00337342
0.00447151
0.00447054
0.00347587
0.00318751
0.00424424
0.00422345
0.00328736
0.00299062
0.00401627
0.0039766
0.00309749
0.00278669
0.00378803
0.00373075
0.00290703
0.00258897
0.00356009
0.00348666
0.00271673
0.00240759
0.00333308
0.00324505
0.00252731
0.00223533
0.00310781
0.0030038
0.00233919
0.00206532
0.00288503
0.00274021
0.0021499
0.00189988
0.00266469
0.00247699
0.00194553
0.00173973
0.0024437
0.00222336
0.00174906
0.00158525
0.00222447
0.00198683
0.00156322
0.00143647
0.00201235
0.00176766
0.00138845
0.00129318
0.00180822
0.00156372
0.00122437
0.00115525
0.00161232
0.00137352
0.00107058
0.00102279
0.00142491
0.00119629
0.0009268
0.000896134
0.0012464
0.00103158
0.000792979
0.000775712
0.00107733
0.000879041
0.000669082
0.000661855
0.000918429
0.000738343
0.000553856
0.000554955
0.000770241
0.000608491
0.000436668
0.00045508
0.00062999
0.000480676
0.000331224
0.000353275
0.000485489
0.000361212
0.000239658
0.000259313
0.000357253
0.000258904
0.000163828
0.000180053
0.000248435
0.000175401
0.000104722
0.000117036
0.000161363
0.000111265
6.19579e-05
7.04675e-05
9.66735e-05
6.54931e-05
3.36054e-05
3.89038e-05
5.27438e-05
3.54753e-05
1.6554e-05
1.94965e-05
2.58618e-05
1.75344e-05
7.32109e-06
8.76379e-06
1.12238e-05
7.8201e-06
2.85483e-06
3.4697e-06
4.22305e-06
3.08913e-06
9.51352e-07
1.17291e-06
1.33561e-06
1.04664e-06
2.56467e-07
3.20525e-07
3.37786e-07
2.87624e-07
5.07769e-08
6.42607e-08
6.26582e-08
5.81352e-08
6.41118e-09
8.16636e-09
7.44364e-09
7.48048e-09
8.51099e-10
1.02504e-09
9.20758e-10
9.74717e-10
6.40047e-10
7.32067e-10
8.3946e-10
7.11836e-10
0.0143404
0.0131471
0.0112178
0.0118794
0.0144562
0.0132563
0.0112837
0.0117894
0.014523
0.0133453
0.011329
0.011681
0.0145447
0.0134149
0.0113543
0.0115573
0.0145253
0.0134657
0.0113606
0.0114225
0.0144685
0.0134976
0.0113489
0.0112793
0.0143786
0.013511
0.0113207
0.0111293
0.0142598
0.0135121
0.0112814
0.0109741
0.0141159
0.013498
0.0112327
0.0108153
0.0139508
0.0134717
0.0111751
0.0106544
0.0137675
0.013442
0.0111108
0.0104924
0.0135691
0.013409
0.0110418
0.0103299
0.0133578
0.0133703
0.0109686
0.0101677
0.0131364
0.0133236
0.010891
0.0100064
0.0129068
0.013266
0.0108099
0.00984553
0.0126709
0.0131953
0.0107257
0.00968478
0.0124298
0.01311
0.0106388
0.00952364
0.0121844
0.0130092
0.010549
0.00936163
0.0119362
0.0128923
0.0104565
0.00919825
0.0116876
0.0127588
0.010361
0.00903304
0.0107968
0.0126098
0.0102623
0.00886556
0.00895366
0.0124464
0.01016
0.00869547
0.00795948
0.0122703
0.0100538
0.0085225
0.00820234
0.0120829
0.00994315
0.00834646
0.00926702
0.011886
0.00982769
0.00816837
0.0099661
0.0116814
0.00970696
0.00798854
0.0100148
0.0114711
0.00958049
0.00780642
0.00979686
0.011256
0.00944786
0.00762161
0.00957091
0.011037
0.00930862
0.00743376
0.0093365
0.0108136
0.0091623
0.00724256
0.00909346
0.0105856
0.00900845
0.00704918
0.00881849
0.0103529
0.00884663
0.0068543
0.00853891
0.0101158
0.00867646
0.00665815
0.00826324
0.00987481
0.00849759
0.00646094
0.00799338
0.00963109
0.00830979
0.00626207
0.00772695
0.00938602
0.00811293
0.00606017
0.00746165
0.0091407
0.00790701
0.00585555
0.00719759
0.00889518
0.00769215
0.00564923
0.00693416
0.00864836
0.00746861
0.00544198
0.0066704
0.0083987
0.00723679
0.00523366
0.00640658
0.00814481
0.00699707
0.00502408
0.00614335
0.00788577
0.00674974
0.00481335
0.00588091
0.00762108
0.0064955
0.00460146
0.00561901
0.00735057
0.00623533
0.00438839
0.0053571
0.00707439
0.00597018
0.00417413
0.00509468
0.00679291
0.00570098
0.00395873
0.00483143
0.00650669
0.00542867
0.00374232
0.00456721
0.00621634
0.0051535
0.00352507
0.00430205
0.00592245
0.00487545
0.00330726
0.0040362
0.0056255
0.00459545
0.00308921
0.00377011
0.0053254
0.00429937
0.00287138
0.00350432
0.00502124
0.00398718
0.00265431
0.00323942
0.00471284
0.00367589
0.00243858
0.0029755
0.00440042
0.00337363
0.0022249
0.00271342
0.00407045
0.00308148
0.002014
0.00245619
0.00370781
0.00279905
0.00180684
0.00220537
0.00336115
0.00252479
0.00160443
0.00196227
0.00303197
0.00225968
0.00140788
0.00172819
0.00271812
0.00200553
0.00121842
0.0015044
0.00241815
0.00176304
0.00103739
0.00129201
0.00213132
0.00153279
0.000866291
0.00108901
0.00185764
0.00131544
0.000706863
0.000890211
0.00159769
0.00111177
0.00056095
0.000706637
0.00135243
0.000922475
0.000430547
0.000541113
0.00112299
0.000746966
0.000317548
0.000396524
0.000910463
0.000574046
0.000223416
0.000275419
0.00069814
0.000416311
0.000148776
0.0001794
0.000504166
0.000283264
9.3024e-05
0.000108367
0.000338107
0.000178237
5.41903e-05
6.00404e-05
0.000206056
0.000102245
2.91822e-05
3.01863e-05
0.000111409
5.28448e-05
1.43971e-05
1.36055e-05
5.21954e-05
2.43933e-05
6.42526e-06
5.40012e-06
2.07497e-05
9.95245e-06
2.54248e-06
1.83041e-06
6.83343e-06
3.50584e-06
8.6278e-07
5.01555e-07
1.78392e-06
1.00945e-06
2.37275e-07
1.00657e-07
3.36538e-07
2.12232e-07
4.79259e-08
1.26248e-08
3.82494e-08
2.67225e-08
6.12357e-09
1.38123e-09
2.69414e-09
2.27129e-09
7.56197e-10
9.04122e-10
1.35736e-09
1.06813e-09
5.39346e-10
0.00738365
0.00364484
0.00933007
0.00793186
0.00744837
0.003423
0.00942632
0.00819032
0.00751954
0.00324865
0.0095311
0.0081575
0.00758695
0.00313077
0.0096382
0.00820786
0.00764783
0.00307792
0.00974234
0.00826872
0.00769985
0.00309283
0.00983904
0.00831035
0.00774117
0.00317046
0.00992464
0.00833487
0.00777046
0.00302037
0.00999554
0.00834052
0.00778682
0.00277726
0.0100526
0.00832993
0.00778976
0.00263776
0.00963124
0.00830893
0.0077791
0.0026389
0.00892052
0.00828142
0.00775521
0.00278233
0.0084455
0.00824636
0.00771911
0.00308257
0.0083473
0.00819977
0.00759727
0.00354237
0.0085154
0.00813829
0.00746461
0.00407393
0.00874656
0.00806119
0.00732647
0.00448736
0.00888775
0.00797063
0.00718456
0.0047071
0.00890283
0.0078717
0.00705617
0.0049365
0.00883945
0.0077726
0.00694759
0.00535869
0.00875338
0.00768296
0.00684387
0.00586348
0.00866839
0.00760804
0.0067139
0.0062469
0.00858042
0.00754045
0.00652918
0.00656271
0.00847718
0.00745555
0.00629034
0.00666586
0.00835188
0.00731901
0.00603698
0.00649166
0.00820639
0.0071072
0.00582206
0.00554439
0.00804846
0.00682772
0.00567204
0.00465791
0.00788749
0.00652095
0.00557396
0.00433587
0.00773147
0.00623993
0.00549696
0.00467179
0.00758588
0.00602644
0.00541666
0.00548138
0.007454
0.00589849
0.00532369
0.00627934
0.00733719
0.00584925
0.00521749
0.00676635
0.00723511
0.00585066
0.00509967
0.00675336
0.00714548
0.00586016
0.0049728
0.00664773
0.00706312
0.0058334
0.00483992
0.00593541
0.00698025
0.00574181
0.00470375
0.00492803
0.00688839
0.0055847
0.00456587
0.00424865
0.00678076
0.00538544
0.00442642
0.00407092
0.00665348
0.00517441
0.00428509
0.00434032
0.00650563
0.00497353
0.00414158
0.00484565
0.00633842
0.0047907
0.00399589
0.00524692
0.00615398
0.004623
0.00384816
0.00537877
0.00595464
0.00446265
0.00369864
0.0053128
0.00574272
0.0043021
0.00354771
0.00512218
0.00552044
0.00413676
0.00339586
0.00487524
0.0052899
0.00396526
0.00324358
0.00453107
0.00505298
0.00378845
0.00309129
0.00415394
0.00481137
0.00360807
0.00293928
0.00381672
0.00456658
0.00342575
0.00278781
0.00355628
0.00431998
0.00324271
0.0026369
0.00336199
0.00407281
0.00305971
0.00248615
0.00320014
0.00382614
0.00287724
0.00233479
0.00303838
0.00358084
0.00269541
0.00218065
0.00285993
0.00333753
0.00251265
0.00201288
0.00266449
0.00309662
0.00232364
0.00184901
0.00245865
0.00285815
0.00213739
0.00169112
0.00224944
0.00262067
0.00195547
0.00153817
0.00204619
0.00238717
0.00177794
0.00138928
0.0018506
0.00215931
0.00160466
0.00124422
0.00166209
0.00193785
0.00143577
0.00110323
0.00147992
0.00172348
0.00127176
0.000966645
0.00130403
0.00151707
0.0011134
0.000835007
0.00113489
0.00131952
0.00096152
0.000707837
0.000973605
0.00113177
0.000805489
0.000573439
0.000821256
0.000954212
0.000647714
0.000444707
0.000659675
0.000786451
0.000502548
0.000330127
0.000507582
0.000613112
0.000373488
0.000232655
0.000372171
0.00045713
0.000263722
0.000154316
0.000257344
0.000322808
0.00017544
9.55397e-05
0.000165939
0.000213339
0.00010908
5.48122e-05
9.86867e-05
0.000130297
6.29401e-05
2.89541e-05
5.36022e-05
7.26495e-05
3.34898e-05
1.39831e-05
2.63591e-05
3.65665e-05
1.63151e-05
6.10691e-06
1.16174e-05
1.6422e-05
7.19756e-06
2.36615e-06
4.51315e-06
6.47185e-06
2.82055e-06
7.86515e-07
1.49848e-06
2.17257e-06
9.49339e-07
2.11575e-07
4.01918e-07
5.88033e-07
2.5883e-07
4.14614e-08
7.85092e-08
1.15837e-07
5.14486e-08
4.84797e-09
9.19557e-09
1.3706e-08
6.10814e-09
2.74627e-10
5.86618e-10
9.0551e-10
3.56369e-10
8.11961e-11
2.38706e-10
3.82071e-10
1.11872e-10
)
;

boundaryField
{
    leftWall
    {
        type            calculated;
        value           uniform 0;
    }
    rightWall
    {
        type            calculated;
        value           uniform 0;
    }
    leftSides_periodic0
    {
        type            cyclic;
    }
    leftSides_periodic1
    {
        type            cyclic;
    }
    rightSides_periodic0
    {
        type            cyclic;
    }
    rightSides_periodic1
    {
        type            cyclic;
    }
    leftInOut_periodic0
    {
        type            cyclic;
    }
    leftInOut_periodic1
    {
        type            cyclic;
    }
    rightInOut_periodic0
    {
        type            cyclic;
    }
    rightInOut_periodic1
    {
        type            cyclic;
    }
}


// ************************************************************************* //
