/*--------------------------------*- C++ -*----------------------------------*\
| =========                 |                                                 |
| \\      /  F ield         | OpenFOAM: The Open Source CFD Toolbox           |
|  \\    /   O peration     | Version:  v1912                                 |
|   \\  /    A nd           | Website:  www.openfoam.com                      |
|    \\/     M anipulation  |                                                 |
\*---------------------------------------------------------------------------*/
FoamFile
{
    version     2.0;
    format      ascii;
    class       volSymmTensorField;
    location    "96.8";
    object      turbulenceProperties:R;
}
// * * * * * * * * * * * * * * * * * * * * * * * * * * * * * * * * * * * * * //

dimensions      [0 2 -2 0 0 0 0];


internalField   nonuniform List<symmTensor> 
2528
(
(1.72737e-06 -4.20166e-10 -2.51274e-12 1.72734e-06 6.42657e-09 1.72737e-06)
(6.93273e-07 -3.70188e-12 -3.75908e-13 6.93275e-07 1.63505e-09 6.93272e-07)
(1.25559e-06 3.0986e-10 1.85328e-12 1.25559e-06 3.96645e-09 1.25559e-06)
(1.78038e-06 1.33321e-10 9.45685e-13 1.78039e-06 6.74963e-09 1.78038e-06)
(4.91893e-07 -7.63757e-10 -1.20486e-11 4.91928e-07 1.05395e-08 4.91886e-07)
(1.69046e-07 2.65309e-11 -1.6201e-12 1.69046e-07 2.3771e-09 1.6904e-07)
(3.62646e-07 6.01467e-10 9.47967e-12 3.62646e-07 6.97052e-09 3.6264e-07)
(4.93721e-07 1.21838e-10 4.65996e-12 4.93754e-07 1.09375e-08 4.93723e-07)
(1.60345e-06 -7.46079e-09 -1.84261e-10 1.6048e-06 9.40677e-08 1.60335e-06)
(4.45177e-07 2.69302e-10 -2.01347e-11 4.45156e-07 1.70058e-08 4.45101e-07)
(1.13425e-06 5.64811e-09 1.38932e-10 1.13426e-06 5.96735e-08 1.13418e-06)
(1.48246e-06 7.52964e-10 6.57342e-11 1.48289e-06 8.82554e-08 1.4825e-06)
(5.25247e-06 -4.68448e-08 -1.67727e-09 5.23913e-06 5.80289e-07 5.25163e-06)
(1.44924e-06 1.61291e-09 -1.85664e-10 1.44894e-06 1.05327e-07 1.44853e-06)
(3.66596e-06 3.5046e-08 1.24098e-09 3.66614e-06 3.6164e-07 3.6654e-06)
(4.72451e-06 5.01134e-09 5.81229e-10 4.72817e-06 5.25268e-07 4.72497e-06)
(1.26329e-05 -1.71399e-07 -8.46519e-09 1.26731e-05 2.15701e-06 1.26288e-05)
(3.5758e-06 5.90176e-09 -9.79621e-10 3.57388e-06 4.1138e-07 3.57204e-06)
(8.85166e-06 1.29284e-07 6.25061e-09 8.85269e-06 1.34923e-06 8.84905e-06)
(1.12256e-05 2.05284e-08 2.86861e-09 1.12435e-05 1.91816e-06 1.12283e-05)
(2.477e-05 -4.47453e-07 -2.90774e-08 2.47394e-05 5.75141e-06 2.47565e-05)
(7.24575e-06 1.76853e-08 -3.54637e-09 7.23793e-06 1.1782e-06 7.23212e-06)
(1.75053e-05 3.45294e-07 2.17023e-08 1.7509e-05 3.67346e-06 1.74969e-05)
(2.1786e-05 5.41488e-08 9.62437e-09 2.18453e-05 5.07361e-06 2.1796e-05)
(4.19249e-05 -9.20869e-07 -7.66854e-08 4.19691e-05 1.21665e-05 4.18906e-05)
(1.28115e-05 4.43384e-08 -9.88141e-09 1.27876e-05 2.71321e-06 1.27734e-05)
(3.01005e-05 7.33398e-07 5.82977e-08 3.01103e-05 8.01695e-06 3.00794e-05)
(3.67097e-05 1.08373e-07 2.47133e-08 3.68621e-05 1.07195e-05 3.6738e-05)
(6.37682e-05 -1.58816e-06 -1.66991e-07 6.38376e-05 2.17144e-05 6.36959e-05)
(2.04889e-05 9.61185e-08 -2.27106e-08 2.04295e-05 5.31461e-06 2.04006e-05)
(4.66089e-05 1.31005e-06 1.2968e-07 4.66304e-05 1.48266e-05 4.65655e-05)
(5.56685e-05 1.76119e-07 5.21879e-08 5.59924e-05 1.91797e-05 5.57336e-05)
(8.91827e-05 -2.38908e-06 -3.14775e-07 8.9319e-05 3.40358e-05 8.90503e-05)
(3.03076e-05 1.84188e-07 -4.50224e-08 3.01815e-05 9.18239e-06 3.0131e-05)
(6.64499e-05 2.04109e-06 2.49565e-07 6.64907e-05 2.40838e-05 6.63724e-05)
(7.77094e-05 2.42018e-07 9.49893e-08 7.83053e-05 3.01708e-05 7.78374e-05)
(0.000116657 -3.22611e-06 -5.30732e-07 0.000116865 4.82062e-05 0.00011644)
(4.20938e-05 3.17815e-07 -7.94408e-08 4.18573e-05 1.43491e-05 4.17785e-05)
(8.85948e-05 2.84789e-06 4.2852e-07 8.86639e-05 3.52597e-05 8.84713e-05)
(0.00010145 2.88579e-07 1.54063e-07 0.00010243 4.28598e-05 0.000101673)
(0.0001446 -3.99905e-06 -8.20053e-07 0.000144907 6.30677e-05 0.000144271)
(5.54931e-05 5.01196e-07 -1.27672e-07 5.50913e-05 2.0659e-05 5.49794e-05)
(0.000111813 3.63506e-06 6.71989e-07 0.000111921 4.75102e-05 0.000111634)
(0.000125407 3.04993e-07 2.28231e-07 0.00012688 5.61531e-05 0.000125759)
(0.000171698 -4.63384e-06 -1.18294e-06 0.000172119 7.76099e-05 0.000171231)
(7.00363e-05 7.31676e-07 -1.90221e-07 6.94066e-05 2.78104e-05 6.92591e-05)
(0.000134946 4.31987e-06 9.80217e-07 0.000135104 5.99557e-05 0.000134704)
(0.00014831 2.90417e-07 3.14709e-07 0.000150374 6.91218e-05 0.000148824)
(0.000197051 -5.09029e-06 -1.61687e-06 0.000197599 9.11542e-05 0.000196424)
(8.52249e-05 1.00031e-06 -2.66528e-07 8.43007e-05 3.54356e-05 8.41184e-05)
(0.000157094 4.84714e-06 1.35004e-06 0.000157312 7.19012e-05 0.000156785)
(0.000169308 2.42722e-07 3.99829e-07 0.000171977 7.92358e-05 0.000169999)
(0.000220172 -5.30105e-06 -2.09465e-06 0.000220839 0.000102196 0.000219371)
(0.000100609 1.29432e-06 -3.55155e-07 9.93231e-05 4.3193e-05 9.91099e-05)
(0.000177668 5.16368e-06 1.76562e-06 0.000177954 8.24199e-05 0.000177295)
(0.000188039 1.7515e-07 4.87719e-07 0.000191351 8.80735e-05 0.000188927)
(0.000240892 -5.35076e-06 -2.6281e-06 0.000241676 0.000111815 0.0002399)
(0.000115826 1.59972e-06 -4.54105e-07 0.000114114 5.08266e-05 0.000113877)
(0.000196363 5.26953e-06 2.20962e-06 0.000196723 9.11224e-05 0.000195936)
(0.000204375 9.21109e-08 5.78045e-07 0.000208366 9.58019e-05 0.000205484)
(0.000259255 -5.27329e-06 -3.21919e-06 0.00026016 0.000120345 0.000258055)
(0.000130621 1.90386e-06 -5.60856e-07 0.000128421 5.81493e-05 0.000128172)
(0.000213111 5.23956e-06 2.69304e-06 0.000213548 9.89174e-05 0.000212637)
(0.000218271 9.26155e-10 6.69097e-07 0.000222968 0.000102403 0.000219622)
(0.000275402 -5.09168e-06 -3.86692e-06 0.000276431 0.000127841 0.000273979)
(0.000144824 2.19619e-06 -6.72834e-07 0.00014208 6.50647e-05 0.000141836)
(0.000227959 5.09268e-06 3.21295e-06 0.000228475 0.000105826 0.00022745)
(0.000229775 -8.99211e-08 7.59035e-07 0.000235195 0.000107896 0.000231388)
(0.000289489 -4.82581e-06 -4.56929e-06 0.000290638 0.00013436 0.000287832)
(0.000158342 2.46875e-06 -7.87425e-07 0.000155002 7.15423e-05 0.000154784)
(0.00024096 4.85152e-06 3.76611e-06 0.000241555 0.000111891 0.000240429)
(0.000239003 -1.74147e-07 8.46013e-07 0.00024515 0.000112328 0.000240895)
(0.000301697 -4.49369e-06 -5.32209e-06 0.000302949 0.000139999 0.0002998)
(0.000171128 2.71573e-06 -9.02241e-07 0.000167147 7.75764e-05 0.000166978)
(0.000252201 4.52916e-06 4.34714e-06 0.000252872 0.000117118 0.000251663)
(0.000246101 -2.47258e-07 9.28453e-07 0.00025297 0.000115776 0.000248288)
(0.00031221 -4.11445e-06 -6.11975e-06 0.000313547 0.000144858 0.000310069)
(0.00018317 2.93285e-06 -1.01527e-06 0.000178509 8.31759e-05 0.000178417)
(0.000261784 4.14211e-06 4.95016e-06 0.000262528 0.000121585 0.000261256)
(0.000251235 -3.0574e-07 1.00515e-06 0.00025881 0.00011832 0.000253728)
(0.000321204 -3.70119e-06 -6.95576e-06 0.000322608 0.000148989 0.000318821)
(0.000194475 3.11736e-06 -1.12457e-06 0.0001891 8.83695e-05 0.000189115)
(0.000269821 3.70611e-06 5.56899e-06 0.000270631 0.000125339 0.00026932)
(0.00025457 -3.47116e-07 1.07499e-06 0.000262826 0.000120019 0.000257378)
(0.000328841 -3.26598e-06 -7.82263e-06 0.000330289 0.000152476 0.000326223)
(0.000205064 3.2678e-06 -1.22862e-06 0.000198946 9.31831e-05 0.0001991)
(0.000276422 3.23579e-06 6.19757e-06 0.000277291 0.000128413 0.000275966)
(0.000256267 -3.69918e-07 1.13724e-06 0.000265174 0.000120944 0.000259395)
(0.000335266 -2.82282e-06 -8.71261e-06 0.000336733 0.000155416 0.000332425)
(0.000214962 3.38367e-06 -1.32619e-06 0.00020808 9.76326e-05 0.000208406)
(0.000281694 2.74165e-06 6.83061e-06 0.000282612 0.000130869 0.0002813)
(0.000256478 -3.73148e-07 1.19152e-06 0.000265997 0.000121171 0.000259929)
(0.000340604 -2.37601e-06 -9.61793e-06 0.000342063 0.000157817 0.000337555)
(0.000224199 3.46533e-06 -1.41652e-06 0.000216538 0.000101761 0.000217069)
(0.000285729 2.23187e-06 7.46337e-06 0.000286686 0.000132745 0.000285415)
(0.000255346 -3.56737e-07 1.23779e-06 0.000265438 0.000120777 0.000259118)
(0.000344965 -1.93132e-06 -1.0531e-05 0.000346386 0.000159744 0.000341726)
(0.000232809 3.51442e-06 -1.49933e-06 0.000224355 0.000105568 0.000225125)
(0.000288613 1.71816e-06 8.09174e-06 0.0002896 0.000134117 0.000288393)
(0.000253003 -3.207e-07 1.27614e-06 0.000263626 0.000119826 0.000257093)
(0.000348435 -1.50042e-06 -1.14448e-05 0.000349791 0.000161267 0.000345029)
(0.000240824 3.53177e-06 -1.57486e-06 0.000231567 0.000109104 0.000232607)
(0.000290421 1.20222e-06 8.71095e-06 0.000291428 0.000134995 0.000290307)
(0.00024957 -2.65914e-07 1.30701e-06 0.00026068 0.000118366 0.00025397)
(0.000351097 -1.08528e-06 -1.23532e-05 0.000352362 0.000162411 0.000347544)
(0.000248272 3.51814e-06 -1.64375e-06 0.000238205 0.00011238 0.000239543)
(0.00029122 6.89567e-07 9.30969e-06 0.000292238 0.000135336 0.000291222)
(0.000245159 -1.93278e-07 1.33117e-06 0.000256714 0.000116417 0.000249861)
(0.000353014 -6.83999e-07 -1.32514e-05 0.000354165 0.000163221 0.000349335)
(0.000255177 3.47437e-06 -1.70593e-06 0.000244294 0.000115373 0.000245959)
(0.000291071 1.87389e-07 9.88743e-06 0.00029209 0.000135236 0.000291199)
(0.000239873 -1.03456e-07 1.34922e-06 0.000251834 0.000114083 0.000244869)
(0.000354244 -2.99445e-07 -1.41352e-05 0.00035526 0.000163674 0.00035046)
(0.000261567 3.4017e-06 -1.76255e-06 0.000249864 0.000118136 0.000251877)
(0.000290026 -3.01799e-07 1.04426e-05 0.000291038 0.000134705 0.000290285)
(0.000233813 2.16813e-09 1.36213e-06 0.000246143 0.000111409 0.000239092)
(0.000354839 7.04624e-08 -1.50013e-05 0.000355704 0.00016383 0.000350969)
(0.000267466 3.3006e-06 -1.81446e-06 0.000254937 0.000120649 0.000257321)
(0.000288134 -7.73685e-07 1.09747e-05 0.000289131 0.000133788 0.000288527)
(0.000227078 1.22311e-07 1.37009e-06 0.000239741 0.000108357 0.000232627)
(0.000354845 4.24394e-07 -1.58474e-05 0.000355544 0.000163717 0.000350906)
(0.000272899 3.17274e-06 -1.86196e-06 0.000259538 0.000122965 0.000262317)
(0.000285441 -1.22789e-06 1.14858e-05 0.000286417 0.000132513 0.000285971)
(0.000219762 2.5469e-07 1.37427e-06 0.000232726 0.000104994 0.00022557)
(0.000354302 7.68335e-07 -1.66711e-05 0.000354825 0.000163345 0.000350311)
(0.000277887 3.02121e-06 -1.90385e-06 0.000263704 0.000125075 0.000266896)
(0.000281998 -1.66627e-06 1.1979e-05 0.000282946 0.000130868 0.000282664)
(0.000211963 3.97609e-07 1.37618e-06 0.000225202 0.00010143 0.000218019)
(0.000353249 1.10128e-06 -1.74707e-05 0.000353589 0.000162743 0.000349222)
(0.000282459 2.85087e-06 -1.94161e-06 0.000267477 0.000127003 0.000271088)
(0.00027786 -2.08829e-06 1.24599e-05 0.000278774 0.000128896 0.000278662)
(0.000203781 5.5031e-07 1.37756e-06 0.000217279 9.76705e-05 0.000210076)
(0.00035172 1.42574e-06 -1.82433e-05 0.000351873 0.000161891 0.000347669)
(0.000286639 2.66341e-06 -1.97706e-06 0.00027088 0.000128771 0.000274913)
(0.000273091 -2.49684e-06 1.29323e-05 0.000273966 0.000126635 0.000274026)
(0.000195342 7.10971e-07 1.37915e-06 0.000209085 9.37804e-05 0.000201867)
(0.000349748 1.74896e-06 -1.89883e-05 0.000349714 0.000160854 0.000345684)
(0.00029045 2.45869e-06 -2.01287e-06 0.000273928 0.000130331 0.000278389)
(0.000267762 -2.89289e-06 1.3398e-05 0.000268595 0.000124093 0.000268827)
(0.000186779 8.76298e-07 1.38191e-06 0.000200749 8.98346e-05 0.00019352)
(0.000347366 2.06888e-06 -1.97049e-05 0.000347146 0.000159619 0.000343298)
(0.000293914 2.23813e-06 -2.05121e-06 0.000276638 0.000131769 0.000281532)
(0.000261948 -3.27854e-06 1.38519e-05 0.00026274 0.000121306 0.00026314)
(0.000178196 1.04141e-06 1.38664e-06 0.00019238 8.58735e-05 0.000185142)
(0.000344603 2.39406e-06 -2.03927e-05 0.000344205 0.000158202 0.00034054)
(0.000297045 2.0024e-06 -2.09406e-06 0.000279026 0.00013304 0.000284352)
(0.000255726 -3.64972e-06 1.42826e-05 0.000256474 0.000118338 0.000257038)
(0.000169672 1.20164e-06 1.39661e-06 0.00018408 8.19512e-05 0.00017682)
(0.000341491 2.72028e-06 -2.10515e-05 0.000340924 0.000156617 0.000337438)
(0.000299864 1.75182e-06 -2.14249e-06 0.000281107 0.000134174 0.000286865)
(0.000249163 -3.99676e-06 1.46775e-05 0.000249866 0.000115228 0.00025059)
(0.000161267 1.35787e-06 1.41955e-06 0.000175983 7.80724e-05 0.000168656)
(0.00033806 3.05385e-06 -2.16773e-05 0.000337338 0.000154918 0.000334022)
(0.00030239 1.48753e-06 -2.19773e-06 0.000282894 0.000135175 0.000289084)
(0.000242329 -4.3178e-06 1.50332e-05 0.000242977 0.00011196 0.000243862)
(0.000153044 1.52047e-06 1.46841e-06 0.000168281 7.43331e-05 0.000160783)
(0.000334343 3.39857e-06 -2.22655e-05 0.00033348 0.000153054 0.000330321)
(0.000304648 1.21046e-06 -2.26135e-06 0.000284405 0.000136002 0.000291027)
(0.00023529 -4.62058e-06 1.53677e-05 0.000235869 0.000108596 0.000236921)
(0.000145087 1.71548e-06 1.55475e-06 0.000161166 7.07754e-05 0.000153345)
(0.000330371 3.75811e-06 -2.28088e-05 0.00032938 0.000151087 0.000326367)
(0.000306661 9.21222e-07 -2.33485e-06 0.000285661 0.000136758 0.000292716)
(0.000228122 -4.92442e-06 1.57151e-05 0.00022862 0.000105168 0.000229844)
(0.000137553 1.96153e-06 1.66845e-06 0.000154697 6.73896e-05 0.000146442)
(0.000326179 4.14261e-06 -2.33068e-05 0.000325071 0.000149008 0.000322191)
(0.000308456 6.19927e-07 -2.42173e-06 0.000286688 0.000137404 0.000294176)
(0.000220903 -5.25224e-06 1.61004e-05 0.00022133 0.000101662 0.000222713)
(0.000130993 2.11507e-06 1.69949e-06 0.000148323 6.10733e-05 0.000140024)
(0.000321796 4.54586e-06 -2.37539e-05 0.000320585 0.000146818 0.000317822)
(0.000310065 3.06469e-07 -2.52437e-06 0.000287523 0.000137954 0.000295438)
(0.000213701 -5.6058e-06 1.64829e-05 0.00021409 9.82018e-05 0.000215587)
(0.000124944 2.2479e-06 1.74216e-06 0.000142479 5.5836e-05 0.000134119)
(0.000317244 4.9635e-06 -2.41324e-05 0.000315951 0.000144607 0.000313281)
(0.000311523 -1.84791e-08 -2.64325e-06 0.000288206 0.000138397 0.000296537)
(0.000206551 -5.94451e-06 1.67308e-05 0.000206938 9.47711e-05 0.000208489)
(0.000119466 2.36359e-06 1.79763e-06 0.000137202 5.10783e-05 0.000128795)
(0.000312534 5.38732e-06 -2.4428e-05 0.000311192 0.000142327 0.00030858)
(0.000312879 -3.531e-07 -2.77681e-06 0.000288777 0.000138813 0.00029751)
(0.000199453 -6.19342e-06 1.66959e-05 0.000199827 9.14015e-05 0.000201408)
(0.000114579 2.46903e-06 1.86552e-06 0.000132587 4.64568e-05 0.000124084)
(0.000307672 5.82394e-06 -2.46451e-05 0.000306325 0.000139981 0.000303726)
(0.000314186 -6.95438e-07 -2.92008e-06 0.000289269 0.000139215 0.000298392)
(0.000192387 -6.30584e-06 1.63649e-05 0.000192676 8.81082e-05 0.000194325)
(0.000110317 2.55971e-06 1.94346e-06 0.000128696 4.18766e-05 0.000120031)
(0.000302656 6.29693e-06 -2.48247e-05 0.000301375 0.000137524 0.000298721)
(0.000315509 -1.04387e-06 -3.07056e-06 0.000289715 0.000139549 0.000299234)
(0.000185345 -6.3297e-06 1.5939e-05 0.000185466 8.47846e-05 0.000187259)
(0.000106739 2.6356e-06 2.03074e-06 0.000125591 3.73417e-05 0.000116706)
(0.000297492 6.85758e-06 -2.49747e-05 0.00029634 0.000134707 0.000293585)
(0.000316901 -1.39951e-06 -3.22831e-06 0.00029016 0.000139923 0.000300091)
(0.000178359 -6.38262e-06 1.56994e-05 0.000178287 8.14768e-05 0.000180278)
(0.000103939 2.69472e-06 2.12644e-06 0.000123349 3.27636e-05 0.000114192)
(0.000292226 7.52126e-06 -2.49247e-05 0.000291105 0.000130303 0.000288399)
(0.00031839 -1.76799e-06 -3.39594e-06 0.000290691 0.00014033 0.000301027)
(0.000171503 -6.55352e-06 1.57904e-05 0.000171293 7.81776e-05 0.00017346)
(0.000101972 2.73592e-06 2.23462e-06 0.000122 2.8168e-05 0.000112533)
(0.000286898 8.30815e-06 -2.47859e-05 0.000285567 0.000126273 0.000283185)
(0.000319889 -2.13808e-06 -3.55634e-06 0.00029153 0.000140168 0.000302084)
(0.000164852 -6.86498e-06 1.61064e-05 0.0001646 7.49151e-05 0.000166862)
(0.000100828 2.75985e-06 2.36211e-06 0.000121538 2.36122e-05 0.000111722)
(0.00028135 9.18077e-06 -2.45623e-05 0.000279712 0.000127142 0.000277767)
(0.000321382 -2.46728e-06 -3.71722e-06 0.00029283 0.000139235 0.000303264)
(0.000158467 -7.19186e-06 1.62106e-05 0.00015823 7.11153e-05 0.00016048)
(0.000100485 2.76326e-06 2.51867e-06 0.000121937 1.90452e-05 0.00011174)
(0.000274997 9.19297e-06 -2.19897e-05 0.000273401 0.000124891 0.000271854)
(0.000323046 -2.72761e-06 -3.93087e-06 0.00029448 0.00013756 0.000304634)
(0.000152364 -7.42651e-06 1.59266e-05 0.000152135 6.72887e-05 0.000154317)
(0.000100912 2.73719e-06 2.72606e-06 0.000123159 1.44342e-05 0.000112552)
(0.00026734 8.73858e-06 -1.87909e-05 0.000266355 0.000121996 0.000264675)
(0.000325062 -2.99432e-06 -4.24398e-06 0.000296256 0.000136219 0.000306378)
(0.000146524 -7.6762e-06 1.56137e-05 0.000146251 6.52079e-05 0.000148405)
(0.000102074 2.67119e-06 3.01984e-06 0.00012515 9.77538e-06 0.000114117)
(0.000258574 8.58511e-06 -1.707e-05 0.00025805 0.000118246 0.000256138)
(0.000327578 -3.48204e-06 -4.66265e-06 0.000298091 0.00014066 0.000308635)
(0.000140949 -7.85221e-06 1.51181e-05 0.000140563 6.35293e-05 0.000142736)
(0.000103926 2.56485e-06 3.40956e-06 0.000127841 5.07661e-06 0.000116379)
(0.000249725 9.07167e-06 -1.78609e-05 0.000249054 0.000113874 0.000247135)
(0.000329204 -4.07302e-06 -4.68421e-06 0.000301447 0.000145256 0.000311507)
(0.000135653 -7.98785e-06 1.45025e-05 0.000135089 6.10608e-05 0.000137334)
(0.000106414 2.42914e-06 3.82568e-06 0.000131167 3.10626e-07 0.000119275)
(0.000241503 1.02211e-05 -2.05668e-05 0.000240764 0.000109301 0.000238446)
(0.000329872 -4.5678e-06 -4.23277e-06 0.00030629 0.000146794 0.000314546)
(0.000130652 -8.3544e-06 1.42366e-05 0.000129927 5.86144e-05 0.000132269)
(0.000109471 2.27921e-06 4.1744e-06 0.000135064 -4.513e-06 0.000122735)
(0.000233614 1.15155e-05 -2.16573e-05 0.000232956 9.88687e-05 0.000230262)
(0.000330533 -4.9648e-06 -3.87561e-06 0.000310536 0.000148024 0.000316791)
(0.000125982 -8.69384e-06 1.3737e-05 0.000125262 5.4082e-05 0.000127506)
(0.000113036 2.1213e-06 4.46204e-06 0.000139463 -9.39607e-06 0.000126685)
(0.000225954 1.25517e-05 -2.06825e-05 0.000225445 8.75608e-05 0.000222527)
(0.000331014 -5.22743e-06 -3.93327e-06 0.000312569 0.000148514 0.000317273)
(0.000121722 -9.1077e-06 1.30375e-05 0.000121085 4.88635e-05 0.000123112)
(0.000117064 1.95103e-06 4.73198e-06 0.000144279 -1.43621e-05 0.000131055)
(0.000218637 1.33151e-05 -1.97191e-05 0.000218795 8.06305e-05 0.000215022)
(0.000331521 -5.44219e-06 -4.52257e-06 0.00031168 0.000148165 0.00031596)
(0.000117979 -9.67755e-06 1.23628e-05 0.000117362 4.4314e-05 0.000119185)
(0.000121506 1.76315e-06 5.00365e-06 0.000149427 -1.93994e-05 0.000135782)
(0.000211886 1.38674e-05 -1.88961e-05 0.000212588 7.49229e-05 0.000208018)
(0.000332612 -5.72702e-06 -5.52542e-06 0.000308414 0.00014727 0.000313925)
(0.000114789 -1.03025e-05 1.17938e-05 0.000114199 4.0629e-05 0.000115746)
(0.000126308 1.55165e-06 5.27904e-06 0.000154834 -2.45548e-05 0.000140803)
(0.000205714 1.44566e-05 -1.81979e-05 0.000206711 6.95455e-05 0.000201652)
(0.000333409 -5.90058e-06 -6.47381e-06 0.000304952 0.000146306 0.000311914)
(0.000112133 -1.09497e-05 1.13108e-05 0.000111634 3.77759e-05 0.000112821)
(0.000131443 1.3111e-06 5.54209e-06 0.000160418 -2.97115e-05 0.000146061)
(0.00020005 1.50787e-05 -1.7543e-05 0.000201349 6.44056e-05 0.000195905)
(0.000332389 -5.72002e-06 -6.81992e-06 0.00030388 0.000140622 0.000310173)
(0.000109984 -1.16449e-05 1.08634e-05 0.000109577 3.54851e-05 0.000110463)
(0.000136857 1.04214e-06 5.78787e-06 0.000166125 -3.49107e-05 0.000151498)
(0.000194984 1.57233e-05 -1.68745e-05 0.000196508 5.93828e-05 0.00019081)
(0.000331189 -5.82414e-06 -7.03913e-06 0.000303961 0.000138084 0.000308696)
(0.000108305 -1.23925e-05 1.042e-05 0.000107949 3.35819e-05 0.000108652)
(0.000142496 7.475e-07 6.01086e-06 0.000171895 -4.01018e-05 0.000157059)
(0.00019055 1.6382e-05 -1.61687e-05 0.000192264 5.44435e-05 0.000186344)
(0.000330514 -6.16951e-06 -7.24639e-06 0.000304186 0.000137158 0.000307795)
(0.000107064 -1.31927e-05 9.96914e-06 0.000106721 3.18859e-05 0.000107311)
(0.000148306 4.29598e-07 6.20659e-06 0.000177672 -4.52027e-05 0.000162683)
(0.000186749 1.706e-05 -1.54193e-05 0.00018865 4.96424e-05 0.000182501)
(0.000330285 -6.57402e-06 -7.43974e-06 0.000304695 0.000136362 0.000307395)
(0.000106223 -1.40481e-05 9.50439e-06 0.000105876 3.02514e-05 0.000106359)
(0.000154223 9.04351e-08 6.37461e-06 0.0001834 -5.02449e-05 0.000168311)
(0.000183572 1.77637e-05 -1.4621e-05 0.000185663 4.48982e-05 0.000179289)
(0.000330308 -7.03566e-06 -7.6174e-06 0.000305883 0.000135799 0.000307299)
(0.000105734 -1.49616e-05 9.01882e-06 0.000105386 2.85963e-05 0.000105745)
(0.000160178 -2.66264e-07 6.51622e-06 0.00018902 -5.51747e-05 0.000173876)
(0.000181012 1.85025e-05 -1.37657e-05 0.000183288 4.02661e-05 0.000176708)
(0.000330434 -7.41676e-06 -7.7769e-06 0.000308034 0.000134877 0.000307361)
(0.000105551 -1.59397e-05 8.50445e-06 0.000105209 2.68591e-05 0.00010543)
(0.000166098 -6.35499e-07 6.63245e-06 0.00019447 -5.9943e-05 0.00017931)
(0.000179057 1.92938e-05 -1.28531e-05 0.000181499 3.57724e-05 0.00017475)
(0.000330961 -7.59481e-06 -7.91774e-06 0.000310509 0.000131015 0.000307886)
(0.000105633 -1.69909e-05 7.95772e-06 0.000105303 2.50438e-05 0.000105379)
(0.000171913 -1.01225e-06 6.72643e-06 0.000199689 -6.45063e-05 0.000184544)
(0.00017769 2.01504e-05 -1.19018e-05 0.000180263 3.12973e-05 0.000173399)
(0.000332588 -8.1919e-06 -8.03731e-06 0.000311937 0.000127761 0.000309577)
(0.000105952 -1.81224e-05 7.38737e-06 0.000105632 2.30199e-05 0.000105564)
(0.000177554 -1.3916e-06 6.79982e-06 0.000204617 -6.88274e-05 0.000189509)
(0.000176877 2.10686e-05 -1.08727e-05 0.000179555 2.68701e-05 0.00017264)
(0.000335139 -1.02447e-05 -8.14475e-06 0.000312795 0.000140687 0.000312238)
(0.000106493 -1.93211e-05 6.76397e-06 0.000106157 2.07631e-05 0.000105964)
(0.000182962 -1.76792e-06 6.85696e-06 0.000209186 -7.28047e-05 0.000194152)
(0.000176569 2.20275e-05 -9.61218e-06 0.000179372 2.24225e-05 0.000172453)
(0.000334409 -1.14992e-05 -6.85665e-06 0.000317506 0.00014903 0.000315481)
(0.000107259 -2.05549e-05 5.98557e-06 0.00010686 1.82631e-05 0.000106571)
(0.00018809 -2.13703e-06 6.90052e-06 0.000213334 -7.64691e-05 0.000198443)
(0.000176722 2.30043e-05 -7.96695e-06 0.000179712 1.78913e-05 0.000172814)
(0.000332499 -1.16577e-05 -5.804e-06 0.000324058 0.000150158 0.000316787)
(0.000108249 -2.17961e-05 4.95082e-06 0.000107752 1.54963e-05 0.000107379)
(0.000192904 -2.49851e-06 6.93316e-06 0.000217013 -7.98328e-05 0.000202379)
(0.000177334 2.3995e-05 -6.09486e-06 0.000180537 1.32153e-05 0.000173703)
(0.000331639 -1.20913e-05 -6.09594e-06 0.000327257 0.000150233 0.0003155)
(0.000109524 -2.30416e-05 3.75864e-06 0.000108724 1.24439e-05 0.000108466)
(0.000197512 -2.85682e-06 6.95269e-06 0.000219951 -8.29291e-05 0.000206099)
(0.000178522 2.50015e-05 -4.35104e-06 0.000181595 8.33828e-06 0.000175201)
(0.000332496 -1.34704e-05 -7.54325e-06 0.000325551 0.000149447 0.000313069)
(0.000110963 -2.43062e-05 2.63816e-06 0.00011001 9.13083e-06 0.000109744)
(0.000201745 -3.21583e-06 6.96364e-06 0.000222501 -8.58885e-05 0.000209454)
(0.00018013 2.60288e-05 -2.75333e-06 0.000183135 3.20741e-06 0.000177163)
(0.000332464 -1.46124e-05 -8.8449e-06 0.000323 0.000143401 0.000310466)
(0.000112537 -2.5605e-05 1.60206e-06 0.000111695 5.54269e-06 0.000111184)
(0.000205543 -3.66639e-06 6.96698e-06 0.000224857 -8.91413e-05 0.000212388)
(0.000182083 2.70927e-05 -1.17761e-06 0.000185281 -2.43006e-06 0.00017952)
(0.0003291 -1.42512e-05 -8.97756e-06 0.000323779 0.000130939 0.000307737)
(0.000114448 -2.69445e-05 5.69342e-07 0.000113418 1.55093e-06 0.000112988)
(0.000209201 -4.34435e-06 6.96538e-06 0.000226528 -9.44931e-05 0.000215191)
(0.000184634 2.81362e-05 4.77358e-07 0.000187521 -8.72032e-06 0.000182527)
(0.000325723 -1.45587e-05 -9.11068e-06 0.000324594 0.000126651 0.000305205)
(0.000116434 -2.82755e-05 -5.26408e-07 0.000115754 -2.80456e-06 0.000114895)
(0.000212552 -5.01453e-06 6.82262e-06 0.000227891 -0.000101668 0.000217591)
(0.000187271 2.90692e-05 2.27197e-06 0.000190892 -1.49468e-05 0.000185673)
(0.000322698 -1.52678e-05 -9.24122e-06 0.000324525 0.000124876 0.000303258)
(0.000118712 -2.95236e-05 -1.725e-06 0.000118304 -6.97886e-06 0.00011712)
(0.000216103 -5.18528e-06 6.32177e-06 0.000227568 -0.000102821 0.000220004)
(0.000190582 3.01699e-05 4.18033e-06 0.000194241 -2.00661e-05 0.000189548)
(0.000319353 -1.59468e-05 -9.36241e-06 0.000324706 0.000124816 0.000301247)
(0.000121581 -3.09059e-05 -3.01006e-06 0.000120507 -1.01238e-05 0.000119964)
(0.000218414 -5.65114e-06 6.41275e-06 0.00022721 -0.000103562 0.000221584)
(2.21853e-07 -2.48477e-12 -1.44501e-13 2.21853e-07 3.03639e-10 2.21853e-07)
(2.42049e-07 8.07037e-12 2.89134e-13 2.42049e-07 3.68484e-10 2.42049e-07)
(7.27113e-07 3.97866e-11 4.77467e-13 7.27113e-07 1.8087e-09 7.27113e-07)
(5.29243e-07 -1.20997e-11 -6.32784e-13 5.29244e-07 1.16216e-09 5.29243e-07)
(1.16307e-07 1.33637e-11 -1.32785e-12 1.16308e-07 1.05273e-09 1.16305e-07)
(1.25392e-07 3.03219e-11 2.46601e-12 1.25392e-07 1.11288e-09 1.2539e-07)
(3.40934e-07 4.43331e-11 3.9118e-12 3.40936e-07 5.13189e-09 3.40932e-07)
(2.24196e-07 -4.0634e-11 -4.40377e-12 2.24198e-07 2.83714e-09 2.24194e-07)
(5.81187e-07 2.85994e-10 -3.26527e-11 5.81201e-07 1.59038e-08 5.81142e-07)
(6.29325e-07 4.75986e-10 5.82846e-11 6.29345e-07 1.63902e-08 6.29286e-07)
(1.61392e-06 3.34852e-10 9.0618e-11 1.61399e-06 7.04831e-08 1.61388e-06)
(1.0201e-06 -5.89331e-10 -9.4012e-11 1.02014e-06 3.7284e-08 1.02007e-06)
(2.01739e-06 1.67546e-09 -3.30314e-10 2.01753e-06 1.13609e-07 2.01696e-06)
(2.18675e-06 3.2207e-09 5.7853e-10 2.187e-06 1.20257e-07 2.18639e-06)
(5.51134e-06 3.21872e-09 8.93081e-10 5.51206e-06 4.83883e-07 5.511e-06)
(3.4943e-06 -3.82656e-09 -9.14111e-10 3.49465e-06 2.62618e-07 3.49401e-06)
(5.03821e-06 5.33225e-09 -1.80644e-09 5.03892e-06 4.82055e-07 5.03605e-06)
(5.46338e-06 1.26221e-08 3.14711e-09 5.46461e-06 5.23809e-07 5.46162e-06)
(1.35146e-05 1.71935e-08 4.7202e-09 1.35183e-05 1.95284e-06 1.35133e-05)
(8.63186e-06 -1.42146e-08 -4.86638e-09 8.63336e-06 1.09382e-06 8.63057e-06)
(1.02565e-05 1.31504e-08 -6.72545e-09 1.02586e-05 1.47934e-06 1.02491e-05)
(1.11232e-05 3.62086e-08 1.1704e-08 1.11274e-05 1.629e-06 1.11173e-05)
(2.68572e-05 5.54083e-08 1.67817e-08 2.68695e-05 5.59652e-06 2.68541e-05)
(1.73308e-05 -3.84497e-08 -1.75921e-08 1.73354e-05 3.2313e-06 1.73271e-05)
(1.81758e-05 2.62501e-08 -1.92083e-08 1.81805e-05 3.60509e-06 1.81562e-05)
(1.97055e-05 8.31331e-08 3.34291e-08 1.97161e-05 3.99704e-06 1.96904e-05)
(4.61314e-05 1.32959e-07 4.52781e-08 4.61621e-05 1.25603e-05 4.61263e-05)
(3.0166e-05 -8.25232e-08 -4.85222e-08 3.01766e-05 7.48544e-06 3.01582e-05)
(2.90746e-05 4.32504e-08 -4.50653e-08 2.90827e-05 7.37291e-06 2.90319e-05)
(3.14894e-05 1.60952e-07 7.83916e-08 3.15108e-05 8.19321e-06 3.14573e-05)
(7.10105e-05 2.60084e-07 9.963e-08 7.10733e-05 2.34312e-05 7.10062e-05)
(4.71975e-05 -1.4815e-07 -1.09412e-07 4.72175e-05 1.44398e-05 4.71845e-05)
(4.29024e-05 5.88881e-08 -9.07397e-08 4.29135e-05 1.31127e-05 4.28221e-05)
(4.6372e-05 2.7177e-07 1.57487e-07 4.64089e-05 1.45478e-05 4.63135e-05)
(0.000100227 4.37149e-07 1.87616e-07 0.000100337 3.78414e-05 0.00010023)
(6.7887e-05 -2.30614e-07 -2.11117e-07 6.79195e-05 2.41461e-05 6.78695e-05)
(5.92399e-05 6.40245e-08 -1.61736e-07 5.92512e-05 2.08022e-05 5.91055e-05)
(6.38277e-05 4.09987e-07 2.7937e-07 6.3883e-05 2.29663e-05 6.37333e-05)
(0.000131911 6.55529e-07 3.13174e-07 0.000132084 5.45821e-05 0.000131931)
(9.11929e-05 -3.19595e-07 -3.60349e-07 9.12407e-05 3.60569e-05 9.11744e-05)
(7.73676e-05 4.73442e-08 -2.61317e-07 7.73735e-05 3.00435e-05 7.71629e-05)
(8.30062e-05 5.63576e-07 4.48062e-07 8.30799e-05 3.29323e-05 8.28679e-05)
(0.000164125 9.04527e-07 4.76091e-07 0.000164373 7.21597e-05 0.000164176)
(0.000115833 -4.02271e-07 -5.58268e-07 0.000115897 4.9249e-05 0.00011582)
(9.6431e-05 -1.79946e-09 -3.90112e-07 9.64224e-05 4.02082e-05 9.61426e-05)
(0.000102938 7.17834e-07 6.62513e-07 0.000103026 4.37066e-05 0.00010275)
(0.000195302 1.17798e-06 6.7315e-07 0.000195634 8.92958e-05 0.000195401)
(0.000140578 -4.66924e-07 -8.01328e-07 0.000140658 6.27569e-05 0.00014058)
(0.000115616 -9.05361e-08 -5.46537e-07 0.000115581 5.06482e-05 0.000115235)
(0.00012274 8.59427e-07 9.17691e-07 0.000122834 5.45729e-05 0.000122502)
(0.000224414 1.46063e-06 8.91746e-07 0.000224829 0.000104423 0.000224577)
(0.000164457 -5.06791e-07 -1.08304e-06 0.000164549 7.59318e-05 0.000164488)
(0.000134267 -2.22948e-07 -7.28193e-07 0.00013419 6.08379e-05 0.00013379)
(0.000141739 9.81061e-07 1.20724e-06 0.000141823 6.5079e-05 0.00014145)
(0.000250961 1.73369e-06 1.11844e-06 0.000251453 0.000116795 0.000251206)
(0.000186845 -5.1121e-07 -1.37122e-06 0.000186941 8.6897e-05 0.000186919)
(0.000151921 -4.02219e-07 -9.32005e-07 0.000151785 7.04238e-05 0.000151351)
(0.000159511 1.068e-06 1.50463e-06 0.000159569 7.41045e-05 0.00015918)
(0.000274924 2.00424e-06 1.36327e-06 0.000275486 0.000127958 0.000275268)
(0.000207536 -4.91016e-07 -1.67232e-06 0.000207635 9.65245e-05 0.000207667)
(0.000168294 -6.17861e-07 -1.13603e-06 0.000168086 7.81105e-05 0.000167646)
(0.000175914 1.12584e-06 1.80251e-06 0.000175927 8.172e-05 0.000175551)
(0.000296287 2.26187e-06 1.6251e-06 0.000296912 0.00013791 0.000296747)
(0.000226412 -4.53122e-07 -1.99397e-06 0.000226513 0.00010531 0.000226615)
(0.000183279 -8.63588e-07 -1.34776e-06 0.000182986 8.5047e-05 0.000182563)
(0.000190887 1.16904e-06 2.11404e-06 0.000190837 8.86614e-05 0.000190498)
(0.000315094 2.50529e-06 1.90127e-06 0.000315775 0.000146685 0.000315686)
(0.000243402 -3.99535e-07 -2.33399e-06 0.000243504 0.000113218 0.00024369)
(0.000196902 -1.12586e-06 -1.56693e-06 0.000196506 9.1364e-05 0.000196128)
(0.00020438 1.19883e-06 2.43693e-06 0.000204249 9.49092e-05 0.00020397)
(0.000331445 2.73451e-06 2.18948e-06 0.000332176 0.00015431 0.000332182)
(0.000258496 -3.31711e-07 -2.68875e-06 0.000258599 0.000120243 0.000258883)
(0.000209143 -1.39542e-06 -1.79282e-06 0.000208633 9.70239e-05 0.000208322)
(0.000216387 1.21526e-06 2.76795e-06 0.000216155 0.000100476 0.000215962)
(0.000345471 2.94637e-06 2.48707e-06 0.000346247 0.000160859 0.000346366)