/*--------------------------------*- C++ -*----------------------------------*\
| =========                 |                                                 |
| \\      /  F ield         | OpenFOAM: The Open Source CFD Toolbox           |
|  \\    /   O peration     | Version:  v1906                                 |
|   \\  /    A nd           | Web:      www.OpenFOAM.com                      |
|    \\/     M anipulation  |                                                 |
\*---------------------------------------------------------------------------*/
FoamFile
{
    version     2.0;
    format      ascii;
    class       volVectorField;
    location    "96.8";
    object      UMean;
}
// * * * * * * * * * * * * * * * * * * * * * * * * * * * * * * * * * * * * * //

dimensions      [0 1 -1 0 0 0 0];


internalField   nonuniform List<vector> 
2528
(
(9.47066e-06 -0.000199982 -0.00721834)
(-0.000118829 -1.33218e-06 -0.00766994)
(5.19606e-06 -1.25161e-06 -0.00781111)
(0.000112067 -1.25289e-06 -0.00739547)
(3.80409e-05 0.000346244 -0.02088)
(-0.000342271 -5.37045e-06 -0.0221334)
(4.57674e-06 -5.7978e-06 -0.0225618)
(0.00032195 -4.98837e-06 -0.021335)
(7.0344e-05 -0.000301439 -0.0339146)
(-0.000537791 -1.55175e-05 -0.0358593)
(-9.96907e-07 -1.60885e-05 -0.0365959)
(0.000503751 -1.46569e-05 -0.0345656)
(0.000101767 0.000183852 -0.046326)
(-0.000710061 -2.74635e-05 -0.0488606)
(-6.81736e-06 -2.90702e-05 -0.049918)
(0.000662208 -2.59467e-05 -0.0470959)
(0.00013087 -8.16617e-05 -0.0581139)
(-0.000862126 -4.30829e-05 -0.0611643)
(-1.12897e-05 -4.55925e-05 -0.062538)
(0.000800403 -4.07603e-05 -0.0589539)
(0.000158343 -1.26258e-05 -0.0692939)
(-0.000997667 -6.09507e-05 -0.0728007)
(-1.49655e-05 -6.45439e-05 -0.0744798)
(0.000922229 -5.76386e-05 -0.0701782)
(0.000184829 -3.35951e-05 -0.0798853)
(-0.00111769 -8.08206e-05 -0.083799)
(-1.83842e-05 -8.56439e-05 -0.0857708)
(0.001029 -7.63451e-05 -0.0808054)
(0.000210894 -4.31669e-05 -0.0899037)
(-0.0012229 -0.000102369 -0.0941758)
(-2.20526e-05 -0.000108599 -0.0964301)
(0.00112177 -9.6568e-05 -0.0908601)
(0.000236923 -5.83116e-05 -0.0993535)
(-0.00131343 -0.000125428 -0.103931)
(-2.63864e-05 -0.000133092 -0.106461)
(0.001201 -0.000118134 -0.10035)
(0.000263062 -7.17615e-05 -0.108233)
(-0.00138978 -0.000149905 -0.113055)
(-3.15526e-05 -0.000158746 -0.115861)
(0.00126742 -0.00014096 -0.109269)
(0.000289193 -8.53803e-05 -0.116547)
(-0.00145347 -0.000175591 -0.121551)
(-3.74171e-05 -0.000185521 -0.124637)
(0.00132269 -0.000164969 -0.11762)
(0.000315019 -9.95779e-05 -0.124315)
(-0.00150638 -0.000202182 -0.129438)
(-4.37462e-05 -0.000213677 -0.132811)
(0.00136885 -0.000189897 -0.125416)
(0.000340266 -0.000114759 -0.131566)
(-0.00154882 -0.000229511 -0.136753)
(-5.05085e-05 -0.000243176 -0.140417)
(0.00140666 -0.000215418 -0.132685)
(0.000364902 -0.000130443 -0.138327)
(-0.00157906 -0.000257583 -0.143535)
(-5.80452e-05 -0.000273493 -0.147488)
(0.00143449 -0.000241482 -0.139462)
(0.000389164 -0.0001459 -0.144625)
(-0.00159457 -0.000286458 -0.149823)
(-6.67693e-05 -0.000304099 -0.154054)
(0.00144936 -0.000268257 -0.145778)
(0.000413362 -0.00016091 -0.150486)
(-0.0015936 -0.000315999 -0.155654)
(-7.68432e-05 -0.000334872 -0.160149)
(0.00144894 -0.000295772 -0.151665)
(0.000437743 -0.000175758 -0.155942)
(-0.001576 -0.000345962 -0.161069)
(-8.82315e-05 -0.000365833 -0.165808)
(0.00143255 -0.000323791 -0.157157)
(0.000462406 -0.0001907 -0.161024)
(-0.00154292 -0.000376151 -0.166106)
(-0.000100811 -0.000396896 -0.171069)
(0.00140093 -0.000352061 -0.162288)
(0.000487305 -0.000205615 -0.165767)
(-0.00149642 -0.000406407 -0.170803)
(-0.000114367 -0.000427942 -0.175969)
(0.00135561 -0.000380445 -0.167089)
(0.000512321 -0.000220365 -0.170205)
(-0.00143905 -0.000436595 -0.175198)
(-0.000128616 -0.00045877 -0.180546)
(0.00129868 -0.000408848 -0.171594)
(0.000537289 -0.000235209 -0.174374)
(-0.00137359 -0.000466552 -0.179327)
(-0.000143294 -0.000489152 -0.184836)
(0.00123249 -0.000437115 -0.175835)
(0.000562098 -0.000250668 -0.178307)
(-0.00130265 -0.000496067 -0.183223)
(-0.00015813 -0.000518893 -0.188871)
(0.00115947 -0.000464934 -0.17984)
(0.000586897 -0.000266077 -0.182031)
(-0.00122835 -0.000524952 -0.186917)
(-0.000172844 -0.000547916 -0.192683)
(0.00108176 -0.000492251 -0.183639)
(0.000611735 -0.000280633 -0.185571)
(-0.00115227 -0.000553081 -0.190433)
(-0.000187326 -0.000576191 -0.1963)
(0.00100131 -0.000519379 -0.187255)
(0.000636286 -0.000295173 -0.188949)
(-0.00107556 -0.000580426 -0.193794)
(-0.00020165 -0.00060381 -0.199747)
(0.000920263 -0.000546413 -0.190712)
(0.000660381 -0.000310463 -0.192186)
(-0.000998939 -0.000606807 -0.197018)
(-0.00021589 -0.000630961 -0.203044)
(0.000840741 -0.000572799 -0.194034)
(0.000684284 -0.000325862 -0.1953)
(-0.000922534 -0.000632528 -0.20012)
(-0.000229982 -0.00065665 -0.20621)
(0.000763766 -0.00059776 -0.197237)
(0.000708589 -0.000340202 -0.198298)
(-0.000846238 -0.000657936 -0.203115)
(-0.000244289 -0.000680465 -0.209259)
(0.000687999 -0.000621644 -0.200331)
(0.000733236 -0.000353986 -0.201192)
(-0.000769994 -0.000681943 -0.206016)
(-0.000259795 -0.0007037 -0.212208)
(0.000611048 -0.000645794 -0.203316)
(0.000757643 -0.000367484 -0.203993)
(-0.000694726 -0.000704049 -0.20883)
(-0.000277106 -0.000726394 -0.215065)
(0.000531435 -0.000669377 -0.206193)
(0.000781678 -0.000380632 -0.20671)
(-0.000622494 -0.000724041 -0.211565)
(-0.000295367 -0.000748175 -0.217838)
(0.000450102 -0.000689284 -0.208972)
(0.000807169 -0.000396079 -0.209349)
(-0.000553801 -0.000743308 -0.214227)
(-0.000312185 -0.000768219 -0.220533)
(0.000369559 -0.000710866 -0.211667)
(0.000837149 -0.00041159 -0.211917)
(-0.000488446 -0.000764174 -0.216827)
(-0.000326426 -0.000786894 -0.22315)
(0.000294276 -0.000737416 -0.2143)
(0.000871033 -0.0004222 -0.214419)
(-0.000423415 -0.000786489 -0.21937)
(-0.000340537 -0.000803421 -0.225691)
(0.000228318 -0.000764088 -0.216898)
(0.000903856 -0.000428319 -0.21686)
(-0.000363049 -0.000805606 -0.221885)
(-0.000360061 -0.00082034 -0.228168)
(0.000171751 -0.000782592 -0.219485)
(0.000928933 -0.000439756 -0.21929)
(-0.00031396 -0.000817147 -0.224403)
(-0.000386776 -0.000835195 -0.230604)
(0.000129939 -0.000789673 -0.222078)
(0.000943591 -0.000459692 -0.221758)
(-0.000263841 -0.00082553 -0.226847)
(-0.000415109 -0.000844867 -0.233008)
(8.81042e-05 -0.000807259 -0.224568)
(0.000955728 -0.000471021 -0.224209)
(-0.000203761 -0.000837728 -0.22916)
(-0.000436305 -0.000857746 -0.23541)
(4.32023e-05 -0.000830388 -0.226944)
(0.000966114 -0.000480914 -0.226609)
(-0.000135804 -0.000855015 -0.231373)
(-0.000449454 -0.000869445 -0.23783)
(-8.65073e-06 -0.000854833 -0.229229)
(0.000977797 -0.000482474 -0.228973)
(-6.66124e-05 -0.000872519 -0.233541)
(-0.00046856 -0.00088483 -0.240264)
(-6.41556e-05 -0.000874723 -0.231458)
(0.000990842 -0.000494862 -0.231363)
(-7.65022e-06 -0.000883461 -0.235744)
(-0.000501728 -0.000892885 -0.242623)
(-0.000109343 -0.000886979 -0.233697)
(0.00100258 -0.00051103 -0.233807)
(3.39813e-05 -0.000890155 -0.238001)
(-0.000534142 -0.000894794 -0.244924)
(-0.000144593 -0.0009021 -0.235956)
(0.00101903 -0.00051796 -0.236304)
(5.51247e-05 -0.000887866 -0.240291)
(-0.000561385 -0.000901641 -0.247204)
(-0.00017284 -0.000917058 -0.238197)
(0.00105466 -0.000521693 -0.238755)
(7.65179e-05 -0.000897734 -0.24251)
(-0.000581702 -0.000915435 -0.24946)
(-0.00018821 -0.000937359 -0.240416)
(0.00111181 -0.000519615 -0.241149)
(9.94785e-05 -0.000908901 -0.244679)
(-0.000602383 -0.000926535 -0.251598)
(-0.000190953 -0.000952387 -0.242597)
(0.00117033 -0.000551455 -0.243566)
(0.000117097 -0.000918137 -0.246842)
(-0.000616698 -0.000924085 -0.253647)
(-0.000198105 -0.000963759 -0.244663)
(0.00120934 -0.000567365 -0.245802)
(0.000136227 -0.000916153 -0.248978)
(-0.000629741 -0.000918947 -0.255646)
(-0.000214687 -0.000978291 -0.246609)
(0.00122887 -0.000566962 -0.247825)
(0.000165249 -0.000911052 -0.251008)
(-0.000648651 -0.000926251 -0.257688)
(-0.000244314 -0.00100198 -0.248401)
(0.00124401 -0.000564044 -0.249729)
(0.000201969 -0.000920068 -0.252892)
(-0.000675037 -0.00093892 -0.259744)
(-0.000264172 -0.00102361 -0.250172)
(0.00126615 -0.000562797 -0.251593)
(0.000232645 -0.000929667 -0.254726)
(-0.000692843 -0.000929752 -0.261621)
(-0.000277869 -0.00104124 -0.25197)
(0.00130496 -0.000574198 -0.253439)
(0.00024815 -0.000929048 -0.256584)
(-0.000688515 -0.000926177 -0.263437)
(-0.000284776 -0.00105935 -0.253793)
(0.00134452 -0.000585692 -0.255285)
(0.00026599 -0.000923741 -0.258368)
(-0.000663657 -0.000946188 -0.26527)
(-0.00028169 -0.00106275 -0.255643)
(0.00137446 -0.000608908 -0.257158)
(0.000286778 -0.000919288 -0.260074)
(-0.000655576 -0.000950771 -0.267005)
(-0.000284902 -0.00106949 -0.257384)
(0.00139448 -0.000623335 -0.258947)
(0.000309456 -0.000920226 -0.261697)
(-0.000668329 -0.00093677 -0.268603)
(-0.000298612 -0.00109666 -0.258965)
(0.00140764 -0.000615108 -0.260619)
(0.000331216 -0.000923715 -0.263261)
(-0.000675551 -0.00093893 -0.270189)
(-0.00030565 -0.00112914 -0.260461)
(0.00141617 -0.000612161 -0.262221)
(0.000349732 -0.000920544 -0.264824)
(-0.000664982 -0.00094495 -0.271702)
(-0.000308208 -0.00114832 -0.261898)
(0.00142483 -0.000626413 -0.263758)
(0.000360739 -0.000913756 -0.266404)
(-0.00064359 -0.00094391 -0.273123)
(-0.000305755 -0.0011498 -0.263312)
(0.00143025 -0.000637505 -0.265259)
(0.000359444 -0.000909833 -0.267963)
(-0.000629154 -0.000942384 -0.274446)
(-0.000305841 -0.00116137 -0.264652)
(0.00142519 -0.000660055 -0.266757)
(0.000353383 -0.000911075 -0.2695)
(-0.000633576 -0.000938858 -0.275689)
(-0.000307295 -0.00119229 -0.265916)
(0.00141461 -0.000667155 -0.268116)
(0.000359723 -0.000918048 -0.270965)
(-0.000649482 -0.000939232 -0.276902)
(-0.000299901 -0.00122005 -0.267163)
(0.00141502 -0.000668946 -0.269343)
(0.000359861 -0.000914629 -0.272429)
(-0.000660275 -0.000940981 -0.278037)
(-0.000285377 -0.00122828 -0.268397)
(0.00142971 -0.000668199 -0.270536)
(0.000340332 -0.000884372 -0.273982)
(-0.000658206 -0.000946239 -0.279126)
(-0.000275843 -0.00124012 -0.269535)
(0.00145038 -0.00066389 -0.271706)
(0.000333849 -0.000872167 -0.275353)
(-0.000652457 -0.000936557 -0.280222)
(-0.000263799 -0.0012623 -0.270579)
(0.00146537 -0.000678646 -0.27297)
(0.000344478 -0.000887773 -0.276496)
(-0.000646619 -0.000931757 -0.281345)
(-0.00025348 -0.00128923 -0.271507)
(0.00147701 -0.00071486 -0.274266)
(0.000347003 -0.000897144 -0.277581)
(-0.000642219 -0.000943503 -0.282324)
(-0.000248648 -0.00130428 -0.272357)
(0.00147976 -0.000725867 -0.275395)
(0.000348132 -0.000884168 -0.278605)
(-0.000631058 -0.000939346 -0.283083)
(-0.000245894 -0.00131765 -0.273125)
(0.00148268 -0.000710753 -0.27628)
(0.000353559 -0.000867257 -0.279565)
(-0.000611414 -0.000925699 -0.283736)
(-0.000247533 -0.00134072 -0.273773)
(0.0014792 -0.000704752 -0.277103)
(0.000365214 -0.000861081 -0.280426)
(-0.000582929 -0.000927101 -0.284404)
(-0.000251912 -0.00136571 -0.274315)
(0.00146254 -0.0007281 -0.277969)
(0.00037215 -0.00085934 -0.28121)
(-0.00056104 -0.000931826 -0.285)
(-0.000251975 -0.00138499 -0.274806)
(0.00143697 -0.000750638 -0.278745)
(0.000359328 -0.000865112 -0.281988)
(-0.000548344 -0.000922712 -0.285447)
(-0.000245298 -0.00139759 -0.275269)
(0.0014129 -0.000745914 -0.279355)
(0.000340909 -0.000855562 -0.282709)
(-0.000532921 -0.000913949 -0.28581)
(-0.000237315 -0.00140635 -0.275661)
(0.00139054 -0.000745165 -0.279884)
(0.000335101 -0.000830606 -0.283335)
(-0.000510557 -0.000922899 -0.286142)
(-0.000236422 -0.00142289 -0.275927)
(0.00136502 -0.000760472 -0.280384)
(0.000357833 -0.000827567 -0.283764)
(-0.000481127 -0.000917947 -0.286398)
(-0.000238884 -0.00144375 -0.276068)
(0.00134043 -0.000766624 -0.280754)
(0.000396499 -0.000826409 -0.284036)
(-0.00045012 -0.000901867 -0.286549)
(-0.000234785 -0.00145442 -0.276124)
(0.00130876 -0.000767973 -0.281015)
(0.000413609 -0.000820277 -0.284268)
(-0.000415699 -0.000903195 -0.286645)
(-0.000232107 -0.00147353 -0.276088)
(0.00127867 -0.000773823 -0.281153)
(0.000408527 -0.000808063 -0.284476)
(-0.000387051 -0.000904468 -0.286607)
(-0.00022405 -0.00149698 -0.276017)
(0.00124964 -0.000783195 -0.281214)
(0.000409863 -0.000794298 -0.284571)
(-0.000365574 -0.000900336 -0.28641)
(-0.000208341 -0.00149935 -0.275885)
(0.00122394 -0.00078861 -0.281174)
(0.000435249 -0.000771592 -0.284477)
(-0.000346758 -0.000896677 -0.286018)
(-0.000206091 -0.00147486 -0.275532)
(0.00120015 -0.00079482 -0.281025)
(0.000481316 -0.000760885 -0.284211)
(-0.000328738 -0.00088001 -0.28539)
(-0.000254959 -0.00147789 -0.27469)
(0.000106924 -6.39508e-07 -0.0047016)
(1.37083e-05 -4.30815e-07 -0.00402521)
(-9.47617e-05 -4.86766e-07 -0.00480876)
(-2.0274e-05 -6.22856e-07 -0.00450919)
(0.000296591 -2.60524e-06 -0.0142057)
(3.15183e-05 -2.37876e-06 -0.0123213)
(-0.00026059 -2.59036e-06 -0.0145228)
(-5.058e-05 -3.58227e-06 -0.0137094)
(0.000455269 -8.00254e-06 -0.0238363)
(3.95685e-05 -6.67052e-06 -0.0208734)
(-0.000395661 -7.33091e-06 -0.0243631)
(-7.07076e-05 -9.99323e-06 -0.0231031)
(0.000592144 -1.39535e-05 -0.0335585)
(4.38477e-05 -1.19619e-05 -0.0296045)
(-0.0005091 -1.327e-05 -0.0342854)
(-8.67625e-05 -1.81715e-05 -0.032611)
(0.000714423 -2.16873e-05 -0.0433113)
(4.73194e-05 -1.86056e-05 -0.0384408)
(-0.000608017 -2.07153e-05 -0.0442249)
(-0.000101856 -2.83843e-05 -0.0421551)
(0.000822255 -3.01243e-05 -0.0530182)
(4.94102e-05 -2.5792e-05 -0.0473102)
(-0.000692486 -2.89018e-05 -0.0541001)
(-0.000115574 -3.97538e-05 -0.0516596)
(0.000915865 -3.89381e-05 -0.0626001)
(4.95665e-05 -3.31423e-05 -0.0561347)
(-0.00076272 -3.74541e-05 -0.0638289)
(-0.000127479 -5.18547e-05 -0.0610487)
(0.000995568 -4.78142e-05 -0.0719762)
(4.73673e-05 -4.03878e-05 -0.0648316)
(-0.000819102 -4.61041e-05 -0.0733298)
(-0.000137192 -6.43716e-05 -0.0702463)
(0.00106186 -5.6524e-05 -0.0810652)
(4.25661e-05 -4.73295e-05 -0.0733164)
(-0.000862226 -5.46609e-05 -0.0825228)
(-0.000144427 -7.70682e-05 -0.0791773)
(0.00111547 -6.4834e-05 -0.089794)
(3.51082e-05 -5.37932e-05 -0.0815109)
(-0.00089293 -6.29009e-05 -0.0913367)
(-0.000149027 -8.97451e-05 -0.0877734)
(0.00115731 -7.26268e-05 -0.0981117)
(2.51062e-05 -5.96738e-05 -0.089356)
(-0.000912355 -7.06929e-05 -0.0997221)
(-0.000150929 -0.000102207 -0.0959838)
(0.00118859 -7.99004e-05 -0.105998)
(1.26811e-05 -6.48896e-05 -0.0968206)
(-0.000921979 -7.80941e-05 -0.107659)
(-0.00015013 -0.000114255 -0.103784)
(0.00121081 -8.66135e-05 -0.113458)
(-2.08868e-06 -6.92809e-05 -0.103902)
(-0.000923364 -8.50883e-05 -0.115157)
(-0.000146789 -0.00012575 -0.111177)
(0.00122547 -9.25341e-05 -0.120514)
(-1.89555e-05 -7.26959e-05 -0.110619)
(-0.000918049 -9.14715e-05 -0.122244)
(-0.000141272 -0.000136622 -0.118187)
(0.00123393 -9.7433e-05 -0.127195)
(-3.74355e-05 -7.50704e-05 -0.117002)
(-0.000907402 -9.70102e-05 -0.128957)
(-0.000133998 -0.000146787 -0.124846)
(0.00123718 -0.000101253 -0.133532)
(-5.70109e-05 -7.64061e-05 -0.123084)
(-0.000892258 -0.000101651 -0.135328)
(-0.000125227 -0.000156116 -0.131184)
(0.00123596 -0.000104008 -0.139553)
(-7.73746e-05 -7.66416e-05 -0.128892)
(-0.000873157 -0.000105442 -0.141387)
(-0.000114996 -0.000164479 -0.137225)
(0.00123095 -0.000105677 -0.145283)
(-9.84363e-05 -7.56506e-05 -0.134448)
(-0.000850628 -0.000108349 -0.147157)
(-0.000103315 -0.000171796 -0.142991)
(0.00122274 -0.00010619 -0.150742)
(-0.000120142 -7.33549e-05 -0.139774)
(-0.000825186 -0.000110307 -0.152662)
(-9.02926e-05 -0.000178032 -0.148501)
(0.00121181 -0.00010554 -0.155949)
(-0.000142378 -6.97339e-05 -0.144886)
(-0.000797302 -0.000111289 -0.15792)
(-7.60811e-05 -0.000183145 -0.153773)
(0.00119859 -0.000103733 -0.160921)
(-0.00016498 -6.47962e-05 -0.1498)
(-0.000767364 -0.000111317 -0.162948)
(-6.08791e-05 -0.000187076 -0.158824)
(0.00118341 -0.000100649 -0.165671)
(-0.000187773 -5.85506e-05 -0.15453)
(-0.000735711 -0.000110426 -0.167764)
(-4.49754e-05 -0.000189892 -0.163666)
(0.00116658 -9.64005e-05 -0.170215)
(-0.000210635 -5.10522e-05 -0.159084)
(-0.000702642 -0.00010864 -0.172379)
(-2.87103e-05 -0.000191591 -0.168308)
(0.00114851 -9.10531e-05 -0.174572)
(-0.000233489 -4.23256e-05 -0.163473)
(-0.000668364 -0.000105966 -0.176806)
(-1.23842e-05 -0.000192216 -0.172762)
(0.00112972 -8.44937e-05 -0.17876)
(-0.000256214 -3.25376e-05 -0.167705)
(-0.000633141 -0.000102495 -0.181054)
(3.8433e-06 -0.000191987 -0.177037)
(0.00111063 -7.69067e-05 -0.182794)
(-0.000278648 -2.17488e-05 -0.171792)
(-0.000597313 -9.83642e-05 -0.185136)
(1.99884e-05 -0.000190824 -0.181145)
(0.0010911 -6.85028e-05 -0.186682)
(-0.000300686 -9.99965e-06 -0.175743)
(-0.000561266 -9.35769e-05 -0.189066)
(3.62237e-05 -0.000188674 -0.185101)
(0.00107039 -5.9096e-05 -0.190428)
(-0.000322173 2.62382e-06 -0.179571)
(-0.00052519 -8.79434e-05 -0.19286)
(5.27117e-05 -0.000185581 -0.188914)
(0.00104803 -4.86507e-05 -0.194042)
(-0.000342866 1.62456e-05 -0.183284)
(-0.000488679 -8.16369e-05 -0.196526)
(6.93173e-05 -0.000181795 -0.192589)
(0.00102414 -3.73837e-05 -0.197536)
(-0.000362595 3.09655e-05 -0.186887)
(-0.000451424 -7.5239e-05 -0.200072)
(8.56534e-05 -0.00017744 -0.196129)
(0.000998552 -2.51075e-05 -0.200912)
(-0.000381501 4.64711e-05 -0.190377)
(-0.000413015 -6.86908e-05 -0.203509)
(0.000101058 -0.000171952 -0.199538)
(0.00097107 -1.197e-05 -0.204173)
(-0.000400105 6.21541e-05 -0.193755)
(-0.000372598 -6.11128e-05 -0.20685)
(0.000114536 -0.000165426 -0.202822)
(0.000941904 1.53899e-06 -0.207332)
(-0.000418719 7.75153e-05 -0.197028)
(-0.000329855 -5.21824e-05 -0.210107)
(0.00012516 -0.000159047 -0.20599)
(0.000911748 1.50874e-05 -0.210418)
(-0.000437319 9.33243e-05 -0.20021)
(-0.000285405 -4.27628e-05 -0.213283)
(0.000133242 -0.000153391 -0.209051)
(0.000883592 2.98436e-05 -0.21342)
(-0.000455582 0.000110753 -0.203313)
(-0.000241094 -3.38166e-05 -0.216365)
(0.000140252 -0.000146982 -0.212026)
(0.000859917 4.61118e-05 -0.216326)
(-0.000471869 0.000129075 -0.206331)
(-0.000198082 -2.69163e-05 -0.219338)
(0.00014811 -0.000138122 -0.214929)
(0.00083998 6.28184e-05 -0.219164)
(-0.000484548 0.000146705 -0.209259)
(-0.000157956 -1.93319e-05 -0.222187)
(0.000156856 -0.000128331 -0.21775)
(0.000820856 7.77982e-05 -0.221973)
(-0.000494031 0.00016279 -0.212109)
(-0.000122637 -8.41568e-06 -0.224909)
(0.000164681 -0.000120281 -0.220474)
(0.000798693 9.28998e-05 -0.224729)
(-0.000502766 0.000179597 -0.214902)
(-9.15488e-05 4.54592e-06 -0.227529)
(0.000171396 -0.000113402 -0.223105)
(0.000771877 0.000110793 -0.227381)
(-0.000512177 0.000198449 -0.21763)
(-5.9109e-05 1.5106e-05 -0.230066)
(0.000175418 -0.00010624 -0.225652)
(0.000739872 0.000128287 -0.229914)
(-0.000520763 0.000218045 -0.220256)
(-1.88277e-05 1.97145e-05 -0.232538)
(0.00017589 -9.70714e-05 -0.2281)
(0.000703463 0.000143832 -0.232338)
(-0.000527181 0.000233502 -0.222766)
(2.47696e-05 2.59776e-05 -0.234946)
(0.000174006 -8.76553e-05 -0.230438)
(0.000662258 0.000158551 -0.234667)
(-0.000531623 0.000247451 -0.225196)
(6.50528e-05 3.45178e-05 -0.237306)
(0.000170249 -7.88282e-05 -0.23269)
(0.000618903 0.000173644 -0.236917)
(-0.000533675 0.000262772 -0.22759)
(9.92768e-05 4.7783e-05 -0.239618)
(0.000164623 -7.20727e-05 -0.234863)
(0.000579812 0.000191809 -0.239066)
(-0.000534854 0.000279998 -0.229946)
(0.000130679 5.44674e-05 -0.241878)
(0.000158087 -6.69038e-05 -0.236965)
(0.000545887 0.000205844 -0.241167)
(-0.000537424 0.000297174 -0.232213)
(0.000162132 5.6616e-05 -0.24407)
(0.000150022 -6.13287e-05 -0.239014)
(0.000514415 0.000211856 -0.243267)
(-0.00053943 0.00031208 -0.234374)
(0.000193011 6.05239e-05 -0.246187)
(0.000141867 -5.33469e-05 -0.241026)
(0.0004794 0.000218176 -0.245319)
(-0.000537705 0.000323943 -0.236449)
(0.0002241 6.70958e-05 -0.248198)
(0.00013436 -4.45201e-05 -0.24298)
(0.000446381 0.000234637 -0.247247)
(-0.000532858 0.000332515 -0.238465)
(0.000255506 7.34869e-05 -0.250107)
(0.000124844 -3.76725e-05 -0.244856)
(0.000416668 0.000252047 -0.249093)
(-0.000528024 0.000340494 -0.240461)
(0.000285753 7.8681e-05 -0.251939)
(0.000110806 -3.22775e-05 -0.246655)
(0.00038932 0.000263238 -0.250916)
(-0.000522156 0.000351411 -0.242476)
(0.000312282 8.04905e-05 -0.25374)
(8.97791e-05 -2.86749e-05 -0.24839)
(0.000362536 0.000265991 -0.252706)
(-0.000512436 0.000364089 -0.244496)
(0.000334766 8.29255e-05 -0.255506)
(6.43286e-05 -2.25868e-05 -0.250086)
(0.00033773 0.000271213 -0.254446)
(-0.000501935 0.000374717 -0.246432)
(0.000355419 8.43761e-05 -0.257219)
(4.08736e-05 -1.56254e-05 -0.251756)
(0.000317027 0.000284679 -0.256173)
(-0.000491641 0.000382295 -0.248288)
(0.000375955 8.62001e-05 -0.258888)
(2.21871e-05 -1.24469e-05 -0.2534)
(0.000304299 0.000296658 -0.257894)
(-0.000478053 0.000386216 -0.250088)
(0.000394965 9.05543e-05 -0.260513)
(3.94965e-06 -9.59903e-06 -0.255007)
(0.000287704 0.000303373 -0.259539)
(-0.000462634 0.000392075 -0.251848)
(0.000407929 9.23347e-05 -0.262085)
(-1.37954e-05 -3.96245e-06 -0.256529)
(0.000264813 0.000307884 -0.261083)
(-0.000449002 0.000401705 -0.253599)
(0.000416498 8.92502e-05 -0.263651)
(-2.82474e-05 7.59591e-07 -0.258002)
(0.00023935 0.000309428 -0.262588)
(-0.000436311 0.000411991 -0.255333)
(0.000423383 8.7175e-05 -0.265198)
(-4.04754e-05 4.58192e-06 -0.259461)
(0.000218808 0.000314529 -0.264073)
(-0.000429182 0.000414343 -0.25703)
(0.000427272 9.07473e-05 -0.266708)
(-5.46954e-05 8.33354e-06 -0.260884)
(0.000206457 0.000319914 -0.265554)
(-0.00042261 0.000415194 -0.258675)
(0.000429567 9.01296e-05 -0.268167)
(-7.57957e-05 1.14118e-05 -0.262211)
(0.000197451 0.000327005 -0.266976)
(-0.000409321 0.000418253 -0.260259)
(0.000430912 8.97565e-05 -0.269558)
(-0.000100788 1.44386e-05 -0.263423)
(0.000188282 0.000333936 -0.268347)
(-0.00038667 0.00042202 -0.261776)
(0.000432601 9.42329e-05 -0.270901)
(-0.000125704 1.82472e-05 -0.264579)
(0.000179276 0.000337175 -0.269668)
(-0.000364155 0.00042324 -0.263252)
(0.000431915 9.57297e-05 -0.272226)
(-0.000150117 1.98535e-05 -0.265749)
(0.000168087 0.000336245 -0.270943)
(-0.000347512 0.000424641 -0.264716)
(0.000424898 8.74041e-05 -0.273537)
(-0.0001722 2.10701e-05 -0.266963)
(0.00015834 0.000339013 -0.272132)
(-0.000332626 0.000427025 -0.266153)
(0.000415855 8.57951e-05 -0.274791)
(-0.000192485 2.66427e-05 -0.268159)
(0.000149322 0.000343938 -0.273274)
(-0.000314514 0.000426961 -0.267542)
(0.000408284 9.01552e-05 -0.275969)
(-0.000211593 3.02244e-05 -0.269252)
(0.000138009 0.000348634 -0.274426)
(-0.000294014 0.000424647 -0.268903)
(0.000398823 9.12376e-05 -0.277087)
(-0.000230435 3.18229e-05 -0.270222)
(0.000126967 0.000346226 -0.275599)
(-0.000275612 0.000425961 -0.270232)
(0.000385892 8.86473e-05 -0.278137)
(-0.000249565 3.36035e-05 -0.271102)
(0.000121146 0.000342231 -0.276738)
(-0.000257886 0.000427501 -0.271521)
(0.000370862 8.9105e-05 -0.279079)
(-0.000270998 3.58537e-05 -0.271923)
(0.000122424 0.000344107 -0.277777)
(-0.000236113 0.000428396 -0.27276)
(0.000357582 8.77159e-05 -0.279941)
(-0.000292152 3.58031e-05 -0.272717)
(0.000134557 0.00035045 -0.278674)
(-0.000211912 0.000429809 -0.273958)
(0.000344911 8.84195e-05 -0.280715)
(-0.000307433 3.54377e-05 -0.273442)
(0.000145108 0.000353339 -0.279457)
(-0.000191271 0.000430967 -0.275099)
(0.000332565 9.14169e-05 -0.281388)
(-0.000319875 3.81226e-05 -0.274066)
(0.000146261 0.000350889 -0.280179)
(-0.000181432 0.000433697 -0.276149)
(0.000321126 9.33344e-05 -0.281965)
(-0.00033477 4.32538e-05 -0.274565)
(0.000144168 0.000350737 -0.280807)
(-0.000176443 0.000435297 -0.277069)
(0.000308323 9.42112e-05 -0.282455)
(-0.000353823 4.56806e-05 -0.274927)
(0.000138044 0.00034954 -0.281324)
(-0.000170542 0.000433947 -0.277856)
(0.000293898 9.38559e-05 -0.282839)
(-0.000375123 3.95991e-05 -0.275138)
(0.000126122 0.000349217 -0.281706)
(-0.00016201 0.000435035 -0.278535)
(0.000278674 9.70392e-05 -0.28311)
(-0.000390029 3.52971e-05 -0.275229)
(0.000114194 0.000350329 -0.281938)
(-0.000151023 0.00043869 -0.279107)
(0.000267766 0.000104625 -0.283276)
(-0.00039307 3.76523e-05 -0.275218)
(0.000104286 0.000346522 -0.282009)
(-0.000141079 0.000439891 -0.279548)
(0.000270432 0.000106122 -0.283348)
(-0.00038471 4.45351e-05 -0.275032)
(0.000105433 0.00034281 -0.281857)
(-0.000135619 0.000441014 -0.279864)
(0.000293251 9.53814e-05 -0.283289)
(-0.00037209 4.89458e-05 -0.274631)
(5.32843e-05 -1.52694e-06 -0.00521921)
(-1.38168e-05 1.08354e-06 -0.00522672)
(-3.83846e-05 -1.53681e-06 -0.0057119)
(8.62124e-06 9.04563e-07 -0.00531104)
(0.000136079 2.22455e-06 -0.0157542)
(-4.74773e-05 7.56307e-06 -0.0157991)
(-9.20845e-05 2.13885e-06 -0.0171766)
(3.19005e-05 6.4612e-06 -0.0160112)
(0.000193556 5.11227e-06 -0.0264325)
(-8.90424e-05 1.93711e-05 -0.0265459)
(-0.000120924 4.4218e-06 -0.0287311)
(6.29448e-05 1.64892e-05 -0.0268397)
(0.000238566 1.34677e-05 -0.0372081)
(-0.000134847 3.50162e-05 -0.0374149)
(-0.000137713 1.203e-05 -0.0403233)
(9.81481e-05 2.96844e-05 -0.0377502)
(0.000278094 2.3367e-05 -0.0480089)
(-0.000182259 5.35442e-05 -0.0483225)
(-0.00014947 2.06559e-05 -0.0518751)
(0.000134913 4.52052e-05 -0.0486618)
(0.000311947 3.55734e-05 -0.0587419)
(-0.000230781 7.47105e-05 -0.0591704)
(-0.000156084 3.12058e-05 -0.0632888)
(0.000172789 6.28253e-05 -0.0594767)
(0.000340019 4.96777e-05 -0.0693102)
(-0.000279747 9.82211e-05 -0.0698587)
(-0.00015757 4.32302e-05 -0.074467)
(0.000211192 8.22973e-05 -0.0700999)
(0.000362347 6.54553e-05 -0.0796193)
(-0.00032837 0.000123709 -0.0802917)
(-0.000154107 5.65025e-05 -0.0853181)
(0.000249457 0.000103279 -0.0804443)
(0.000379015 8.26447e-05 -0.0895836)
(-0.000375799 0.000150973 -0.0903844)
(-0.000145941 7.07333e-05 -0.0957615)
(0.00028689 0.000125622 -0.090435)
(0.0003901 0.000100987 -0.0991363)
(-0.000421279 0.000179808 -0.100071)
(-0.000133234 8.56927e-05 -0.105736)
(0.000322889 0.00014925 -0.100014)
(0.000395963 0.000120393 -0.108237)
(-0.000463996 0.000209788 -0.109311)
(-0.000116383 0.000101399 -0.115207)
(0.000356997 0.000173821 -0.109147)
(0.000397716 0.000140868 -0.116873)
(-0.000503161 0.000240542 -0.118095)
(-9.6552e-05 0.000117764 -0.124168)
(0.000388735 0.000198899 -0.117822)
(0.000396939 0.000162216 -0.125051)
(-0.000538345 0.000272135 -0.126433)
(-7.54198e-05 0.000134527 -0.132636)
(0.000417658 0.000224529 -0.12605)
(0.000395027 0.000184182 -0.132796)
(-0.000569301 0.000304785 -0.134349)
(-5.44673e-05 0.000151556 -0.140639)
(0.000443364 0.000251058 -0.133851)
(0.000392846 0.000206631 -0.140128)
(-0.000595979 0.000338318 -0.14186)
(-3.45277e-05 0.000168806 -0.148201)
(0.000465382 0.000278403 -0.141245)
(0.000390673 0.000229618 -0.147068)
(-0.000618546 0.000372356 -0.148984)
(-1.58758e-05 0.000186342 -0.155345)
(0.000483518 0.000306117 -0.148249)
(0.000388797 0.000253147 -0.15363)
(-0.00063719 0.000406756 -0.155739)
(1.24309e-06 0.000204038 -0.162086)
(0.000497796 0.000334023 -0.154879)
(0.000387665 0.000276977 -0.159826)
(-0.000652005 0.000441431 -0.162138)
(1.6479e-05 0.000221647 -0.168442)
(0.000508175 0.000362097 -0.161147)
(0.000387673 0.00030101 -0.165666)
(-0.000662877 0.000476125 -0.168193)
(2.95257e-05 0.000239129 -0.174429)
(0.000514582 0.000390127 -0.167068)
(0.000389298 0.000324934 -0.171166)
(-0.00066961 0.000510839 -0.17392)
(4.02204e-05 0.000256722 -0.180069)
(0.000517081 0.000417864 -0.172655)
(0.000392741 0.000348005 -0.176347)
(-0.000671927 0.000545831 -0.179331)
(4.83233e-05 0.000274091 -0.185381)
(0.000516106 0.000445447 -0.177926)
(0.000398143 0.000370921 -0.181234)
(-0.000669496 0.000580658 -0.184444)
(5.34444e-05 0.000290777 -0.190385)
(0.000512083 0.000472915 -0.182899)
(0.000405211 0.00039475 -0.185859)
(-0.000662002 0.000614579 -0.189282)
(5.56001e-05 0.00030668 -0.195102)
(0.000504934 0.000499757 -0.187593)
(0.00041192 0.000419225 -0.190248)
(-0.00064975 0.000647229 -0.193862)
(5.56043e-05 0.000322622 -0.199547)
(0.000493785 0.000525225 -0.192019)
(0.000415617 0.000442183 -0.194411)
(-0.000634197 0.00068025 -0.198192)
(5.41335e-05 0.000338376 -0.203735)
(0.000477343 0.000550095 -0.196184)
(0.000416687 0.000462114 -0.198354)
(-0.000616588 0.000714771 -0.20228)
(5.11922e-05 0.000352946 -0.207678)
(0.000456193 0.000576118 -0.200109)
(0.000420502 0.000480341 -0.202084)
(-0.000596817 0.000747526 -0.206149)
(4.81397e-05 0.000367017 -0.211406)
(0.000433324 0.000602331 -0.203834)
(0.000431241 0.000499208 -0.205633)
(-0.000573023 0.000777201 -0.209835)
(4.7164e-05 0.000381412 -0.214967)
(0.000411854 0.000625226 -0.207405)
(0.000447865 0.000522373 -0.209027)
(-0.000545126 0.000804815 -0.213368)
(5.07968e-05 0.000395878 -0.218409)
(0.000392853 0.000643856 -0.210834)
(0.0004655 0.000545429 -0.212256)
(-0.000517141 0.000834844 -0.216745)
(5.75867e-05 0.000407588 -0.221749)
(0.000373812 0.000662308 -0.214089)
(0.000479485 0.00056265 -0.215301)
(-0.000494197 0.000867635 -0.219948)
(6.31618e-05 0.000416933 -0.224965)
(0.000352661 0.000683282 -0.217151)
(0.000486329 0.000573006 -0.21821)
(-0.000476473 0.000896596 -0.222999)
(6.69249e-05 0.000426147 -0.228007)
(0.000331322 0.00070735 -0.220037)
(0.0004881 0.000583266 -0.221065)
(-0.000459001 0.000921248 -0.225915)
(6.736e-05 0.000436742 -0.230893)
(0.000306674 0.000726854 -0.222795)
(0.00048757 0.000603234 -0.223882)
(-0.000438148 0.000944595 -0.22872)
(6.69821e-05 0.000447627 -0.233692)
(0.000275851 0.000743585 -0.225456)
(0.000486614 0.000625067 -0.226606)
(-0.000415145 0.000971368 -0.231412)
(7.03925e-05 0.000458079 -0.236419)
(0.000242246 0.000759858 -0.228005)
(0.000489737 0.000638902 -0.229181)
(-0.000389229 0.000995796 -0.233993)
(7.84887e-05 0.000466471 -0.239032)
(0.000208774 0.000774033 -0.230435)
(0.00049845 0.000643543 -0.231609)
(-0.000361013 0.00101824 -0.236447)
(8.07648e-05 0.000475575 -0.241498)
(0.000176471 0.000788716 -0.23278)
(0.000511673 0.000650988 -0.233936)
(-0.000329187 0.00104323 -0.238749)
(7.90735e-05 0.000478526 -0.24381)
(0.000144168 0.00080247 -0.235085)
(0.000522799 0.000664889 -0.236188)
(-0.000294737 0.00106635 -0.240948)
(7.63344e-05 0.000477536 -0.246004)
(0.000111783 0.000820774 -0.237245)
(0.000528757 0.000675697 -0.23834)
(-0.000259538 0.0010885 -0.24309)
(7.74008e-05 0.000483601 -0.248127)
(7.51583e-05 0.000834983 -0.239255)
(0.00053842 0.000682847 -0.240389)