/*--------------------------------*- C++ -*----------------------------------*\
| =========                 |                                                 |
| \\      /  F ield         | OpenFOAM: The Open Source CFD Toolbox           |
|  \\    /   O peration     | Version:  v1912                                 |
|   \\  /    A nd           | Website:  www.openfoam.com                      |
|    \\/     M anipulation  |                                                 |
\*---------------------------------------------------------------------------*/
FoamFile
{
    version     2.0;
    format      ascii;
    class       volVectorField;
    location    "96.8";
    object      UMean;
}
// * * * * * * * * * * * * * * * * * * * * * * * * * * * * * * * * * * * * * //

dimensions      [0 1 -1 0 0 0 0];


internalField   nonuniform List<vector> 
2528
(
(0.000257512 -0.000243178 -0.00541424)
(-0.000164589 -1.54641e-05 -0.0034716)
(-0.000248983 1.18499e-05 -0.00473682)
(3.02625e-05 -1.21845e-05 -0.00584809)
(0.00108646 0.000360807 -0.0166882)
(-0.000525849 -3.80477e-05 -0.0110486)
(-0.00106101 2.92556e-05 -0.0146189)
(0.000129598 -3.98534e-05 -0.0178449)
(0.00223145 -0.000244697 -0.0277593)
(-0.000767795 -6.75491e-05 -0.0185889)
(-0.00218904 5.1883e-05 -0.0242901)
(0.000114027 -8.00352e-05 -0.029517)
(0.00336733 0.000271971 -0.0380761)
(-0.000938785 -9.94429e-05 -0.0255529)
(-0.00330996 7.60465e-05 -0.0332704)
(3.55365e-05 -0.000129588 -0.0403151)
(0.0043658 5.37456e-05 -0.0476389)
(-0.00109587 -0.000123706 -0.0319612)
(-0.00429733 9.51056e-05 -0.041602)
(-4.89184e-05 -0.000181789 -0.0502615)
(0.00526229 0.000151011 -0.0565796)
(-0.00124649 -0.000146547 -0.0379674)
(-0.00518801 0.000113678 -0.0494348)
(-0.000131373 -0.000239777 -0.0595267)
(0.00607065 0.000161096 -0.0649579)
(-0.0013923 -0.000166903 -0.0436421)
(-0.00599663 0.0001312 -0.0568424)
(-0.000209608 -0.00030255 -0.0682099)
(0.00679748 0.000181982 -0.0728054)
(-0.0015339 -0.000184655 -0.0490234)
(-0.00672987 0.000147767 -0.0638621)
(-0.000282214 -0.000369844 -0.0763697)
(0.00744662 0.000197487 -0.0801348)
(-0.00167103 -0.000199922 -0.0541319)
(-0.00739126 0.000163644 -0.0705057)
(-0.000348533 -0.000441496 -0.084028)
(0.00802145 0.000214051 -0.0869503)
(-0.00180296 -0.00021269 -0.0589771)
(-0.00798313 0.000178871 -0.0767692)
(-0.000408425 -0.000517018 -0.0911869)
(0.00852591 0.000229885 -0.0932593)
(-0.00192874 -0.000222966 -0.0635614)
(-0.00850783 0.000193331 -0.0826454)
(-0.000462239 -0.000596062 -0.0978463)
(0.00896479 0.000245168 -0.0990807)
(-0.00204741 -0.000230724 -0.0678852)
(-0.00896886 0.000207077 -0.0881347)
(-0.000510377 -0.000678233 -0.104016)
(0.00934313 0.000259786 -0.104446)
(-0.00215826 -0.00023593 -0.0719529)
(-0.00936971 0.000220185 -0.0932497)
(-0.000553582 -0.000762758 -0.109724)
(0.00966629 0.000273499 -0.109394)
(-0.00226093 -0.000238598 -0.0757727)
(-0.00971433 0.000232199 -0.0980111)
(-0.000592787 -0.000849207 -0.115014)
(0.00994083 0.000286298 -0.113973)
(-0.00235534 -0.000238792 -0.0793592)
(-0.0100084 0.000242862 -0.102454)
(-0.000628234 -0.00093752 -0.119929)
(0.0101726 0.000298525 -0.118227)
(-0.00244168 -0.000236601 -0.0827305)
(-0.0102576 0.000252578 -0.106616)
(-0.000660145 -0.00102778 -0.124496)
(0.0103673 0.000310393 -0.122191)
(-0.00252028 -0.000232113 -0.0859061)
(-0.0104667 0.000261895 -0.110528)
(-0.000689077 -0.00111986 -0.128746)
(0.0105296 0.000321863 -0.125895)
(-0.00259158 -0.000225392 -0.0889062)
(-0.0106406 0.000270866 -0.114209)
(-0.000715413 -0.00121345 -0.132702)
(0.0106633 0.000332975 -0.129363)
(-0.00265605 -0.000216501 -0.0917497)
(-0.010783 0.000279378 -0.117681)
(-0.00073942 -0.00130833 -0.136391)
(0.0107718 0.000343888 -0.13262)
(-0.00271416 -0.000205498 -0.0944547)
(-0.0108967 0.000287573 -0.120962)
(-0.000761327 -0.00140449 -0.139836)
(0.0108581 0.000354675 -0.135686)
(-0.00276641 -0.000192443 -0.0970364)
(-0.0109849 0.000295577 -0.124068)
(-0.00078129 -0.00150175 -0.143059)
(0.0109248 0.000365437 -0.13858)
(-0.00281322 -0.000177397 -0.0995097)
(-0.0110499 0.000303524 -0.127015)
(-0.000799504 -0.00159956 -0.146083)
(0.0109743 0.000376314 -0.141321)
(-0.00285502 -0.00016042 -0.101886)
(-0.011094 0.000311545 -0.129816)
(-0.000816288 -0.0016977 -0.148928)
(0.0110087 0.000387488 -0.143921)
(-0.0028922 -0.000141565 -0.104178)
(-0.0111192 0.00031976 -0.132484)
(-0.000831852 -0.00179621 -0.151615)
(0.0110295 0.00039916 -0.146394)
(-0.00292512 -0.000120883 -0.106393)
(-0.011127 0.000328219 -0.135028)
(-0.00084638 -0.00189526 -0.154162)
(0.0110381 0.000411484 -0.14875)
(-0.00295411 -9.84332e-05 -0.10854)
(-0.011119 0.000336945 -0.13746)
(-0.000860124 -0.00199491 -0.156582)
(0.0110353 0.00042448 -0.150997)
(-0.00297944 -7.42841e-05 -0.110625)
(-0.0110962 0.000345985 -0.139788)
(-0.000873254 -0.00209489 -0.158886)
(0.0110218 0.000438 -0.153145)
(-0.00300135 -4.85155e-05 -0.112654)
(-0.0110598 0.000355452 -0.142021)
(-0.000885888 -0.00219507 -0.161083)
(0.0109984 0.000451869 -0.155203)
(-0.00302011 -2.12341e-05 -0.114633)
(-0.0110109 0.000365463 -0.144166)
(-0.000898101 -0.00229548 -0.163182)
(0.0109658 0.000466048 -0.157179)
(-0.00303591 7.46406e-06 -0.116563)
(-0.0109501 0.000376071 -0.14623)
(-0.000909974 -0.00239611 -0.165189)
(0.0109251 0.000480788 -0.159084)
(-0.00304892 3.75238e-05 -0.11845)
(-0.0108784 0.000387214 -0.148219)
(-0.000921581 -0.00249698 -0.167109)
(0.0108774 0.000496455 -0.160922)
(-0.00305932 6.88614e-05 -0.120297)
(-0.0107961 0.000398847 -0.150136)
(-0.000932983 -0.00259805 -0.168947)
(0.0108231 0.000513297 -0.1627)
(-0.00306732 0.000101432 -0.122106)
(-0.0107041 0.000411076 -0.151986)
(-0.000944273 -0.00269926 -0.170707)
(0.0107626 0.00053122 -0.164421)
(-0.0030731 0.000135292 -0.123881)
(-0.0106029 0.000424084 -0.153771)
(-0.00095553 -0.00280053 -0.172391)
(0.0106957 0.000549768 -0.166087)
(-0.00307681 0.000170554 -0.125624)
(-0.010493 0.000437913 -0.155494)
(-0.000966798 -0.00290179 -0.174001)
(0.0106225 0.000568654 -0.167702)
(-0.0030786 0.000206989 -0.127337)
(-0.0103746 0.000452404 -0.157155)
(-0.000978092 -0.00300299 -0.175541)
(0.0105433 0.000588069 -0.169269)
(-0.0030786 0.000245788 -0.12902)
(-0.010248 0.000467439 -0.158756)
(-0.000989406 -0.00310414 -0.177013)
(0.0104583 0.000608337 -0.170793)
(-0.00307685 0.000282372 -0.130676)
(-0.0101133 0.000483082 -0.160301)
(-0.00100067 -0.0032053 -0.178416)
(0.0103678 0.000629545 -0.172275)
(-0.00307414 0.000314362 -0.132303)
(-0.00997098 0.000499468 -0.161794)
(-0.0010118 -0.00330649 -0.179747)
(0.0102718 0.000651452 -0.173717)
(-0.00307041 0.000352303 -0.133896)
(-0.0098209 0.000516659 -0.163234)
(-0.00102271 -0.00340778 -0.180998)
(0.0101698 0.000673911 -0.17512)
(-0.00306366 0.000405763 -0.135462)
(-0.00966296 0.000534684 -0.164625)
(-0.00103355 -0.00350909 -0.182162)
(0.0100615 0.000698277 -0.176486)
(-0.00305396 0.000458466 -0.137036)
(-0.00949708 0.000553576 -0.165962)
(-0.00104472 -0.00361059 -0.183249)
(0.0099458 0.000724262 -0.177811)
(-0.00304439 0.000493248 -0.138625)
(-0.00932341 0.000573184 -0.167246)
(-0.00105625 -0.00371254 -0.184273)
(0.00982183 0.000749961 -0.179096)
(-0.00303397 0.000518562 -0.140184)
(-0.0091421 0.000593178 -0.168481)
(-0.001068 -0.00381462 -0.185239)
(0.00968883 0.000775001 -0.180342)
(-0.00302043 0.000552244 -0.141682)
(-0.00895301 0.000613384 -0.169674)
(-0.00107996 -0.00391684 -0.186149)
(0.00954625 0.000799949 -0.181553)
(-0.00300652 0.000602586 -0.143129)
(-0.00875587 0.000634037 -0.170841)
(-0.00109205 -0.00401934 -0.187005)
(0.00939455 0.00082643 -0.182733)
(-0.00299329 0.000648725 -0.144537)
(-0.00855072 0.000655575 -0.171988)
(-0.00110417 -0.00412214 -0.187807)
(0.00923438 0.000853759 -0.183884)
(-0.00297938 0.000691033 -0.145911)
(-0.00833783 0.000678258 -0.173114)
(-0.00111628 -0.00422501 -0.188555)
(0.00906593 0.000879963 -0.185003)
(-0.00296464 0.000729523 -0.147255)
(-0.00811769 0.000701861 -0.174207)
(-0.00112844 -0.00432743 -0.189249)
(0.00888944 0.000905175 -0.186088)
(-0.00295143 0.000740782 -0.148563)
(-0.00789052 0.000725811 -0.175255)
(-0.00114085 -0.00442896 -0.189888)
(0.00870203 0.000954318 -0.187147)
(-0.00294195 0.000743525 -0.1498)
(-0.00765549 0.00074977 -0.176258)
(-0.00115385 -0.00452571 -0.190477)
(0.00848391 0.00102691 -0.188184)
(-0.00292951 0.000792255 -0.15095)
(-0.00741105 0.0007742 -0.177227)
(-0.00116746 -0.00463067 -0.19102)
(0.00822256 0.00106346 -0.189197)
(-0.00290533 0.000923371 -0.152126)
(-0.00715697 0.000800383 -0.178176)
(-0.00117512 -0.0047626 -0.191501)
(0.00794566 0.00100817 -0.190274)
(-0.00287878 0.00103465 -0.153613)
(-0.00689576 0.000829266 -0.179115)
(-0.00117189 -0.00489317 -0.191848)
(0.00770656 0.000942756 -0.191615)
(-0.00286872 0.000978222 -0.155516)
(-0.00663163 0.00086069 -0.180046)
(-0.00117647 -0.0049676 -0.192041)
(0.0075168 0.00107633 -0.193245)
(-0.00284511 0.000895049 -0.157421)
(-0.00636737 0.000893953 -0.180957)
(-0.00121681 -0.00496455 -0.192303)
(0.00736146 0.00123889 -0.194644)
(-0.00279103 0.000909851 -0.159178)
(-0.00610217 0.000927984 -0.181831)
(-0.00127055 -0.00500631 -0.193158)
(0.00720955 0.00127718 -0.195667)
(-0.00273224 0.000990417 -0.160825)
(-0.00583219 0.000961273 -0.18266)
(-0.00127587 -0.00525318 -0.19455)
(0.00700301 0.0012578 -0.196451)
(-0.00268152 0.00103197 -0.162344)
(-0.00555449 0.000993459 -0.183452)
(-0.001292 -0.00545338 -0.195448)
(0.00676002 0.00127854 -0.197131)
(-0.00263289 0.00104239 -0.163692)
(-0.00526977 0.00102591 -0.184211)
(-0.00135014 -0.00550984 -0.195819)
(0.0065139 0.00131896 -0.19776)
(-0.0025838 0.00106393 -0.164901)
(-0.00497941 0.00105877 -0.18494)
(-0.0013939 -0.00555918 -0.195861)
(0.0062656 0.00135149 -0.198338)
(-0.00253343 0.00108715 -0.166038)
(-0.00468303 0.00109085 -0.18564)
(-0.00141707 -0.00566056 -0.195771)
(0.00601349 0.00138287 -0.198861)
(-0.00248008 0.00110626 -0.167141)
(-0.00437966 0.00112239 -0.186314)
(-0.00144418 -0.00575823 -0.195619)
(0.00575676 0.00141473 -0.199327)
(-0.00242191 0.0011219 -0.168225)
(-0.00406815 0.0011552 -0.186964)
(-0.00147357 -0.00585108 -0.195403)
(0.00549486 0.00144593 -0.199738)
(-0.00236093 0.00110486 -0.169286)
(-0.00374813 0.0011888 -0.187589)
(-0.00150458 -0.00594304 -0.19512)
(0.00522651 0.0014759 -0.200095)
(-0.00230557 0.00105002 -0.170276)
(-0.00341859 0.00122068 -0.18819)
(-0.00153687 -0.00603296 -0.194773)
(0.00494896 0.00150526 -0.200399)
(-0.00224036 0.00104423 -0.171129)
(-0.0030766 0.00125141 -0.188771)
(-0.00156993 -0.00611989 -0.194363)
(0.00465949 0.00153515 -0.200652)
(-0.00212587 0.00119488 -0.171987)
(-0.00271998 0.00128418 -0.189342)
(-0.00160326 -0.00620379 -0.193891)
(0.00435817 0.00156575 -0.200855)
(-0.00199232 0.00137211 -0.173367)
(-0.00234984 0.00132119 -0.189912)
(-0.00163637 -0.00628458 -0.193359)
(0.00404815 0.0015956 -0.201008)
(-0.00191331 0.00117917 -0.175628)
(-0.00197043 0.00136305 -0.19048)
(-0.00166875 -0.00636208 -0.192768)
(0.00373157 0.00162315 -0.201113)
(-0.00181225 0.000978977 -0.177776)
(-0.00158496 0.00140809 -0.19104)
(-0.00170002 -0.00643578 -0.192119)
(0.00340811 0.00164798 -0.201168)
(-0.00165342 0.000986653 -0.179575)
(-0.00119325 0.00145295 -0.191573)
(-0.00172993 -0.00650552 -0.191413)
(0.00307539 0.00167089 -0.201173)
(-0.00149329 0.00102899 -0.181123)
(-0.000792954 0.00149345 -0.192069)
(-0.00175835 -0.0065718 -0.190651)
(0.00273225 0.00169269 -0.201127)
(-0.00135798 0.000999913 -0.182407)
(-0.00038326 0.00153272 -0.192534)
(-0.00178515 -0.00662952 -0.189836)
(0.00237822 0.00171625 -0.201025)
(-0.00122933 0.000966432 -0.183526)
(3.88319e-05 0.00157922 -0.192975)
(-0.00181004 -0.00668532 -0.188974)
(0.0020128 0.00173497 -0.200865)
(-0.0011025 0.000923298 -0.184576)
(0.000472386 0.0016345 -0.193372)
(-0.00183108 -0.00672177 -0.188074)
(0.00163422 0.00175312 -0.200638)
(-0.000981405 0.000809953 -0.185573)
(0.00091594 0.0016821 -0.193694)
(-0.00183498 -0.00680803 -0.187053)
(0.00124038 0.00176325 -0.20034)
(-0.000843814 0.000718961 -0.186448)
(0.00137634 0.00171573 -0.193924)
(-0.00186086 -0.00690689 -0.185709)
(0.000831452 0.00174865 -0.199988)
(-0.000653532 0.000864712 -0.187331)
(0.00185677 0.00174964 -0.194083)
(-0.00198173 -0.00678316 -0.183926)
(-4.24465e-06 2.51861e-07 -0.0022597)
(-2.4394e-05 2.6498e-06 -0.00214685)
(-3.33369e-05 3.96995e-07 -0.00384561)
(8.91794e-06 1.80071e-06 -0.0033281)
(-9.94911e-05 -1.61956e-06 -0.00727376)
(-8.4148e-05 3.31256e-06 -0.00718014)
(-1.20249e-05 -1.44295e-06 -0.0118551)
(3.77878e-05 1.22837e-06 -0.0106087)
(-0.000224908 -5.55566e-06 -0.0124388)
(-0.000153847 3.97794e-06 -0.0125799)
(3.99033e-05 -4.72996e-06 -0.0198993)
(7.58364e-05 2.64096e-06 -0.0181213)
(-0.000335331 -1.19969e-05 -0.0176098)
(-0.000223197 1.05827e-06 -0.0180071)
(7.75412e-05 -1.03394e-05 -0.027842)
(0.000112246 5.38743e-08 -0.0255428)
(-0.000427403 -1.956e-05 -0.0228066)
(-0.000288993 -3.2157e-06 -0.0234208)
(9.79489e-05 -1.67907e-05 -0.0356834)
(0.000143337 -2.19255e-06 -0.0328348)
(-0.000508878 -2.79563e-05 -0.0280327)
(-0.000352935 -8.54051e-06 -0.0288523)
(0.00010934 -2.3833e-05 -0.0433967)
(0.000170392 -4.97232e-06 -0.0400096)
(-0.000581922 -3.67982e-05 -0.0332606)
(-0.000415659 -1.45781e-05 -0.0342829)
(0.00011454 -3.11207e-05 -0.0509294)
(0.000193752 -7.75149e-06 -0.0470356)
(-0.000646694 -4.57877e-05 -0.0384521)
(-0.000477294 -2.10032e-05 -0.0396749)
(0.000114499 -3.84255e-05 -0.0582197)
(0.000213445 -1.03284e-05 -0.0538663)
(-0.000702704 -5.47857e-05 -0.0435652)
(-0.000537695 -2.76287e-05 -0.0449817)
(0.000109517 -4.56536e-05 -0.0652035)
(0.000229429 -1.25858e-05 -0.0604508)
(-0.000749331 -6.36746e-05 -0.0485568)
(-0.000596558 -3.4298e-05 -0.0501543)
(9.96302e-05 -5.26767e-05 -0.0718268)
(0.000241707 -1.44959e-05 -0.0667427)
(-0.000786056 -7.23639e-05 -0.053388)
(-0.000653537 -4.08535e-05 -0.055149)
(8.48147e-05 -5.94781e-05 -0.0780583)
(0.000250357 -1.59595e-05 -0.07271)
(-0.000812582 -8.08055e-05 -0.0580294)
(-0.00070837 -4.71697e-05 -0.0599346)
(6.49648e-05 -6.59889e-05 -0.0838947)
(0.000255504 -1.69794e-05 -0.0783409)
(-0.000828901 -8.88856e-05 -0.062465)
(-0.000760887 -5.31704e-05 -0.0644957)
(3.98977e-05 -7.20716e-05 -0.0893517)
(0.000257328 -1.74599e-05 -0.0836428)
(-0.000835244 -9.65287e-05 -0.066691)
(-0.00081107 -5.86849e-05 -0.0688298)
(9.57892e-06 -7.76851e-05 -0.0944763)
(0.000256136 -1.72661e-05 -0.0886414)
(-0.000831913 -0.000103582 -0.0707166)
(-0.000859129 -6.36361e-05 -0.0729537)
(-2.56115e-05 -8.27174e-05 -0.0993185)
(0.000252232 -1.64533e-05 -0.0933745)
(-0.000819308 -0.00010996 -0.0745598)
(-0.000905407 -6.79407e-05 -0.0768944)
(-6.49645e-05 -8.71442e-05 -0.103906)
(0.000245884 -1.49516e-05 -0.0978734)
(-0.000798013 -0.000115731 -0.0782427)
(-0.000950124 -7.14369e-05 -0.0806716)
(-0.000107853 -9.09463e-05 -0.108261)
(0.00023736 -1.2755e-05 -0.102159)
(-0.00076875 -0.000120827 -0.0817815)
(-0.000993398 -7.40662e-05 -0.0842948)
(-0.000153801 -9.40765e-05 -0.112403)
(0.000226898 -9.86283e-06 -0.106248)
(-0.00073237 -0.000125223 -0.0851861)
(-0.00103529 -7.57445e-05 -0.087775)
(-0.000202345 -9.65351e-05 -0.116349)
(0.000214717 -6.25633e-06 -0.110155)
(-0.000689632 -0.000128892 -0.0884644)
(-0.00107584 -7.64016e-05 -0.0911199)
(-0.000253035 -9.8324e-05 -0.120116)
(0.000201025 -1.97379e-06 -0.113895)
(-0.000641176 -0.000131813 -0.0916242)
(-0.00111507 -7.60112e-05 -0.0943373)
(-0.000305423 -9.94516e-05 -0.123718)
(0.000186028 2.9573e-06 -0.117478)
(-0.000587639 -0.000134001 -0.0946735)
(-0.00115299 -7.45346e-05 -0.0974362)
(-0.000359091 -9.99405e-05 -0.127168)
(0.00016992 8.50512e-06 -0.120914)
(-0.000529644 -0.000135457 -0.0976169)
(-0.00118958 -7.19526e-05 -0.100422)
(-0.000413636 -9.98074e-05 -0.130476)
(0.000152887 1.46119e-05 -0.124213)
(-0.000467791 -0.000136188 -0.100461)
(-0.00122481 -6.82631e-05 -0.1033)
(-0.000468685 -9.90648e-05 -0.133652)
(0.00013511 2.12116e-05 -0.127381)
(-0.000402664 -0.000136206 -0.103209)
(-0.0012586 -6.34548e-05 -0.106073)
(-0.00052389 -9.77394e-05 -0.136704)
(0.00011675 2.82485e-05 -0.130424)
(-0.00033481 -0.000135547 -0.105866)
(-0.00129085 -5.75144e-05 -0.108741)
(-0.000578905 -9.58644e-05 -0.139641)
(9.80026e-05 3.56771e-05 -0.133348)
(-0.000264742 -0.000134242 -0.108433)
(-0.00132147 -5.04498e-05 -0.111303)
(-0.00063338 -9.34794e-05 -0.142468)
(7.90466e-05 4.3458e-05 -0.136153)
(-0.000192931 -0.000132312 -0.110914)
(-0.00135042 -4.2317e-05 -0.113761)
(-0.000686998 -9.06294e-05 -0.145189)
(6.00772e-05 5.15384e-05 -0.138838)
(-0.000119844 -0.000129804 -0.113313)
(-0.00137781 -3.32446e-05 -0.11612)
(-0.000739457 -8.73698e-05 -0.147809)
(4.12479e-05 5.98205e-05 -0.141405)
(-4.59682e-05 -0.00012679 -0.115634)
(-0.00140382 -2.33362e-05 -0.118398)
(-0.000790484 -8.37739e-05 -0.15033)
(2.26149e-05 6.81705e-05 -0.143861)
(2.82057e-05 -0.000123361 -0.117878)
(-0.00142863 -1.25987e-05 -0.120621)
(-0.000839823 -7.99273e-05 -0.152757)
(4.11325e-06 7.64447e-05 -0.146224)
(0.000102219 -0.000119584 -0.120047)
(-0.00145235 -9.61415e-07 -0.122819)
(-0.000887238 -7.59321e-05 -0.155092)
(-1.43706e-05 8.45288e-05 -0.148518)
(0.000175634 -0.000115502 -0.122144)
(-0.00147488 1.1674e-05 -0.125005)
(-0.000932513 -7.18954e-05 -0.157337)
(-3.28697e-05 9.23588e-05 -0.150768)
(0.000248023 -0.000111156 -0.124171)
(-0.00149598 2.53341e-05 -0.12717)
(-0.000975429 -6.79024e-05 -0.159497)
(-5.12693e-05 9.98935e-05 -0.152982)
(0.000318996 -0.000106581 -0.12613)
(-0.00151536 3.99217e-05 -0.129273)
(-0.00101577 -6.40094e-05 -0.161576)
(-6.9217e-05 0.000107099 -0.155147)
(0.000388166 -0.000101814 -0.128023)
(-0.0015329 5.51285e-05 -0.131272)
(-0.00105331 -6.02512e-05 -0.163576)
(-8.62409e-05 0.000113921 -0.157225)
(0.000455169 -9.6909e-05 -0.129851)
(-0.00154874 7.06141e-05 -0.13315)
(-0.00108779 -5.66594e-05 -0.165502)
(-0.000101938 0.000120177 -0.159173)
(0.000519615 -9.19256e-05 -0.131618)
(-0.00156316 8.6353e-05 -0.134923)
(-0.00111892 -5.32747e-05 -0.167357)
(-0.000116178 0.000125639 -0.160969)
(0.000581086 -8.69193e-05 -0.133327)
(-0.00157631 0.000102618 -0.136619)
(-0.00114637 -5.01328e-05 -0.16914)
(-0.000129094 0.000130204 -0.16262)
(0.000639114 -8.19328e-05 -0.13498)
(-0.0015882 0.000119593 -0.138258)
(-0.00116989 -4.72508e-05 -0.170853)
(-0.000140936 0.000133961 -0.164159)
(0.000693216 -7.69911e-05 -0.136579)
(-0.00159878 0.00013712 -0.139848)
(-0.0011894 -4.464e-05 -0.172493)
(-0.000151902 0.000137094 -0.165614)
(0.000742971 -7.21009e-05 -0.138125)
(-0.00160808 0.000155017 -0.141392)
(-0.00120511 -4.23369e-05 -0.174061)
(-0.000162056 0.000139723 -0.167004)
(0.00078816 -6.72722e-05 -0.139619)
(-0.00161609 0.000173321 -0.142893)
(-0.00121732 -4.04249e-05 -0.175559)
(-0.00017142 0.000141827 -0.168326)
(0.000828862 -6.25128e-05 -0.141061)
(-0.00162279 0.000191954 -0.144356)
(-0.00122624 -3.90098e-05 -0.176994)
(-0.000180054 0.000143221 -0.169571)
(0.000865371 -5.78089e-05 -0.142458)
(-0.00162812 0.000210813 -0.145781)
(-0.00123156 -3.81639e-05 -0.178382)
(-0.000188043 0.000143788 -0.170736)
(0.000897806 -5.311e-05 -0.143826)
(-0.00163208 0.000230079 -0.147163)
(-0.00123236 -3.78855e-05 -0.179739)
(-0.000195433 0.00014337 -0.171854)
(0.000925552 -4.82066e-05 -0.14519)
(-0.00163475 0.000249621 -0.148495)
(-0.00122742 -3.80943e-05 -0.181077)
(-0.000202248 0.000142331 -0.17301)
(0.000946795 -4.29187e-05 -0.146579)
(-0.00163615 0.000269014 -0.149782)
(-0.00121597 -3.86532e-05 -0.182393)
(-0.000208465 0.000141296 -0.174265)
(0.000958915 -3.69992e-05 -0.148016)
(-0.00163614 0.000288306 -0.151055)
(-0.00119856 -3.94419e-05 -0.183675)
(-0.000214021 0.000139944 -0.175536)
(0.00096034 -3.02843e-05 -0.149493)
(-0.00163443 0.000308292 -0.152349)
(-0.00117677 -4.04675e-05 -0.184907)
(-0.000218554 0.00013777 -0.176662)
(0.00095215 -2.28827e-05 -0.150969)
(-0.00163136 0.000329418 -0.153665)
(-0.0011519 -4.17746e-05 -0.186085)
(-0.000221951 0.000134538 -0.177626)
(0.000936982 -1.5743e-05 -0.152381)
(-0.00162796 0.000350752 -0.15496)
(-0.0011239 -4.32964e-05 -0.187226)
(-0.000224718 0.000130532 -0.178493)
(0.000917928 -9.5025e-06 -0.153686)
(-0.00162503 0.000371487 -0.156198)
(-0.00109212 -4.50109e-05 -0.188344)
(-0.000226876 0.000126265 -0.179305)
(0.000897518 -3.55022e-06 -0.154868)
(-0.00162284 0.000391922 -0.157383)
(-0.00105677 -4.75742e-05 -0.189434)
(-0.000227997 0.0001218 -0.180082)
(0.000876077 2.97257e-06 -0.15595)
(-0.00162162 0.000412394 -0.158536)
(-0.00101893 -5.12733e-05 -0.190482)
(-0.000228034 0.000116988 -0.180826)
(0.000851362 9.00962e-06 -0.156973)
(-0.00162131 0.000431361 -0.159676)
(-0.000980324 -5.54515e-05 -0.19147)
(-0.000227052 0.000111914 -0.181537)
(0.000822326 1.36847e-05 -0.157967)
(-0.00162194 0.000448342 -0.160798)
(-0.000941792 -5.94606e-05 -0.192404)
(-0.000224662 0.000106359 -0.182201)
(0.000789247 1.73576e-05 -0.158938)
(-0.00162383 0.000464262 -0.161894)
(-0.000902855 -6.36295e-05 -0.193297)
(-0.000220246 9.88197e-05 -0.182813)
(0.000751884 2.08811e-05 -0.15989)
(-0.00162688 0.000479586 -0.162967)
(-0.000863056 -6.89551e-05 -0.194155)
(-0.000214364 8.84327e-05 -0.183381)
(0.000709971 2.45217e-05 -0.16082)
(-0.00163082 0.0004939 -0.164034)
(-0.000822362 -7.53528e-05 -0.194977)
(-0.000207382 7.63231e-05 -0.183906)
(0.000663759 2.85353e-05 -0.161726)
(-0.00163558 0.000507666 -0.165102)
(-0.000780784 -8.24171e-05 -0.195766)
(-0.000198857 6.36812e-05 -0.184388)
(0.000613693 3.27668e-05 -0.162605)
(-0.00164124 0.000522533 -0.166178)
(-0.000738242 -9.02543e-05 -0.196521)
(-0.000188211 5.09265e-05 -0.184823)
(0.000560002 3.72665e-05 -0.163457)
(-0.00164806 0.000539422 -0.16725)
(-0.000694587 -9.89214e-05 -0.197243)
(-0.000175059 3.80667e-05 -0.185211)
(0.000502585 4.21823e-05 -0.164283)
(-0.00165695 0.000557704 -0.168286)
(-0.000649616 -0.000108452 -0.197932)
(-0.000159019 2.52717e-05 -0.18555)
(0.000441214 4.75628e-05 -0.165086)
(-0.00166877 0.000576913 -0.169258)
(-0.000603102 -0.000118885 -0.198589)
(-0.000139696 1.26473e-05 -0.185837)
(0.000375679 5.34159e-05 -0.165869)
(-0.00168381 0.000597237 -0.17015)
(-0.00055478 -0.000130251 -0.199214)
(-0.000116664 2.2265e-07 -0.186069)
(0.000305829 5.98194e-05 -0.166635)
(-0.00170187 0.000617797 -0.170947)
(-0.000504353 -0.000142586 -0.199807)
(-8.95008e-05 -1.17316e-05 -0.18624)
(0.000231469 6.68306e-05 -0.167385)
(-0.00172256 0.000637761 -0.171639)
(-0.000451507 -0.000155926 -0.200369)
(-5.77475e-05 -2.28803e-05 -0.186346)
(0.000152345 7.41891e-05 -0.168123)
(-0.00174583 0.000658637 -0.172222)
(-0.000395945 -0.000170302 -0.200899)
(-2.10363e-05 -3.33566e-05 -0.18638)
(6.84246e-05 8.1897e-05 -0.168847)
(-0.001771 0.000678758 -0.172721)
(-0.000337503 -0.000185716 -0.201395)
(2.07795e-05 -4.39961e-05 -0.186338)
(-2.02069e-05 9.0563e-05 -0.169557)
(-0.00179332 0.000693709 -0.173192)
(-0.000276307 -0.000202076 -0.201855)
(6.72757e-05 -5.55903e-05 -0.186219)
(-0.000113753 0.000100188 -0.170254)
(-0.00180787 0.000705279 -0.173665)
(-0.000212916 -0.00021928 -0.202271)
(0.000117344 -6.84448e-05 -0.186034)
(-0.000212654 0.000110415 -0.170938)
(-0.00181074 0.000715371 -0.174148)
(-0.000148383 -0.000237065 -0.202639)
(0.000169662 -8.20735e-05 -0.18579)
(-0.000317346 0.000121302 -0.171608)
(-0.00179801 0.00072376 -0.174653)
(-8.39924e-05 -0.00025519 -0.202947)
(0.000223296 -9.52453e-05 -0.185486)
(-0.000428216 0.000129661 -0.172264)
(-0.00176686 0.000726562 -0.175189)
(-2.08271e-05 -0.000277214 -0.203187)
(0.000277627 -0.000110481 -0.185116)
(-0.000545509 0.000141091 -0.172897)
(-0.00171616 0.000730191 -0.175754)
(4.02502e-05 -0.000296991 -0.203352)
(0.000332198 -0.000120903 -0.184669)
(-0.000669272 0.000153579 -0.1735)
(-0.00164569 0.000734203 -0.176339)
(9.85078e-05 -0.000316367 -0.203437)
(0.000386458 -0.000129359 -0.184133)
(-0.000799217 0.000164125 -0.174054)
(-0.00155597 0.00073816 -0.176928)
(0.000153389 -0.000338657 -0.203438)
(0.00043907 -0.000135992 -0.183477)
(-0.000935111 0.000185924 -0.174541)
(-0.00145048 0.000751485 -0.177462)
(0.000205154 -0.00034934 -0.203359)
(0.000493704 -0.000127288 -0.182633)
(0.000219806 1.17925e-05 -0.00453519)
(-0.00026426 -9.92559e-06 -0.00276284)
(-0.000209265 1.0123e-05 -0.00422077)
(0.000111661 -8.62529e-06 -0.00524453)
(0.000939693 2.65054e-05 -0.0125387)
(-0.000666047 -1.72561e-05 -0.00733303)
(-0.000910121 2.3465e-05 -0.0117011)
(0.000212286 -1.72432e-05 -0.0145687)
(0.00188079 5.87472e-05 -0.0202825)
(-0.000907266 -2.81211e-05 -0.0117398)
(-0.00183361 5.05469e-05 -0.0189959)
(0.000153646 -4.34088e-05 -0.0235258)
(0.00280486 8.84087e-05 -0.0282699)
(-0.00110393 -3.25187e-05 -0.0165264)
(-0.00274123 7.44402e-05 -0.0265656)
(5.35588e-05 -6.46543e-05 -0.0326238)
(0.00363305 0.00012112 -0.0364332)
(-0.00131245 -2.99946e-05 -0.0216658)
(-0.0035536 0.000100723 -0.0343374)
(-3.16743e-05 -9.11744e-05 -0.0417979)
(0.00439358 0.000155653 -0.044562)
(-0.00152054 -2.27054e-05 -0.0269834)
(-0.00429892 0.00012781 -0.0421152)
(-0.000113072 -0.000119537 -0.0508406)
(0.00509556 0.00019155 -0.052524)
(-0.00172284 -1.04798e-05 -0.0323781)
(-0.0049863 0.000155382 -0.0497756)
(-0.000194622 -0.000150168 -0.0596329)
(0.00574182 0.000229029 -0.0602244)
(-0.00191654 6.22217e-06 -0.0377765)
(-0.00561853 0.000183637 -0.0572307)
(-0.000277661 -0.000183077 -0.0680989)
(0.00633335 0.000267649 -0.0675908)
(-0.0020999 2.71196e-05 -0.0431187)
(-0.00619656 0.000212113 -0.0644141)
(-0.000362458 -0.000218463 -0.0761838)
(0.00687069 0.000307603 -0.0745735)
(-0.00227175 5.20147e-05 -0.0483547)
(-0.00672094 0.000241046 -0.071278)
(-0.000448321 -0.000256309 -0.0838525)
(0.00735443 0.000348683 -0.0811514)
(-0.00243134 8.05462e-05 -0.0534447)
(-0.00719222 0.000270256 -0.0777953)
(-0.000534497 -0.000296397 -0.0910926)
(0.00778736 0.000390209 -0.0873362)
(-0.00257845 0.00011249 -0.0583605)
(-0.00761244 0.000299344 -0.0839675)
(-0.000620984 -0.000338554 -0.0979385)
(0.00817496 0.000432368 -0.0931714)
(-0.00271328 0.000147493 -0.0630865)
(-0.0079862 0.000328543 -0.0898261)
(-0.000707558 -0.000382764 -0.104427)
(0.00852257 0.000475098 -0.0986907)
(-0.00283633 0.000185385 -0.0676222)
(-0.00831789 0.00035768 -0.0953955)
(-0.000794193 -0.000429251 -0.110566)
(0.00883447 0.000518496 -0.103909)
(-0.00294836 0.000226338 -0.0719791)
(-0.0086111 0.000386956 -0.100683)
(-0.000880982 -0.000477855 -0.116367)
(0.00911393 0.000562485 -0.108844)
(-0.00305003 0.000269871 -0.0761665)
(-0.00886873 0.000416271 -0.105698)
(-0.000967639 -0.000528517 -0.121842)
(0.00936338 0.000606835 -0.113512)
(-0.00314151 0.000315592 -0.0801853)
(-0.00909301 0.000445434 -0.110451)
(-0.0010539 -0.000581275 -0.127006)
(0.00958511 0.000651542 -0.117929)
(-0.00322297 0.000363368 -0.0840404)
(-0.009286 0.000474467 -0.114954)
(-0.00113952 -0.000636076 -0.131872)
(0.00978095 0.000696544 -0.122111)
(-0.00329478 0.000412966 -0.0877337)
(-0.00944971 0.000503331 -0.119219)
(-0.00122429 -0.000692963 -0.136454)
(0.00995279 0.000741745 -0.126073)
(-0.00335736 0.000464205 -0.0912714)
(-0.00958572 0.000531999 -0.123258)
(-0.001308 -0.000751993 -0.140765)
(0.0101021 0.000787067 -0.129828)
(-0.00341108 0.000516893 -0.0946588)
(-0.00969579 0.000560449 -0.127081)
(-0.00139049 -0.000813199 -0.144817)
(0.0102301 0.000832425 -0.13339)
(-0.00345636 0.00057084 -0.0979032)
(-0.00978126 0.000588654 -0.130699)
(-0.00147157 -0.000876627 -0.148624)
(0.0103382 0.000877747 -0.13677)
(-0.00349356 0.000625889 -0.101011)
(-0.00984346 0.000616601 -0.134122)
(-0.00155104 -0.000942321 -0.152196)
(0.0104272 0.000922964 -0.13998)
(-0.00352292 0.000681921 -0.103988)
(-0.00988357 0.000644269 -0.13736)
(-0.00162865 -0.00101031 -0.155548)
(0.0104984 0.000967957 -0.143028)
(-0.00354456 0.000738854 -0.106836)
(-0.00990256 0.000671652 -0.140421)
(-0.00170409 -0.00108061 -0.158693)
(0.010553 0.00101259 -0.14592)
(-0.00355845 0.000796478 -0.109553)
(-0.0099015 0.000698744 -0.143316)
(-0.00177703 -0.00115315 -0.16165)
(0.010593 0.00105684 -0.14866)
(-0.00356476 0.000854362 -0.112133)
(-0.00988144 0.00072552 -0.146051)
(-0.00184726 -0.00122784 -0.164435)
(0.0106202 0.00110084 -0.151243)
(-0.00356409 0.000912217 -0.114576)
(-0.009844 0.00075188 -0.148632)
(-0.00191482 -0.0013046 -0.167059)
(0.010636 0.00114474 -0.15367)
(-0.00355729 0.000970435 -0.116896)
(-0.00979152 0.000777758 -0.151058)
(-0.00198005 -0.00138335 -0.169518)
(0.0106407 0.00118835 -0.155946)
(-0.00354487 0.00102976 -0.119121)
(-0.00972681 0.000803211 -0.153324)
(-0.00204349 -0.00146409 -0.171794)
(0.0106335 0.00123138 -0.158086)
(-0.00352681 0.00109022 -0.121266)
(-0.00965262 0.000828535 -0.155424)
(-0.00210534 -0.00154697 -0.17387)
(0.0106136 0.00127358 -0.16011)
(-0.00350293 0.00115062 -0.123321)
(-0.00956988 0.000854362 -0.157359)
(-0.00216503 -0.001632 -0.175745)
(0.0105809 0.00131489 -0.162031)
(-0.00347346 0.00120969 -0.125263)
(-0.00947723 0.00088068 -0.159143)
(-0.00222196 -0.00171979 -0.177446)
(0.0105359 0.00135547 -0.163858)
(-0.00343915 0.00126759 -0.127091)
(-0.00937231 0.000906149 -0.160805)
(-0.00227502 -0.00181038 -0.179011)
(0.0104799 0.00139553 -0.165594)
(-0.00340093 0.00132582 -0.128826)
(-0.00925385 0.000929926 -0.162374)
(-0.00232315 -0.0019016 -0.180458)
(0.0104139 0.00143533 -0.167239)
(-0.00335944 0.00138515 -0.130496)
(-0.00912218 0.000952917 -0.16386)
(-0.00236754 -0.00199267 -0.1818)
(0.0103386 0.00147494 -0.168797)
(-0.00331504 0.00144481 -0.132115)
(-0.00897879 0.000976392 -0.165266)
(-0.00240923 -0.00208517 -0.183043)
(0.0102541 0.00151458 -0.170274)
(-0.00326777 0.00150374 -0.133686)
(-0.008825 0.00100047 -0.166595)
(-0.00244865 -0.00218034 -0.184184)
(0.0101597 0.00155375 -0.171681)
(-0.00321756 0.00156185 -0.135206)
(-0.00866151 0.00102469 -0.16785)
(-0.00248623 -0.00227728 -0.185228)
(0.0100549 0.00159141 -0.173029)
(-0.00316453 0.00161954 -0.136678)
(-0.00848873 0.00104898 -0.169035)
(-0.00252175 -0.00237515 -0.18618)
(0.00993942 0.0016276 -0.17433)
(-0.00310898 0.00167682 -0.138106)
(-0.00830709 0.00107344 -0.170155)
(-0.00255496 -0.00247414 -0.187042)
(0.00981316 0.00166335 -0.17559)
(-0.00305116 0.00173355 -0.139492)
(-0.00811698 0.00109811 -0.171214)
(-0.00258574 -0.00257405 -0.18782)
(0.00967654 0.00169968 -0.176812)
(-0.00299129 0.00178963 -0.140838)
(-0.00791865 0.001123 -0.172217)
(-0.00261403 -0.00267469 -0.188519)
(0.00952984 0.00173608 -0.177998)
(-0.00292951 0.001845 -0.142148)