0 	0 	0 	0
0 	0 	0 	0
0.00752508 	0.00294314 	0.00237708 	-0.295282
0.00752508 	0.00294314 	0.00237708 	-0.295282
0.00757525 	0.00298349 	0.00235983 	-0.29542
0.00762542 	0.00302385 	0.00234259 	-0.295558
0.00762542 	0.00302385 	0.00234259 	-0.295558
0.00767559 	0.00306418 	0.00232532 	-0.295695
0.00772575 	0.0031013 	0.00230561 	-0.295807
0.00777592 	0.00313843 	0.00228589 	-0.295918
0.00782609 	0.00317556 	0.00226618 	-0.29603
0.00782609 	0.00317556 	0.00226618 	-0.29603
0.00787625 	0.00321035 	0.00224721 	-0.296119
0.00792642 	0.00324346 	0.00222878 	-0.296191
0.00797659 	0.00327657 	0.00221034 	-0.296264
0.00802676 	0.00330875 	0.00219206 	-0.296327
0.00802676 	0.00330875 	0.00219206 	-0.296327
0.00807692 	0.0033375 	0.00217433 	-0.296355
0.00812709 	0.00336625 	0.0021566 	-0.296383
0.00812709 	0.00336625 	0.0021566 	-0.296383
0.00817726 	0.00339499 	0.00213888 	-0.296411
0.00822742 	0.0034196 	0.00211962 	-0.296399
0.00822742 	0.0034196 	0.00211962 	-0.296399
0.00827759 	0.00344374 	0.0021002 	-0.296383
0.00832776 	0.00346789 	0.00208077 	-0.296366
0.00832776 	0.00346789 	0.00208077 	-0.296366
0.00837793 	0.00348889 	0.00206127 	-0.29632
0.00842809 	0.00350818 	0.00204173 	-0.296258
0.00842809 	0.00350818 	0.00204173 	-0.296258
0.00847826 	0.00352747 	0.00202218 	-0.296195
0.00847826 	0.00352747 	0.00202218 	-0.296195
0.00852843 	0.00354449 	0.00200217 	-0.296111
0.00852843 	0.00354449 	0.00200217 	-0.296111
0.0085786 	0.00355878 	0.00198159 	-0.296
0.0085786 	0.00355878 	0.00198159 	-0.296
0.00862876 	0.00357307 	0.00196102 	-0.295889
0.00867893 	0.00358594 	0.00194031 	-0.295762
0.00867893 	0.00358594 	0.00194031 	-0.295762
0.0087291 	0.00359575 	0.00191933 	-0.295602
0.00877926 	0.00360556 	0.00189835 	-0.295442
0.00877926 	0.00360556 	0.00189835 	-0.295442
0.00882943 	0.00361416 	0.00187946 	-0.295266
0.0088796 	0.00361882 	0.00186742 	-0.295041
0.0088796 	0.00361882 	0.00186742 	-0.295041
0.00897993 	0.00362536 	0.00184427 	-0.294564
0.00897993 	0.00362536 	0.00184427 	-0.294564
0.0090301 	0.00361654 	0.00183676 	-0.294212
0.00908027 	0.00360772 	0.00182926 	-0.29386
0.00908027 	0.00360772 	0.00182926 	-0.29386
0.00913043 	0.00359242 	0.0018155 	-0.293461
0.0091806 	0.00355563 	0.00178105 	-0.29291
0.0091806 	0.00355563 	0.00178105 	-0.29291
0.00923077 	0.00351883 	0.00174659 	-0.292359
0.00928094 	0.00347383 	0.0017042 	-0.291752
0.00928094 	0.00347383 	0.0017042 	-0.291752
0.0093311 	0.00341052 	0.00164408 	-0.291023
0.00938127 	0.00334721 	0.00158396 	-0.290294
0.00938127 	0.00334721 	0.00158396 	-0.290294
0.00943144 	0.00329033 	0.00153989 	-0.289602
0.00943144 	0.00329033 	0.00153989 	-0.289602
0.00948161 	0.0032417 	0.00151638 	-0.288956
0.00948161 	0.0032417 	0.00151638 	-0.288956
0.00953177 	0.00319308 	0.00149288 	-0.288311
0.00953177 	0.00319308 	0.00149288 	-0.288311
0.00958194 	0.00316617 	0.00149421 	-0.287805
0.00958194 	0.00316617 	0.00149421 	-0.287805
0.00963211 	0.00315272 	0.00151091 	-0.287385
0.00963211 	0.00315272 	0.00151091 	-0.287385
0.00968227 	0.00313926 	0.00152761 	-0.286966
0.00968227 	0.00313926 	0.00152761 	-0.286966
0.00973244 	0.00313211 	0.00153128 	-0.286539
0.00978261 	0.0031261 	0.00153259 	-0.28611
0.00983278 	0.00311899 	0.00153005 	-0.285652
0.00988294 	0.00310414 	0.00150053 	-0.284983
0.00988294 	0.00310414 	0.00150053 	-0.284983
0.00993311 	0.00308929 	0.001471 	-0.284315
0.00998328 	0.00307138 	0.00144024 	-0.283542
0.00998328 	0.00307138 	0.00144024 	-0.283542
0.0100334 	0.00304976 	0.00140798 	-0.28264
0.0100334 	0.00304976 	0.00140798 	-0.28264
0.0100836 	0.00302814 	0.00137572 	-0.281739
0.0101338 	0.00300013 	0.00136784 	-0.280702
0.0101338 	0.00300013 	0.00136784 	-0.280702
0.0102341 	0.00293601 	0.00136276 	-0.278527
0.0102341 	0.00293601 	0.00136276 	-0.278527
0.0102843 	0.00288459 	0.00136112 	-0.277285
0.0103344 	0.00283316 	0.00135949 	-0.276044
0.0103344 	0.00283316 	0.00135949 	-0.276044
0.0103846 	0.00275984 	0.00132825 	-0.274855
0.0103846 	0.00275984 	0.00132825 	-0.274855
0.0104348 	0.00267751 	0.00128481 	-0.273687
0.0104849 	0.00259479 	0.00124093 	-0.272597
0.0104849 	0.00259479 	0.00124093 	-0.272597
0.0105351 	0.00251069 	0.00119545 	-0.271787
0.0105853 	0.00242659 	0.00114997 	-0.270978
0.0105853 	0.00242659 	0.00114997 	-0.270978
0.0106355 	0.00236441 	0.00113543 	-0.270359
0.0106856 	0.00230875 	0.00113008 	-0.269797
0.0106856 	0.00230875 	0.00113008 	-0.269797
0.0107358 	0.00225991 	0.00112963 	-0.269238
0.0107358 	0.00225991 	0.00112963 	-0.269238
0.010786 	0.00222282 	0.00113761 	-0.268683
0.010786 	0.00222282 	0.00113761 	-0.268683
0.0108361 	0.00218573 	0.00114548 	-0.268128
0.0108361 	0.00218573 	0.00114548 	-0.268128
0.0108863 	0.00214925 	0.00113463 	-0.267477
0.0109365 	0.00211277 	0.00112378 	-0.266825
0.0109365 	0.00211277 	0.00112378 	-0.266825
0.0109866 	0.00207398 	0.0011036 	-0.266124
0.0109866 	0.00207398 	0.0011036 	-0.266124
0.0110368 	0.00203414 	0.00107917 	-0.265399
0.011087 	0.00199441 	0.0010587 	-0.26466
0.011087 	0.00199441 	0.0010587 	-0.26466
0.0111371 	0.00195484 	0.00104396 	-0.263901
0.0111873 	0.00191573 	0.00102977 	-0.263136
0.0111873 	0.00191573 	0.00102977 	-0.263136
0.0112375 	0.00187885 	0.00101831 	-0.262346
0.0112876 	0.00184197 	0.00100684 	-0.261556
0.0112876 	0.00184197 	0.00100684 	-0.261556
0.0113378 	0.00180858 	0.00099691 	-0.260736
0.011388 	0.0017753 	0.000987025 	-0.259915
0.011388 	0.0017753 	0.000987025 	-0.259915
0.0114883 	0.00171758 	0.000978888 	-0.258179
0.0114883 	0.00171758 	0.000978888 	-0.258179
0.0115385 	0.00169088 	0.00096855 	-0.257212
0.0115886 	0.00166493 	0.000955084 	-0.256204
0.0115886 	0.00166493 	0.000955084 	-0.256204
0.0116388 	0.0016338 	0.000935804 	-0.255034
0.011689 	0.00159924 	0.000912688 	-0.253759
0.011689 	0.00159924 	0.000912688 	-0.253759
0.0117391 	0.00155674 	0.000888861 	-0.252314
0.0117893 	0.00150784 	0.00086446 	-0.250731
0.0117893 	0.00150784 	0.00086446 	-0.250731
0.0118395 	0.00145739 	0.00084196 	-0.249142
0.0118896 	0.00140564 	0.000821066 	-0.247546
0.0118896 	0.00140564 	0.000821066 	-0.247546
0.0119398 	0.00135955 	0.000810294 	-0.246126
0.0119398 	0.00135955 	0.000810294 	-0.246126
0.01199 	0.00131782 	0.000807305 	-0.244839
0.01199 	0.00131782 	0.000807305 	-0.244839
0.0120401 	0.00128331 	0.000806746 	-0.243692
0.0120401 	0.00128331 	0.000806746 	-0.243692
0.0120903 	0.00125316 	0.000807656 	-0.242628
0.0120903 	0.00125316 	0.000807656 	-0.242628
0.0121405 	0.00122724 	0.000797082 	-0.24156
0.0121405 	0.00122724 	0.000797082 	-0.24156
0.0121906 	0.00120299 	0.000781947 	-0.240491
0.0121906 	0.00120299 	0.000781947 	-0.240491
0.0122408 	0.00118074 	0.000759394 	-0.239335
0.0122408 	0.00118074 	0.000759394 	-0.239335
0.012291 	0.00115887 	0.00073545 	-0.238162
0.012291 	0.00115887 	0.00073545 	-0.238162
0.0123411 	0.00114142 	0.000720095 	-0.236893
0.0123411 	0.00114142 	0.000720095 	-0.236893
0.0123913 	0.00112452 	0.000707023 	-0.235609
0.0123913 	0.00112452 	0.000707023 	-0.235609
0.0124415 	0.00110996 	0.000703563 	-0.234259
0.0124916 	0.00109286 	0.000696468 	-0.232864
0.0124916 	0.00109286 	0.000696468 	-0.232864
0.012592 	0.00104484 	0.000663809 	-0.229851
0.012592 	0.00104484 	0.000663809 	-0.229851
0.0126421 	0.00101422 	0.000639305 	-0.228252
0.0126923 	0.000983473 	0.000614469 	-0.226564
0.0126923 	0.000983473 	0.000614469 	-0.226564
0.0127425 	0.000956686 	0.000592406 	-0.224871
0.0127425 	0.000956686 	0.000592406 	-0.224871
0.0127926 	0.000940614 	0.000577864 	-0.22318
0.0128428 	0.000936066 	0.000571656 	-0.221508
0.0128428 	0.000936066 	0.000571656 	-0.221508
0.012893 	0.000938715 	0.00057065 	-0.219847
0.0129431 	0.000950009 	0.000565594 	-0.218157
0.0129431 	0.000950009 	0.000565594 	-0.218157
0.0129933 	0.000960993 	0.000555345 	-0.216432
0.0130435 	0.000971359 	0.000537137 	-0.214652
0.0130435 	0.000971359 	0.000537137 	-0.214652
0.0130936 	0.000980113 	0.000516288 	-0.212784
0.0131438 	0.000989025 	0.000496147 	-0.210867
0.0131438 	0.000989025 	0.000496147 	-0.210867
0.013194 	0.000999212 	0.000479237 	-0.208874
0.0132441 	0.00101257 	0.000464323 	-0.206798
0.0132441 	0.00101257 	0.000464323 	-0.206798
0.0132943 	0.00102803 	0.000449767 	-0.204662
0.0133445 	0.00104641 	0.000434593 	-0.20244
0.0133445 	0.00104641 	0.000434593 	-0.20244
0.0133946 	0.00106755 	0.000418855 	-0.200105
0.0134448 	0.00109031 	0.000402908 	-0.197684
0.0134448 	0.00109031 	0.000402908 	-0.197684
0.013495 	0.0011147 	0.000386822 	-0.195166
0.0135452 	0.00114092 	0.000370612 	-0.192471
0.0135452 	0.00114092 	0.000370612 	-0.192471
0.0136455 	0.00119525 	0.000338081 	-0.18669
0.0136455 	0.00119525 	0.000338081 	-0.18669
0.0136957 	0.00122291 	0.00032182 	-0.18355
0.0137458 	0.00124996 	0.000305612 	-0.180175
0.0137458 	0.00124996 	0.000305612 	-0.180175
0.013796 	0.00127572 	0.00028942 	-0.176601
0.0138462 	0.00129938 	0.000273249 	-0.17281
0.0138462 	0.00129938 	0.000273249 	-0.17281
0.0138963 	0.00131996 	0.000257108 	-0.16878
0.0138963 	0.00131996 	0.000257108 	-0.16878
0.0139465 	0.00133408 	0.000240966 	-0.164398
0.0139967 	0.00134131 	0.000224734 	-0.159713
0.0139967 	0.00134131 	0.000224734 	-0.159713
0.0140468 	0.00134076 	0.000208472 	-0.154701
0.0140468 	0.00134076 	0.000208472 	-0.154701
0.014097 	0.00133142 	0.000192279 	-0.149334
0.0141472 	0.00131235 	0.000176279 	-0.143578
0.0141973 	0.00128251 	0.000160549 	-0.137399
0.0141973 	0.00128251 	0.000160549 	-0.137399
0.0142475 	0.00123872 	0.000145032 	-0.130685
0.0142977 	0.00118159 	0.000129487 	-0.123474
0.0143478 	0.00111056 	0.000113959 	-0.115749
0.0143478 	0.00111056 	0.000113959 	-0.115749
0.014398 	0.00102597 	9.86255e-05 	-0.107507
0.014398 	0.00102597 	9.86255e-05 	-0.107507
0.0144482 	0.000929575 	8.36629e-05 	-0.0987821
0.0144983 	0.000824756 	6.93612e-05 	-0.0896483
0.0144983 	0.000824756 	6.93612e-05 	-0.0896483
0.0145485 	0.000716484 	5.61602e-05 	-0.0802258
0.0145987 	0.000610485 	4.45278e-05 	-0.0706675
0.0145987 	0.000610485 	4.45278e-05 	-0.0706675
0.0146488 	0.000511571 	3.48547e-05 	-0.061132
0.014699 	0.000422132 	2.72964e-05 	-0.0517499
0.014699 	0.000422132 	2.72964e-05 	-0.0517499
0.0147492 	0.000341936 	2.17113e-05 	-0.042598
0.0147993 	0.00026932 	1.77989e-05 	-0.0336933
0.0147993 	0.00026932 	1.77989e-05 	-0.0336933
0.0148495 	0.000202744 	1.42151e-05 	-0.0249849
0.0148495 	0.000202744 	1.42151e-05 	-0.0249849
0.0148997 	0.000140285 	9.94573e-06 	-0.0163954
0.0148997 	0.000140285 	9.94573e-06 	-0.0163954
0.0149498 	7.54507e-05 	5.37692e-06 	-0.00800132
0.0149498 	7.54507e-05 	5.37692e-06 	-0.00800132
0.015 	0 	0 	0
