0 	0 	0 	0
0 	-4.72571e-36 	-2.38121e-36 	1.85285e-31
5.01672e-05 	-4.68607e-07 	-2.66304e-07 	0.0172846
5.01672e-05 	-4.68607e-07 	-2.66304e-07 	0.0172846
0.000100334 	-1.10724e-06 	-9.16003e-07 	0.0332535
0.000150502 	-1.75042e-06 	-1.99734e-06 	0.0480746
0.000150502 	-1.75042e-06 	-1.99734e-06 	0.0480746
0.000200669 	-2.34335e-06 	-3.50659e-06 	0.0618345
0.000200669 	-2.34335e-06 	-3.50659e-06 	0.0618345
0.000250836 	-2.89874e-06 	-5.43793e-06 	0.0746112
0.000301003 	-3.42362e-06 	-7.77926e-06 	0.0864693
0.000301003 	-3.42362e-06 	-7.77926e-06 	0.0864693
0.000351171 	-3.91717e-06 	-1.05256e-05 	0.0974517
0.000401338 	-4.37787e-06 	-1.3683e-05 	0.107579
0.000451505 	-4.80394e-06 	-1.72743e-05 	0.116865
0.000451505 	-4.80394e-06 	-1.72743e-05 	0.116865
0.000501672 	-5.19348e-06 	-2.13352e-05 	0.125337
0.000551839 	-5.54504e-06 	-2.5903e-05 	0.13304
0.000551839 	-5.54504e-06 	-2.5903e-05 	0.13304
0.000602007 	-5.85799e-06 	-3.10071e-05 	0.140034
0.000602007 	-5.85799e-06 	-3.10071e-05 	0.140034
0.000652174 	-6.13287e-06 	-3.66688e-05 	0.146392
0.000652174 	-6.13287e-06 	-3.66688e-05 	0.146392
0.000702341 	-6.37123e-06 	-4.2906e-05 	0.152185
0.000702341 	-6.37123e-06 	-4.2906e-05 	0.152185
0.000752508 	-6.57527e-06 	-4.97339e-05 	0.157482
0.000802676 	-6.74702e-06 	-5.71666e-05 	0.16234
0.000852843 	-6.88427e-06 	-6.53003e-05 	0.166751
0.000852843 	-6.88427e-06 	-6.53003e-05 	0.166751
0.00090301 	-6.99443e-06 	-7.40088e-05 	0.170825
0.00090301 	-6.99443e-06 	-7.40088e-05 	0.170825
0.000953177 	-7.08004e-06 	-8.32429e-05 	0.174602
0.00100334 	-7.14353e-06 	-9.29515e-05 	0.178118
0.00100334 	-7.14353e-06 	-9.29515e-05 	0.178118
0.00105351 	-7.18716e-06 	-0.000103086 	0.181404
0.00105351 	-7.18716e-06 	-0.000103086 	0.181404
0.00110368 	-7.21261e-06 	-0.000113609 	0.184484
0.00115385 	-7.21764e-06 	-0.000124565 	0.187335
0.00120401 	-7.20914e-06 	-0.000135801 	0.190036
0.00120401 	-7.20914e-06 	-0.000135801 	0.190036
0.00130435 	-7.15691e-06 	-0.000158977 	0.195046
0.00130435 	-7.15691e-06 	-0.000158977 	0.195046
0.00135452 	-7.11254e-06 	-0.000170905 	0.197347
0.00135452 	-7.11254e-06 	-0.000170905 	0.197347
0.00140468 	-7.05833e-06 	-0.000182992 	0.199539
0.00145485 	-6.99654e-06 	-0.000195186 	0.201647
0.00145485 	-6.99654e-06 	-0.000195186 	0.201647
0.00150502 	-6.92776e-06 	-0.000207469 	0.203678
0.00150502 	-6.92776e-06 	-0.000207469 	0.203678
0.00155518 	-6.849e-06 	-0.000219839 	0.205602
0.00155518 	-6.849e-06 	-0.000219839 	0.205602
0.00160535 	-6.76458e-06 	-0.000232228 	0.207465
0.00160535 	-6.76458e-06 	-0.000232228 	0.207465
0.00165552 	-6.67517e-06 	-0.000244622 	0.209276
0.00165552 	-6.67517e-06 	-0.000244622 	0.209276
0.00170569 	-6.5791e-06 	-0.000256986 	0.211016
0.00170569 	-6.5791e-06 	-0.000256986 	0.211016
0.00175585 	-6.47784e-06 	-0.000269275 	0.212701
0.00175585 	-6.47784e-06 	-0.000269275 	0.212701
0.00180602 	-6.37305e-06 	-0.000281494 	0.214348
0.00180602 	-6.37305e-06 	-0.000281494 	0.214348
0.00185619 	-6.2633e-06 	-0.000293583 	0.215941
0.00185619 	-6.2633e-06 	-0.000293583 	0.215941
0.00190635 	-6.14935e-06 	-0.000305504 	0.217489
0.00190635 	-6.14935e-06 	-0.000305504 	0.217489
0.00195652 	-6.03281e-06 	-0.000317307 	0.219009
0.00195652 	-6.03281e-06 	-0.000317307 	0.219009
0.00200669 	-5.91189e-06 	-0.000328868 	0.220481
0.00200669 	-5.91189e-06 	-0.000328868 	0.220481
0.00205686 	-5.78802e-06 	-0.000340215 	0.221921
0.00210702 	-5.66218e-06 	-0.000351419 	0.22334
0.00210702 	-5.66218e-06 	-0.000351419 	0.22334
0.00215719 	-5.53192e-06 	-0.000362219 	0.224709
0.00220736 	-5.40006e-06 	-0.000372843 	0.22606
0.00225753 	-5.26565e-06 	-0.000383185 	0.227382
0.00225753 	-5.26565e-06 	-0.000383185 	0.227382
0.00230769 	-5.12844e-06 	-0.000393157 	0.228672
0.00230769 	-5.12844e-06 	-0.000393157 	0.228672
0.00235786 	-4.99001e-06 	-0.000402968 	0.229949
0.00235786 	-4.99001e-06 	-0.000402968 	0.229949
0.00240803 	-4.84813e-06 	-0.000412256 	0.231185
0.00240803 	-4.84813e-06 	-0.000412256 	0.231185
0.00245819 	-4.70512e-06 	-0.000421351 	0.232407
0.00245819 	-4.70512e-06 	-0.000421351 	0.232407
0.00250836 	-4.55981e-06 	-0.000430055 	0.233602
0.00250836 	-4.55981e-06 	-0.000430055 	0.233602
0.00255853 	-4.41259e-06 	-0.0004384 	0.234774
0.0026087 	-4.26401e-06 	-0.00044649 	0.235929
0.0026087 	-4.26401e-06 	-0.00044649 	0.235929
0.00265886 	-4.11285e-06 	-0.000454061 	0.237052
0.00270903 	-3.96107e-06 	-0.00046151 	0.238168
0.00270903 	-3.96107e-06 	-0.00046151 	0.238168
0.0027592 	-3.80614e-06 	-0.000468295 	0.239245
0.00280936 	-3.65069e-06 	-0.000474973 	0.240316
0.00280936 	-3.65069e-06 	-0.000474973 	0.240316
0.00285953 	-3.49254e-06 	-0.000481078 	0.241354
0.00285953 	-3.49254e-06 	-0.000481078 	0.241354
0.0029097 	-3.33342e-06 	-0.000486989 	0.242381
0.0029097 	-3.33342e-06 	-0.000486989 	0.242381
0.00295987 	-3.17191e-06 	-0.000492411 	0.243381
0.00295987 	-3.17191e-06 	-0.000492411 	0.243381
0.00301003 	-3.00907e-06 	-0.00049758 	0.244366
0.0030602 	-2.84404e-06 	-0.000502331 	0.245327
0.00311037 	-2.6774e-06 	-0.000506803 	0.246272
0.00311037 	-2.6774e-06 	-0.000506803 	0.246272
0.00316054 	-2.50868e-06 	-0.000510912 	0.247195
0.00316054 	-2.50868e-06 	-0.000510912 	0.247195
0.00326087 	-2.16564e-06 	-0.000518255 	0.248986
0.00326087 	-2.16564e-06 	-0.000518255 	0.248986
0.00331104 	-1.99127e-06 	-0.00052152 	0.249854
0.0033612 	-1.81465e-06 	-0.00052448 	0.250701
0.0033612 	-1.81465e-06 	-0.00052448 	0.250701
0.00341137 	-1.63626e-06 	-0.000527246 	0.251532
0.00341137 	-1.63626e-06 	-0.000527246 	0.251532
0.00346154 	-1.45518e-06 	-0.000529715 	0.252341
0.00346154 	-1.45518e-06 	-0.000529715 	0.252341
0.00351171 	-1.27253e-06 	-0.000532049 	0.253138
0.00356187 	-1.08645e-06 	-0.000534087 	0.253909
0.00356187 	-1.08645e-06 	-0.000534087 	0.253909
0.00361204 	-8.99381e-07 	-0.000536052 	0.254674
0.00366221 	-7.08065e-07 	-0.000537712 	0.25541
0.00366221 	-7.08065e-07 	-0.000537712 	0.25541
0.00371237 	-5.166e-07 	-0.000539362 	0.256145
0.00371237 	-5.166e-07 	-0.000539362 	0.256145
0.00376254 	-3.20276e-07 	-0.00054069 	0.256849
0.00376254 	-3.20276e-07 	-0.00054069 	0.256849
0.00381271 	-1.23953e-07 	-0.000542018 	0.257552
0.00381271 	-1.23953e-07 	-0.000542018 	0.257552
0.00386288 	7.60943e-08 	-0.000543101 	0.258228
0.00391304 	2.76901e-07 	-0.000544134 	0.258899
0.00391304 	2.76901e-07 	-0.000544134 	0.258899
0.00396321 	4.80035e-07 	-0.000545013 	0.259551
0.00401338 	6.84774e-07 	-0.000545786 	0.26019
0.00401338 	6.84774e-07 	-0.000545786 	0.26019
0.00406355 	8.90583e-07 	-0.000546488 	0.260819
0.00406355 	8.90583e-07 	-0.000546488 	0.260819
0.00411371 	1.09874e-06 	-0.000547035 	0.261426
0.00411371 	1.09874e-06 	-0.000547035 	0.261426
0.00421405 	1.51789e-06 	-0.00054794 	0.262608
0.00421405 	1.51789e-06 	-0.00054794 	0.262608
0.00426421 	1.72891e-06 	-0.000548296 	0.263182
0.00426421 	1.72891e-06 	-0.000548296 	0.263182
0.00431438 	1.94133e-06 	-0.000548554 	0.263736
0.00431438 	1.94133e-06 	-0.000548554 	0.263736
0.00436455 	2.15456e-06 	-0.000548754 	0.264278
0.00436455 	2.15456e-06 	-0.000548754 	0.264278
0.00441472 	2.36813e-06 	-0.000548926 	0.264813
0.00441472 	2.36813e-06 	-0.000548926 	0.264813
0.00446488 	2.58283e-06 	-0.000549005 	0.265323
0.00446488 	2.58283e-06 	-0.000549005 	0.265323
0.00451505 	2.79753e-06 	-0.000549085 	0.265833
0.00451505 	2.79753e-06 	-0.000549085 	0.265833
0.00456522 	3.01273e-06 	-0.000549096 	0.266317
0.00456522 	3.01273e-06 	-0.000549096 	0.266317
0.00461538 	3.22806e-06 	-0.000549089 	0.266794
0.00461538 	3.22806e-06 	-0.000549089 	0.266794
0.00466555 	3.4433e-06 	-0.000549067 	0.267262
0.00471572 	3.65832e-06 	-0.000549006 	0.267707
0.00476589 	3.87335e-06 	-0.000548946 	0.268152
0.00476589 	3.87335e-06 	-0.000548946 	0.268152
0.00486622 	4.30116e-06 	-0.000548787 	0.268985
0.00486622 	4.30116e-06 	-0.000548787 	0.268985
0.00491639 	4.51451e-06 	-0.000548706 	0.269391
0.00496656 	4.72597e-06 	-0.000548629 	0.269771
0.00496656 	4.72597e-06 	-0.000548629 	0.269771
0.00501672 	4.93743e-06 	-0.000548552 	0.270151
0.00506689 	5.14705e-06 	-0.00054849 	0.270514
0.00511706 	5.35514e-06 	-0.000548441 	0.270861
0.00511706 	5.35514e-06 	-0.000548441 	0.270861
0.00521739 	5.76739e-06 	-0.000548384 	0.271529
0.00521739 	5.76739e-06 	-0.000548384 	0.271529
0.00526756 	5.97098e-06 	-0.000548381 	0.271845
0.00526756 	5.97098e-06 	-0.000548381 	0.271845
0.00531773 	6.1737e-06 	-0.000548387 	0.272156
0.00536789 	6.3716e-06 	-0.000548442 	0.27244
0.00536789 	6.3716e-06 	-0.000548442 	0.27244
0.00541806 	6.56951e-06 	-0.000548498 	0.272724
0.00546823 	6.76477e-06 	-0.000548578 	0.272996
0.00551839 	6.95578e-06 	-0.000548699 	0.273249
0.00551839 	6.95578e-06 	-0.000548699 	0.273249
0.00556856 	7.14678e-06 	-0.000548819 	0.273502
0.00556856 	7.14678e-06 	-0.000548819 	0.273502
0.0056689 	7.51594e-06 	-0.000549164 	0.27396
0.0056689 	7.51594e-06 	-0.000549164 	0.27396
0.00571906 	7.69871e-06 	-0.000549351 	0.274182
0.00576923 	7.87474e-06 	-0.00054958 	0.274384
0.00576923 	7.87474e-06 	-0.00054958 	0.274384
0.0058194 	8.04775e-06 	-0.000549827 	0.274577
0.0058194 	8.04775e-06 	-0.000549827 	0.274577
0.00591973 	8.38494e-06 	-0.00055036 	0.27494
0.00591973 	8.38494e-06 	-0.00055036 	0.27494
0.0059699 	8.54645e-06 	-0.000550658 	0.275104
0.0059699 	8.54645e-06 	-0.000550658 	0.275104
0.00602007 	8.70796e-06 	-0.000550955 	0.275268
0.00607023 	8.8589e-06 	-0.000551278 	0.27541
0.0061204 	9.0071e-06 	-0.000551609 	0.275546
0.0061204 	9.0071e-06 	-0.000551609 	0.275546
0.00617057 	9.1553e-06 	-0.00055194 	0.275682
0.00622074 	9.29192e-06 	-0.000552282 	0.275797
0.00622074 	9.29192e-06 	-0.000552282 	0.275797
0.0062709 	9.425e-06 	-0.000552628 	0.275907
0.00632107 	9.55807e-06 	-0.000552974 	0.276016
0.00632107 	9.55807e-06 	-0.000552974 	0.276016
0.00637124 	9.6795e-06 	-0.000553318 	0.276107
0.00637124 	9.6795e-06 	-0.000553318 	0.276107
0.0064214 	9.7955e-06 	-0.00055366 	0.276191
0.0064214 	9.7955e-06 	-0.00055366 	0.276191
0.00647157 	9.9115e-06 	-0.000554003 	0.276274
0.00647157 	9.9115e-06 	-0.000554003 	0.276274
0.00652174 	1.0017e-05 	-0.00055433 	0.276343
0.00657191 	1.01137e-05 	-0.000554645 	0.276401
0.00657191 	1.01137e-05 	-0.000554645 	0.276401
0.00662207 	1.02104e-05 	-0.000554959 	0.276459
0.00667224 	1.02994e-05 	-0.00055526 	0.276508
0.00672241 	1.03743e-05 	-0.000555534 	0.276541
0.00672241 	1.03743e-05 	-0.000555534 	0.276541
0.00677258 	1.04493e-05 	-0.000555808 	0.276574
0.00682274 	1.05217e-05 	-0.000556078 	0.276605
0.00682274 	1.05217e-05 	-0.000556078 	0.276605
0.00687291 	1.05721e-05 	-0.000556303 	0.276614
0.00687291 	1.05721e-05 	-0.000556303 	0.276614
0.00692308 	1.06226e-05 	-0.000556529 	0.276622
0.00697324 	1.0673e-05 	-0.000556755 	0.276631
0.00702341 	1.07018e-05 	-0.000556924 	0.27662
0.00707358 	1.0725e-05 	-0.000557077 	0.276605
0.00707358 	1.0725e-05 	-0.000557077 	0.276605
0.00717391 	1.07586e-05 	-0.000557356 	0.276563
0.00717391 	1.07586e-05 	-0.000557356 	0.276563
0.00722408 	1.07515e-05 	-0.000557441 	0.276523
0.00722408 	1.07515e-05 	-0.000557441 	0.276523
0.00727425 	1.07444e-05 	-0.000557526 	0.276484
0.00727425 	1.07444e-05 	-0.000557526 	0.276484
0.00732441 	1.07373e-05 	-0.000557611 	0.276444
0.00732441 	1.07373e-05 	-0.000557611 	0.276444
0.00737458 	1.06979e-05 	-0.000557605 	0.27638
0.00737458 	1.06979e-05 	-0.000557605 	0.27638
0.00742475 	1.06582e-05 	-0.000557599 	0.276317
0.00747492 	1.06185e-05 	-0.000557593 	0.276253
0.00752508 	1.05623e-05 	-0.000557528 	0.276177
0.00752508 	1.05623e-05 	-0.000557528 	0.276177
0.00757525 	1.04897e-05 	-0.000557403 	0.27609
0.00762542 	1.04171e-05 	-0.000557278 	0.276002
0.00767559 	1.03441e-05 	-0.000557152 	0.275914
0.00767559 	1.03441e-05 	-0.000557152 	0.275914
0.00772575 	1.02398e-05 	-0.000556918 	0.275802
0.00777592 	1.01355e-05 	-0.000556684 	0.275691
0.00777592 	1.01355e-05 	-0.000556684 	0.275691
0.00782609 	1.00312e-05 	-0.00055645 	0.275579
0.00787625 	9.91072e-06 	-0.000556142 	0.275453
0.00787625 	9.91072e-06 	-0.000556142 	0.275453
0.00792642 	9.77855e-06 	-0.000555781 	0.275318
0.00797659 	9.64638e-06 	-0.000555419 	0.275183
0.00802676 	9.50921e-06 	-0.000555031 	0.275043
0.00802676 	9.50921e-06 	-0.000555031 	0.275043
0.00807692 	9.35329e-06 	-0.000554543 	0.274885
0.00807692 	9.35329e-06 	-0.000554543 	0.274885
0.00812709 	9.19737e-06 	-0.000554055 	0.274727
0.00817726 	9.04145e-06 	-0.000553568 	0.274569
0.00817726 	9.04145e-06 	-0.000553568 	0.274569
0.00822742 	8.86723e-06 	-0.000552981 	0.27439
0.00827759 	8.69099e-06 	-0.000552382 	0.274209
0.00827759 	8.69099e-06 	-0.000552382 	0.274209
0.00832776 	8.51476e-06 	-0.000551784 	0.274029
0.00832776 	8.51476e-06 	-0.000551784 	0.274029
0.00837793 	8.32747e-06 	-0.00055111 	0.273833
0.00842809 	8.13423e-06 	-0.000550395 	0.27363
0.00842809 	8.13423e-06 	-0.000550395 	0.27363
0.00847826 	7.94099e-06 	-0.00054968 	0.273426
0.00847826 	7.94099e-06 	-0.00054968 	0.273426
0.0085786 	7.53423e-06 	-0.000548082 	0.272987
0.0085786 	7.53423e-06 	-0.000548082 	0.272987
0.00862876 	7.32706e-06 	-0.000547252 	0.272761
0.00867893 	7.11635e-06 	-0.000546385 	0.272528
0.0087291 	6.89805e-06 	-0.000545441 	0.272279
0.00877926 	6.67974e-06 	-0.000544498 	0.272031
0.00882943 	6.45941e-06 	-0.000543527 	0.271777
0.0088796 	6.23248e-06 	-0.000542471 	0.271506
0.0088796 	6.23248e-06 	-0.000542471 	0.271506
0.00892977 	6.00555e-06 	-0.000541415 	0.271235
0.00892977 	6.00555e-06 	-0.000541415 	0.271235
0.00897993 	5.7773e-06 	-0.000540336 	0.27096
0.00897993 	5.7773e-06 	-0.000540336 	0.27096
0.0090301 	5.54399e-06 	-0.000539169 	0.270667
0.00908027 	5.31068e-06 	-0.000538002 	0.270373
0.00908027 	5.31068e-06 	-0.000538002 	0.270373
0.00913043 	5.07635e-06 	-0.000536809 	0.270074
0.0091806 	4.83863e-06 	-0.000535531 	0.269758
0.0091806 	4.83863e-06 	-0.000535531 	0.269758
0.00923077 	4.60092e-06 	-0.000534253 	0.269442
0.00928094 	4.36237e-06 	-0.000532941 	0.269119
0.00928094 	4.36237e-06 	-0.000532941 	0.269119
0.0093311 	4.12197e-06 	-0.000531552 	0.26878
0.00938127 	3.88158e-06 	-0.000530163 	0.268441
0.00938127 	3.88158e-06 	-0.000530163 	0.268441
0.00943144 	3.64067e-06 	-0.000528725 	0.268092
0.00943144 	3.64067e-06 	-0.000528725 	0.268092
0.00948161 	3.39912e-06 	-0.000527224 	0.26773
0.00948161 	3.39912e-06 	-0.000527224 	0.26773
0.00953177 	3.15757e-06 	-0.000525723 	0.267368
0.00953177 	3.15757e-06 	-0.000525723 	0.267368
0.00958194 	2.91612e-06 	-0.000524152 	0.266991
0.00958194 	2.91612e-06 	-0.000524152 	0.266991
0.00963211 	2.67475e-06 	-0.000522538 	0.266606
0.00968227 	2.43338e-06 	-0.000520923 	0.26622
0.00968227 	2.43338e-06 	-0.000520923 	0.26622
0.00973244 	2.19315e-06 	-0.00051921 	0.265814
0.00978261 	1.95314e-06 	-0.000517479 	0.265405
0.00978261 	1.95314e-06 	-0.000517479 	0.265405
0.00983278 	1.71342e-06 	-0.000515734 	0.264992
0.00983278 	1.71342e-06 	-0.000515734 	0.264992
0.00988294 	1.47578e-06 	-0.000513884 	0.264558
0.00993311 	1.23813e-06 	-0.000512034 	0.264125
0.00993311 	1.23813e-06 	-0.000512034 	0.264125
0.00998328 	1.00196e-06 	-0.000510128 	0.26368
0.0100334 	7.67575e-07 	-0.000508155 	0.263221
0.0100836 	5.3319e-07 	-0.000506181 	0.262762
0.0100836 	5.3319e-07 	-0.000506181 	0.262762
0.0101338 	3.0213e-07 	-0.000504102 	0.262283
0.0101839 	7.178e-08 	-0.000502 	0.261799
0.0101839 	7.178e-08 	-0.000502 	0.261799
0.0102341 	-1.57421e-07 	-0.000499866 	0.261308
0.0102341 	-1.57421e-07 	-0.000499866 	0.261308
0.0102843 	-3.83051e-07 	-0.00049763 	0.260798
0.0103344 	-6.08681e-07 	-0.000495395 	0.260288
0.0103344 	-6.08681e-07 	-0.000495395 	0.260288
0.0103846 	-8.30537e-07 	-0.000493059 	0.259759
0.0103846 	-8.30537e-07 	-0.000493059 	0.259759
0.0104348 	-1.05084e-06 	-0.000490683 	0.259222
0.0104348 	-1.05084e-06 	-0.000490683 	0.259222
0.0104849 	-1.26986e-06 	-0.000488275 	0.258679
0.0104849 	-1.26986e-06 	-0.000488275 	0.258679
0.0105351 	-1.4843e-06 	-0.000485751 	0.258115
0.0105853 	-1.69873e-06 	-0.000483227 	0.25755
0.0105853 	-1.69873e-06 	-0.000483227 	0.25755
0.0106856 	-2.11633e-06 	-0.000477904 	0.256371
0.0106856 	-2.11633e-06 	-0.000477904 	0.256371
0.0107358 	-2.32191e-06 	-0.000475164 	0.255767
0.010786 	-2.52319e-06 	-0.000472321 	0.255144
0.010786 	-2.52319e-06 	-0.000472321 	0.255144
0.0108361 	-2.72442e-06 	-0.000469477 	0.254522
0.0108863 	-2.9185e-06 	-0.000466462 	0.253868
0.0108863 	-2.9185e-06 	-0.000466462 	0.253868
0.0109365 	-3.11258e-06 	-0.000463448 	0.253215
0.0109365 	-3.11258e-06 	-0.000463448 	0.253215
0.0109866 	-3.30146e-06 	-0.00046031 	0.25254
0.0110368 	-3.48797e-06 	-0.000457115 	0.251855
0.0110368 	-3.48797e-06 	-0.000457115 	0.251855
0.011087 	-3.67122e-06 	-0.000453843 	0.251156
0.011087 	-3.67122e-06 	-0.000453843 	0.251156
0.0111371 	-3.84977e-06 	-0.000450457 	0.250438
0.0111873 	-4.02689e-06 	-0.000447036 	0.249714
0.0111873 	-4.02689e-06 	-0.000447036 	0.249714
0.0112375 	-4.19706e-06 	-0.000443444 	0.248961
0.0112876 	-4.36722e-06 	-0.000439852 	0.248208
0.0112876 	-4.36722e-06 	-0.000439852 	0.248208
0.0113378 	-4.52884e-06 	-0.000436043 	0.247419
0.0113378 	-4.52884e-06 	-0.000436043 	0.247419
0.011388 	-4.69019e-06 	-0.000432227 	0.246629
0.0114381 	-4.84407e-06 	-0.000428207 	0.245808
0.0114381 	-4.84407e-06 	-0.000428207 	0.245808
0.0114883 	-4.99618e-06 	-0.000424138 	0.244979
0.0115385 	-5.14163e-06 	-0.000419868 	0.24412
0.0115385 	-5.14163e-06 	-0.000419868 	0.24412
0.0115886 	-5.28404e-06 	-0.000415507 	0.243247
0.0116388 	-5.42036e-06 	-0.000410942 	0.242347
0.0116388 	-5.42036e-06 	-0.000410942 	0.242347
0.011689 	-5.55265e-06 	-0.000406242 	0.241427
0.0117391 	-5.67925e-06 	-0.000401326 	0.240478
0.0117893 	-5.80127e-06 	-0.000396236 	0.239506
0.0118395 	-5.91773e-06 	-0.000390912 	0.238503
0.0118395 	-5.91773e-06 	-0.000390912 	0.238503
0.0118896 	-6.0295e-06 	-0.000385389 	0.237474
0.0119398 	-6.13547e-06 	-0.000379605 	0.236409
0.0119398 	-6.13547e-06 	-0.000379605 	0.236409
0.01199 	-6.23698e-06 	-0.00037362 	0.235318
0.0120401 	-6.33201e-06 	-0.000367338 	0.234185
0.0120401 	-6.33201e-06 	-0.000367338 	0.234185
0.0120903 	-6.42312e-06 	-0.000360878 	0.233026
0.0120903 	-6.42312e-06 	-0.000360878 	0.233026
0.0121906 	-6.58702e-06 	-0.000347128 	0.230587
0.0121906 	-6.58702e-06 	-0.000347128 	0.230587
0.0122408 	-6.65821e-06 	-0.000339777 	0.229292
0.012291 	-6.72765e-06 	-0.000332349 	0.227986
0.012291 	-6.72765e-06 	-0.000332349 	0.227986
0.0123411 	-6.78579e-06 	-0.000324437 	0.226599
0.0123913 	-6.8417e-06 	-0.000316433 	0.225194
0.0123913 	-6.8417e-06 	-0.000316433 	0.225194
0.0124415 	-6.88824e-06 	-0.000308044 	0.223721
0.0124415 	-6.88824e-06 	-0.000308044 	0.223721
0.0124916 	-6.92985e-06 	-0.000299462 	0.222209
0.0124916 	-6.92985e-06 	-0.000299462 	0.222209
0.0125418 	-6.96451e-06 	-0.00029061 	0.220644
0.012592 	-6.99103e-06 	-0.000281463 	0.219015
0.0126421 	-7.01354e-06 	-0.000272172 	0.217354
0.0126421 	-7.01354e-06 	-0.000272172 	0.217354
0.0126923 	-7.02421e-06 	-0.000262496 	0.215596
0.0127425 	-7.03091e-06 	-0.000252705 	0.213804
0.0127425 	-7.03091e-06 	-0.000252705 	0.213804
0.0127926 	-7.02839e-06 	-0.000242655 	0.211935
0.0128428 	-7.01795e-06 	-0.000232423 	0.209998
0.0128428 	-7.01795e-06 	-0.000232423 	0.209998
0.0129431 	-6.97425e-06 	-0.000211508 	0.205921
0.0129431 	-6.97425e-06 	-0.000211508 	0.205921
0.0129933 	-6.94057e-06 	-0.000200879 	0.203775
0.0130435 	-6.89882e-06 	-0.000190162 	0.201555
0.0130435 	-6.89882e-06 	-0.000190162 	0.201555
0.0131438 	-6.78685e-06 	-0.000168624 	0.19684
0.0131438 	-6.78685e-06 	-0.000168624 	0.19684
0.013194 	-6.71794e-06 	-0.000157874 	0.194355
0.0132441 	-6.63839e-06 	-0.000147214 	0.19176
0.0132441 	-6.63839e-06 	-0.000147214 	0.19176
0.0132943 	-6.55171e-06 	-0.000136639 	0.18909
0.0133445 	-6.45497e-06 	-0.000126212 	0.18631
0.0133445 	-6.45497e-06 	-0.000126212 	0.18631
0.0133946 	-6.34669e-06 	-0.00011602 	0.183399
0.0133946 	-6.34669e-06 	-0.00011602 	0.183399
0.0134448 	-6.23042e-06 	-0.00010602 	0.180394
0.0134448 	-6.23042e-06 	-0.00010602 	0.180394
0.013495 	-6.10542e-06 	-9.62441e-05 	0.177283
0.0135452 	-5.96656e-06 	-8.6892e-05 	0.173995
0.0135452 	-5.96656e-06 	-8.6892e-05 	0.173995
0.0135953 	-5.81892e-06 	-7.78454e-05 	0.170586
0.0135953 	-5.81892e-06 	-7.78454e-05 	0.170586
0.0136455 	-5.66213e-06 	-6.91312e-05 	0.167048
0.0136455 	-5.66213e-06 	-6.91312e-05 	0.167048
0.0136957 	-5.49425e-06 	-6.08473e-05 	0.163345
0.0136957 	-5.49425e-06 	-6.08473e-05 	0.163345
0.0137458 	-5.31369e-06 	-5.31052e-05 	0.159433
0.013796 	-5.12363e-06 	-4.5808e-05 	0.155348
0.013796 	-5.12363e-06 	-4.5808e-05 	0.155348
0.0138462 	-4.92399e-06 	-3.89863e-05 	0.151078
0.0138462 	-4.92399e-06 	-3.89863e-05 	0.151078
0.0138963 	-4.7148e-06 	-3.26713e-05 	0.146606
0.0139465 	-4.49365e-06 	-2.70542e-05 	0.141846
0.0139465 	-4.49365e-06 	-2.70542e-05 	0.141846
0.0139967 	-4.26392e-06 	-2.19937e-05 	0.136838
0.0139967 	-4.26392e-06 	-2.19937e-05 	0.136838
0.0140468 	-4.02637e-06 	-1.74896e-05 	0.13157
0.0140468 	-4.02637e-06 	-1.74896e-05 	0.13157
0.014097 	-3.78171e-06 	-1.35508e-05 	0.12602
0.0141472 	-3.5308e-06 	-1.01778e-05 	0.120164
0.0141472 	-3.5308e-06 	-1.01778e-05 	0.120164
0.0141973 	-3.27471e-06 	-7.35721e-06 	0.113977
0.0142475 	-3.01423e-06 	-5.13245e-06 	0.107358
0.0142977 	-2.75203e-06 	-3.37153e-06 	0.100324
0.0142977 	-2.75203e-06 	-3.37153e-06 	0.100324
0.0143478 	-2.49141e-06 	-2.02988e-06 	0.0928637
0.014398 	-2.23671e-06 	-1.06773e-06 	0.0849958
0.014398 	-2.23671e-06 	-1.06773e-06 	0.0849958
0.0144482 	-1.99248e-06 	-4.35048e-07 	0.0767782
0.0144983 	-1.76279e-06 	-7.02272e-08 	0.0683155
0.0144983 	-1.76279e-06 	-7.02272e-08 	0.0683155
0.0145485 	-1.55034e-06 	9.59119e-08 	0.059758
0.0145485 	-1.55034e-06 	9.59119e-08 	0.059758
0.0145987 	-1.35575e-06 	1.33429e-07 	0.0512871
0.0146488 	-1.17727e-06 	1.04553e-07 	0.0430848
0.014699 	-1.01118e-06 	5.59915e-08 	0.0353004
0.014699 	-1.01118e-06 	5.59915e-08 	0.0353004
0.0147492 	-8.52368e-07 	1.57175e-08 	0.0280299
0.0147993 	-6.9334e-07 	-5.74521e-09 	0.0213182
0.0147993 	-6.9334e-07 	-5.74521e-09 	0.0213182
0.0148495 	-5.18887e-07 	-7.34704e-09 	0.0151749
0.0148495 	-5.18887e-07 	-7.34704e-09 	0.0151749
0.0148997 	-3.15389e-07 	-1.57193e-09 	0.00959079
0.0148997 	-3.15389e-07 	-1.57193e-09 	0.00959079
0.0149498 	-1.16733e-07 	3.23532e-09 	0.00454646
0.0149498 	-1.16733e-07 	3.23532e-09 	0.00454646
0.015 	0 	0 	0
0.015 	0 	0 	0
