/*--------------------------------*- C++ -*----------------------------------*\
| =========                 |                                                 |
| \\      /  F ield         | OpenFOAM: The Open Source CFD Toolbox           |
|  \\    /   O peration     | Version:  v1912                                 |
|   \\  /    A nd           | Website:  www.openfoam.com                      |
|    \\/     M anipulation  |                                                 |
\*---------------------------------------------------------------------------*/
FoamFile
{
    version     2.0;
    format      ascii;
    class       volVectorField;
    location    "198.8";
    object      U;
}
// * * * * * * * * * * * * * * * * * * * * * * * * * * * * * * * * * * * * * //

dimensions      [0 1 -1 0 0 0 0];


internalField   nonuniform List<vector> 
40448
(
(2.76888e-06 -0.000586243 -0.0065346)
(-0.00224625 5.2598e-06 -0.00330282)
(0.000306113 -6.5078e-06 -0.00259662)
(-0.000150276 -6.7087e-06 -0.00453831)
(0.000159926 -6.31662e-06 -0.00450858)
(8.92618e-05 -6.33362e-06 -0.00492164)
(9.87037e-05 -6.36688e-06 -0.00500286)
(4.09378e-05 -6.29489e-06 -0.00510231)
(-1.48224e-06 -6.37754e-06 -0.005095)
(-4.42493e-05 -6.29363e-06 -0.00509758)
(-0.000101307 -6.36829e-06 -0.00499103)
(-9.11071e-05 -6.33514e-06 -0.00490512)
(-0.000160231 -6.3229e-06 -0.00448832)
(0.000152078 -6.71686e-06 -0.00452113)
(-0.000303301 -6.50635e-06 -0.00258531)
(0.00224718 5.26375e-06 -0.00328218)
(7.94157e-06 0.00366591 -0.0178698)
(-0.00767987 9.02898e-07 -0.00698827)
(0.000665448 -7.87381e-05 -0.00494254)
(-0.00051473 -3.84189e-05 -0.010706)
(0.00035302 -4.08518e-05 -0.0106009)
(0.00020687 -3.82263e-05 -0.0118217)
(0.000252663 -3.80841e-05 -0.0120594)
(0.000104651 -3.72895e-05 -0.0123537)
(-4.11995e-06 -3.76722e-05 -0.012332)
(-0.000113776 -3.73028e-05 -0.0123396)
(-0.000259652 -3.81339e-05 -0.0120242)
(-0.000211639 -3.82896e-05 -0.0117725)
(-0.000353392 -4.09307e-05 -0.0105405)
(0.000519706 -3.8488e-05 -0.0106545)
(-0.000658068 -7.87379e-05 -0.00490874)
(0.00768159 9.1034e-07 -0.00692742)
(1.27263e-05 -0.00049516 -0.0275196)
(-0.0128068 -2.2023e-05 -0.0080549)
(0.000819759 -0.00019978 -0.00464412)
(-0.000875527 -8.54148e-05 -0.0141784)
(0.000483779 -9.47236e-05 -0.0139904)
(0.000289653 -8.71898e-05 -0.016009)
(0.000377014 -8.69107e-05 -0.0163993)
(0.000156028 -8.49176e-05 -0.0168852)
(-6.23059e-06 -8.5771e-05 -0.0168496)
(-0.000169809 -8.49532e-05 -0.0168619)
(-0.000387361 -8.70384e-05 -0.016341)
(-0.000296654 -8.73542e-05 -0.0159273)
(-0.000483997 -9.49049e-05 -0.0138905)
(0.000882982 -8.55813e-05 -0.0140929)
(-0.000808784 -0.000199776 -0.00458826)
(0.0128083 -2.20695e-05 -0.00795505)
(1.6916e-05 0.00263822 -0.0350704)
(-0.0168554 -4.38649e-05 -0.00672455)
(0.000922462 -0.000365084 -0.00188536)
(-0.00118519 -0.000141904 -0.0151101)
(0.00059122 -0.00016153 -0.0148367)
(0.000353476 -0.000147005 -0.017642)
(0.000478602 -0.000146623 -0.0181813)
(0.000197736 -0.000143046 -0.0188544)
(-7.71371e-06 -0.000144482 -0.0188055)
(-0.000214861 -0.000143108 -0.0188222)
(-0.000491255 -0.000146847 -0.0181002)
(-0.000362126 -0.000147294 -0.0175285)
(-0.000591237 -0.000161804 -0.0146981)
(0.0011944 -0.000142173 -0.0149913)
(-0.000908722 -0.000365059 -0.00180819)
(0.0168557 -4.40219e-05 -0.0065872)
(2.04264e-05 0.00102336 -0.0403002)
(-0.0197751 -7.28733e-05 -0.00324831)
(0.00100207 -0.000562037 0.00310812)
(-0.0014448 -0.000202194 -0.0136862)
(0.000675434 -0.000235553 -0.013325)
(0.000398375 -0.000211375 -0.0168994)
(0.000557341 -0.000210993 -0.0175825)
(0.000229611 -0.000205511 -0.0184372)
(-8.60535e-06 -0.000207632 -0.0183757)
(-0.00024885 -0.000205601 -0.0183961)
(-0.000571322 -0.000211329 -0.0174792)
(-0.000408133 -0.000211811 -0.0167547)
(-0.000675186 -0.000235959 -0.0131486)
(0.00145511 -0.000202592 -0.0135348)
(-0.000986342 -0.000561967 0.00320561)
(0.0197733 -7.31732e-05 -0.0030752)
(2.31957e-05 0.00158798 -0.0431447)
(-0.0218522 -9.96244e-05 0.00211964)
(0.00102926 -0.000778605 0.0100642)
(-0.00166522 -0.000263534 -0.0101187)
(0.000729326 -0.000313567 -0.00966586)
(0.000421782 -0.000277746 -0.0139829)
(0.000612354 -0.000277497 -0.0148028)
(0.000251266 -0.00026982 -0.0158311)
(-8.96725e-06 -0.000272722 -0.015758)
(-0.000271505 -0.000269939 -0.0157815)
(-0.000626773 -0.000277958 -0.0146779)
(-0.000432124 -0.000278349 -0.0138081)
(-0.000728713 -0.00031416 -0.00945337)
(0.00167603 -0.000264087 -0.00993586)
(-0.00101231 -0.000778458 0.0101806)
(0.0218478 -0.00010008 0.00232642)
(2.51621e-05 0.00164064 -0.0435579)
(-0.023203 -0.000122598 0.00911781)
(0.000990706 -0.00100762 0.0186375)
(-0.00185028 -0.000323285 -0.00466889)
(0.000751556 -0.000392234 -0.00412177)
(0.000423865 -0.000344308 -0.00913973)
(0.000644135 -0.000344423 -0.0100871)
(0.000262928 -0.00033443 -0.0112785)
(-8.85708e-06 -0.000338187 -0.0111949)
(-0.00028317 -0.000334572 -0.0112208)
(-0.000658191 -0.000345007 -0.00994164)
(-0.000434306 -0.000345078 -0.00893657)
(-0.00075048 -0.000392993 -0.00387545)
(0.00186105 -0.000323968 -0.00445648)
(-0.000973253 -0.00100736 0.0187709)
(0.0231956 -0.000123217 0.00935552)
(2.63115e-05 0.00174725 -0.0416238)
(-0.0239098 -0.000139371 0.0174351)
(0.000883924 -0.00124238 0.0283963)
(-0.0020011 -0.000378938 0.00231956)
(0.000743974 -0.000468353 0.00296097)
(0.000406645 -0.000407874 -0.00270104)
(0.000654368 -0.000408631 -0.00376451)
(0.000265374 -0.000396325 -0.00510659)
(-8.34948e-06 -0.000400987 -0.00501348)
(-0.00028477 -0.000396478 -0.00504135)
(-0.000667396 -0.000409322 -0.00360002)
(-0.00041677 -0.000408793 -0.00247186)
(-0.000742359 -0.000469244 0.00323797)
(0.00201139 -0.000379719 0.00255903)
(-0.000866607 -0.00124197 0.0285442)
(0.0238993 -0.000140174 0.0177001)
(2.67134e-05 0.00183737 -0.0376347)
(-0.0240451 -0.000148722 0.0267075)
(0.00071622 -0.00147681 0.03888)
(-0.00211883 -0.000428459 0.010436)
(0.000710808 -0.000539167 0.0111684)
(0.000373599 -0.000465722 0.00492732)
(0.000646005 -0.000467368 0.00375927)
(0.000259948 -0.000452763 0.00227827)
(-7.53929e-06 -0.000458367 0.00238036)
(-0.000277843 -0.000452913 0.00235053)
(-0.0006575 -0.00046815 0.00394106)
(-0.000383074 -0.00046677 0.00517979)
(-0.000708609 -0.000540156 0.0114725)
(0.00212829 -0.000429307 0.0106996)
(-0.000699574 -0.00147623 0.0390398)
(0.0240318 -0.000149724 0.0269958)
(2.65133e-05 0.00194613 -0.0320589)
(-0.0236868 -0.00014906 0.0365713)
(0.000500545 -0.0017046 0.0496963)
(-0.00220578 -0.00047018 0.0192828)
(0.000657801 -0.000602314 0.0201004)
(0.000328925 -0.000515627 0.0133423)
(0.000622874 -0.000518361 0.0120792)
(0.000248365 -0.000501466 0.0104684)
(-6.52711e-06 -0.000508037 0.0105793)
(-0.000264309 -0.000501603 0.0105474)
(-0.000632505 -0.000519219 0.0122768)
(-0.000337513 -0.000516787 0.0136155)
(-0.000655003 -0.000603372 0.0204283)
(0.00221418 -0.000471065 0.0195679)
(-0.000484969 -0.00170382 0.0498653)
(0.023671 -0.000150272 0.0368784)
(2.58852e-05 0.00206364 -0.0253881)
(-0.0229178 -0.00013972 0.0467295)
(0.000249189 -0.00192178 0.060653)
(-0.00226516 -0.000502618 0.0285549)
(0.000590913 -0.000655668 0.029451)
(0.000276665 -0.000555688 0.0222282)
(0.000588878 -0.000559665 0.0208771)
(0.000232344 -0.000540503 0.0191429)
(-5.39858e-06 -0.000548052 0.0192626)
(-0.000246067 -0.000540615 0.0192284)
(-0.000596457 -0.000560586 0.0210895)
(-0.000284214 -0.000556944 0.0225202)
(-0.000587521 -0.000656763 0.0297998)
(0.00227237 -0.00050351 0.0288592)
(-0.000234949 -0.00192077 0.0608296)
(0.0229 -0.000141162 0.0470519)
(2.49819e-05 0.00218836 -0.0179991)
(-0.0218149 -0.000120765 0.057046)
(-2.62371e-05 -0.00212555 0.0716747)
(-0.00230071 -0.00052475 0.0381206)
(0.000514498 -0.000697832 0.0390967)
(0.000219843 -0.000584451 0.0314177)
(0.000547189 -0.000589752 0.0299778)
(0.000213283 -0.000568299 0.0281144)
(-4.21264e-06 -0.000576835 0.0282438)
(-0.000224639 -0.000568381 0.0282068)
(-0.00055262 -0.000590728 0.0302052)
(-0.000226248 -0.000585793 0.0317282)
(-0.000510518 -0.000698941 0.0394652)
(0.00230668 -0.000525625 0.0384434)
(3.89679e-05 -0.00212431 0.0718575)
(0.0217958 -0.000122448 0.0573807)
(2.3911e-05 0.00231676 -0.0101231)
(-0.020446 -9.08568e-05 0.06744)
(-0.000313495 -0.00231216 0.0826474)
(-0.00231578 -0.000535961 0.0479797)
(0.000430981 -0.000727843 0.0490331)
(0.000159959 -0.000601018 0.0409106)
(0.000499642 -0.000607703 0.039382)
(0.000191955 -0.000583928 0.0373863)
(-2.99618e-06 -0.000593461 0.037526)
(-0.000200857 -0.000583974 0.0374859)
(-0.000502876 -0.000608726 0.0396247)
(-0.00016515 -0.000602437 0.0412395)
(-0.000426415 -0.000728945 0.0494203)
(0.00232045 -0.000536797 0.0483202)
(0.000324636 -0.00231068 0.0828349)
(0.0204262 -9.27993e-05 0.0677832)
(2.27432e-05 0.00245151 -0.00189383)
(-0.0188816 -4.9241e-05 0.0777859)
(-0.000601172 -0.00247898 0.0934535)
(-0.00231294 -0.00053579 0.0580964)
(0.000342398 -0.000744781 0.059209)
(9.80919e-05 -0.000604628 0.0507022)
(0.000447525 -0.00061272 0.0490926)
(0.000168866 -0.000586577 0.0469764)
(-1.77113e-06 -0.000597117 0.0471249)
(-0.000175279 -0.000586586 0.0470825)
(-0.00044856 -0.000613786 0.0493494)
(-0.000102036 -0.000606115 0.0510475)
(-0.000337271 -0.000745855 0.0596118)
(0.00231633 -0.000536568 0.0584522)
(0.000610729 -0.00247727 0.0936445)
(0.0188618 -5.14691e-05 0.0781343)
(2.15082e-05 0.00259737 0.00673319)
(-0.0171831 3.90367e-06 0.0879802)
(-0.000878815 -0.00262458 0.103999)
(-0.0022944 -0.000524153 0.0683791)
(0.000251061 -0.000748291 0.0695284)
(3.56604e-05 -0.000594937 0.0607029)
(0.000392373 -0.000604398 0.0590205)
(0.000144666 -0.000575802 0.0567981)
(-5.69029e-07 -0.000587354 0.0569534)
(-0.000148621 -0.000575776 0.0569101)
(-0.000391265 -0.000605505 0.05929)
(-3.83601e-05 -0.000596492 0.0610626)
(-0.00024541 -0.000749323 0.0699439)
(0.00229657 -0.000524861 0.0687477)
(0.000886868 -0.00262264 0.104193)
(0.017164 1.36403e-06 0.0883308)
(2.02206e-05 0.00274979 0.0158476)
(-0.0154002 6.83663e-05 0.0979405)
(-0.00113762 -0.00274822 0.114212)
(-0.0022619 -0.000501272 0.0787414)
(0.000159335 -0.000738532 0.0799026)
(-2.59278e-05 -0.000572162 0.0708252)
(0.000335653 -0.000582923 0.0690778)
(0.000119977 -0.00055176 0.0667644)
(5.8415e-07 -0.000564333 0.0669245)
(-0.000121562 -0.000551707 0.0668814)
(-0.000332506 -0.000584076 0.0693588)
(2.4439e-05 -0.000573787 0.0711972)
(-0.00015321 -0.000739513 0.0803276)
(0.00226291 -0.000501901 0.0791201)
(0.00114432 -0.00274608 0.114407)
(0.0153824 6.54876e-05 0.0982904)
(1.89081e-05 0.00290216 0.0254082)
(-0.0135767 0.00014336 0.107602)
(-0.00137085 -0.00284981 0.124036)
(-0.00221702 -0.000467582 0.0891013)
(6.93943e-05 -0.000715948 0.0902491)
(-8.53737e-05 -0.000536793 0.0809865)
(0.000278714 -0.000548763 0.0791821)
(9.53718e-05 -0.000514888 0.0767933)
(1.66753e-06 -0.000528494 0.0769559)
(-9.47181e-05 -0.000514819 0.0769145)
(-0.000273667 -0.000549967 0.0794731)
(8.50387e-05 -0.000538492 0.081369)
(-6.28494e-05 -0.000716871 0.0906808)
(0.00221699 -0.000468127 0.0894875)
(0.00137637 -0.00284749 0.124232)
(0.0135608 0.000140114 0.107949)
(1.76012e-05 0.00305488 0.0353131)
(-0.0117514 0.000227759 0.116916)
(-0.00157372 -0.00292972 0.133429)
(-0.00216155 -0.000423692 0.0993742)
(-1.68977e-05 -0.000681282 0.100485)
(-0.000141576 -0.000489502 0.0911019)
(0.000222762 -0.00050257 0.0892485)
(7.13585e-05 -0.00046579 0.0868)
(2.66328e-06 -0.00048045 0.0869632)
(-6.86371e-05 -0.000465724 0.0869246)
(-0.000215989 -0.000503834 0.0895479)
(0.000142318 -0.000491285 0.0914927)
(2.38051e-05 -0.000682156 0.100921)
(0.00216062 -0.000424164 0.0997655)
(0.00157831 -0.00292727 0.133625)
(0.0117379 0.000224119 0.117257)
(1.63294e-05 0.00320825 0.0454252)
(-0.0099584 0.000320321 0.125842)
(-0.00174337 -0.00298868 0.142361)
(-0.00209758 -0.000370516 0.109468)
(-9.79767e-05 -0.000635555 0.110523)
(-0.000193611 -0.00043118 0.101077)
(0.000168902 -0.000445186 0.0991831)
(4.84025e-05 -0.000405203 0.0966901)
(3.55622e-06 -0.000420942 0.0968523)
(-4.38169e-05 -0.00040516 0.0968174)
(-0.000160603 -0.000446526 0.0994893)
(0.000195335 -0.000433068 0.101474)
(0.000105189 -0.000636393 0.11096)
(0.00209589 -0.000370931 0.109862)
(0.00174726 -0.00298613 0.142557)
(0.00994762 0.000316267 0.126177)
(1.51197e-05 0.00336093 0.0555857)
(-0.0082281 0.000419685 0.134352)
(-0.00187865 -0.00302766 0.150813)
(-0.0020274 -0.000309054 0.119283)
(-0.000172583 -0.000579949 0.120273)
(-0.000240665 -0.000362949 0.110807)
(0.000118161 -0.000377747 0.108884)
(2.69294e-05 -0.000334271 0.106361)
(4.3351e-06 -0.000351115 0.106521)
(-2.07078e-05 -0.000334285 0.10649)
(-0.000108551 -0.000379177 0.109195)
(0.000243265 -0.000364963 0.111209)
(0.000180049 -0.000580777 0.120709)
(0.00202513 -0.000309439 0.119678)
(0.0018821 -0.00302506 0.151008)
(0.00822031 0.0004152 0.134679)
(1.39931e-05 0.00351369 0.0656469)
(-0.00658714 0.000524531 0.142425)
(-0.00197994 -0.00304781 0.158772)
(-0.00195328 -0.000240554 0.128727)
(-0.000239649 -0.000515811 0.129645)
(-0.000282092 -0.000286348 0.120196)
(7.13817e-05 -0.000301734 0.11826)
(7.25455e-06 -0.000254285 0.115733)
(4.9951e-06 -0.000272297 0.115889)
(3.62692e-07 -0.000254398 0.115863)
(-6.06921e-05 -0.00030328 0.118573)
(0.000285456 -0.000288511 0.120601)
(0.000247329 -0.000516649 0.130079)
(0.00195058 -0.000240935 0.129121)
(0.00198318 -0.00304521 0.158966)
(0.00658243 0.000519601 0.142743)
(1.296e-05 0.00366903 0.075517)
(-0.0050579 0.000633585 0.150047)
(-0.00204889 -0.00305046 0.166238)
(-0.00187697 -0.000166156 0.137749)
(-0.000298392 -0.000444691 0.138573)
(-0.000317773 -0.000202575 0.129228)
(2.88961e-05 -0.000218357 0.127295)
(-1.04921e-05 -0.000166445 0.124786)
(5.53934e-06 -0.000185688 0.124934)
(1.92701e-05 -0.00016671 0.124915)
(-1.73452e-05 -0.000220039 0.127607)
(0.000321786 -0.000204917 0.129633)
(0.000306235 -0.000445572 0.139002)
(0.00187403 -0.000166571 0.138141)
(0.00205216 -0.0030479 0.166431)
(0.00505623 0.000628199 0.150355)
(1.20218e-05 0.00382872 0.0851627)
(-0.0036573 0.000745824 0.15721)
(-0.00208822 -0.00303708 0.173216)
(-0.00179952 -8.66181e-05 0.146366)
(-0.000348862 -0.000367623 0.147072)
(-0.000347868 -0.000112569 0.137919)
(-9.21334e-06 -0.000128635 0.135998)
(-2.62595e-05 -7.19991e-05 0.13351)
(5.97256e-06 -9.25237e-05 0.133653)
(3.59751e-05 -7.24529e-05 0.133639)
(2.14275e-05 -0.000130466 0.136309)
(0.000352424 -0.000115119 0.138321)
(0.000356824 -0.000368585 0.147493)
(0.0017965 -8.71092e-05 0.146751)
(0.00209171 -0.0030346 0.173407)
(0.00365856 0.000739968 0.157508)
(1.11777e-05 0.00399257 0.0945777)
(-0.00239397 0.000860595 0.163916)
(-0.00210135 -0.0030092 0.179719)
(-0.00172189 -2.76467e-06 0.154595)
(-0.000391528 -0.000285433 0.155179)
(-0.00037257 -1.75433e-05 0.146262)
(-4.28641e-05 -3.38065e-05 0.14436)
(-4.00238e-05 2.76527e-05 0.141895)
(6.30133e-06 5.83168e-06 0.142033)
(5.04673e-05 2.6999e-05 0.142024)
(5.55592e-05 -3.58071e-05 0.144669)
(0.000377572 -2.03161e-05 0.146661)
(0.000399578 -0.000286509 0.15559)
(0.00171892 -3.36732e-06 0.154973)
(0.00210523 -0.00300685 0.179909)
(0.00239799 0.000854271 0.164204)
(1.04267e-05 0.00415961 0.10376)
(-0.00126829 0.000976155 0.17018)
(-0.00209218 -0.0029684 0.185765)
(-0.00164515 8.4435e-05 0.162435)
(-0.000426862 -0.000199317 0.162892)
(-0.000392125 8.16355e-05 0.154263)
(-7.20947e-05 6.52654e-05 0.152387)
(-5.18168e-05 0.000131486 0.14995)
(6.535e-06 0.000108413 0.150084)
(6.2796e-05 0.000130633 0.15008)
(8.51069e-05 6.30801e-05 0.152691)
(0.000397491 7.86198e-05 0.154655)
(0.000434984 -0.00020055 0.163292)
(0.00164236 8.36689e-05 0.162803)
(0.00209658 -0.00296623 0.185953)
(0.00127498 0.000969377 0.170458)
(9.76772e-06 0.00432856 0.112704)
(-0.000272948 0.00109109 0.176053)
(-0.00206481 -0.00291618 0.191377)
(-0.00157002 0.000174255 0.169893)
(-0.000455363 -0.000110217 0.170214)
(-0.000406802 0.000184291 0.161934)
(-9.70224e-05 0.000167912 0.160095)
(-6.17021e-05 0.000238771 0.157697)
(6.68353e-06 0.000214494 0.157827)
(7.30453e-05 0.000237727 0.157828)
(0.000110209 0.000165526 0.160394)
(0.000412459 0.000181007 0.162319)
(0.000463547 -0.000111668 0.170601)
(0.00156755 0.000173262 0.170249)
(0.00206983 -0.00291422 0.191563)
(0.000282187 0.00108384 0.176321)
(9.19914e-06 0.00449812 0.121395)
(0.00059851 0.0012059 0.181577)
(-0.00202329 -0.00285395 0.19658)
(-0.0014969 0.000265987 0.176977)
(-0.000477518 -1.89902e-05 0.177155)
(-0.0004169 0.000289818 0.169293)
(-0.00011781 0.000273555 0.167504)
(-6.97572e-05 0.000348968 0.165159)
(6.75815e-06 0.00032354 0.165284)
(8.13137e-05 0.000347767 0.165291)
(0.000131048 0.000270947 0.167794)
(0.000422791 0.000286234 0.169667)
(0.000485766 -2.07351e-05 0.177526)
(0.00149484 0.000264698 0.177319)
(0.00202899 -0.00285222 0.196763)
(-0.000586932 0.00119816 0.181834)
(8.71905e-06 0.00466816 0.129814)
(0.00134837 0.00131964 0.186763)
(-0.00197121 -0.00278316 0.201402)
(-0.00142599 0.000358837 0.183697)
(-0.000493887 7.34939e-05 0.183723)
(-0.000422737 0.000397626 0.17635)
(-0.000134643 0.000381655 0.174623)
(-7.60611e-05 0.000461633 0.172351)
(6.77047e-06 0.0004351 0.17247)
(8.77023e-05 0.000460295 0.172482)
(0.000147834 0.000378796 0.174903)
(0.000428818 0.000393701 0.176711)
(0.000502203 7.13981e-05 0.184076)
(0.00142442 0.000357174 0.184022)
(0.00197762 -0.00278169 0.201584)
(-0.00133469 0.00131143 0.18701)
(8.32417e-06 0.00483976 0.13794)
(0.00198176 0.00143046 0.191621)
(-0.00191165 -0.00270518 0.205873)
(-0.00135736 0.000451926 0.190056)
(-0.000505072 0.00016634 0.189926)
(-0.000424651 0.00050709 0.183107)
(-0.000147728 0.00049165 0.181456)
(-8.06977e-05 0.000576317 0.179277)
(6.73241e-06 0.000548691 0.179388)
(9.23182e-05 0.000574848 0.179407)
(0.000160796 0.000488498 0.181724)
(0.000430892 0.000502771 0.183452)
(0.000513469 0.00016383 0.190259)
(0.00135637 0.000449807 0.190362)
(0.00191879 -0.00270402 0.206053)
(-0.0019662 0.00142183 0.191857)
(8.01002e-06 0.00501381 0.145751)
(0.00250708 0.00153643 0.19616)
(-0.00184721 -0.00262047 0.210031)
(-0.00129104 0.000544196 0.196052)
(-0.000511692 0.000258577 0.195768)
(-0.000423013 0.000617442 0.189556)
(-0.000157301 0.000602838 0.187993)
(-8.3763e-05 0.000692442 0.185929)
(6.6563e-06 0.000663724 0.186029)
(9.52813e-05 0.000690837 0.186057)
(0.000170194 0.000599346 0.188246)
(0.000429399 0.000612666 0.189883)
(0.000520187 0.000255561 0.19608)
(0.00129066 0.000541538 0.196338)
(0.00185506 -0.00261965 0.210209)
(-0.00248989 0.00152744 0.196387)
(7.77088e-06 0.00519051 0.153231)
(0.00293389 0.00163598 0.200394)
(-0.00177991 -0.00252917 0.213911)
(-0.00122695 0.00063436 0.201677)
(-0.000514348 0.000349084 0.20125)
(-0.000418232 0.00072761 0.195675)
(-0.000163639 0.000714219 0.194209)
(-8.53744e-05 0.000809146 0.192281)
(6.55478e-06 0.000779315 0.192368)
(9.67347e-05 0.000807388 0.192406)
(0.000176331 0.00071033 0.194447)
(0.000424761 0.00072231 0.195982)
(0.000522962 0.000345484 0.20154)
(0.00122721 0.000631089 0.201944)
(0.00178847 -0.00252873 0.214088)
(-0.0029153 0.00162667 0.200612)
(7.60077e-06 0.00536886 0.160363)
(0.00327232 0.00172918 0.204339)
(-0.0017118 -0.00243247 0.217538)
(-0.00116487 0.000721033 0.206929)
(-0.000513587 0.00043664 0.206371)
(-0.000410743 0.00083615 0.201435)
(-0.000167071 0.000824394 0.200072)
(-8.56791e-05 0.000925138 0.198297)
(6.44078e-06 0.000894159 0.198367)
(9.68513e-05 0.000923202 0.198417)
(0.000179557 0.000820051 0.200293)
(0.000417423 0.000830257 0.201722)
(0.000522341 0.000432401 0.206639)
(0.00116579 0.000717096 0.207176)
(0.00172102 -0.00243239 0.217713)
(-0.00325256 0.00171953 0.204548)
(7.49357e-06 0.00554687 0.167131)
(0.00353265 0.00181644 0.208012)
(-0.00164476 -0.00233166 0.220929)
(-0.00110448 0.000803074 0.211814)
(-0.000509882 0.000520138 0.211136)
(-0.000400975 0.000941321 0.206816)
(-0.00016797 0.000931607 0.205554)
(-8.48519e-05 0.00103869 0.20394)
(6.32681e-06 0.00100652 0.203993)
(9.58309e-05 0.00103655 0.204055)
(0.000180266 0.000926761 0.205759)
(0.000407819 0.000934781 0.207082)
(0.000518796 0.000515232 0.211384)
(0.00110604 0.000798444 0.212042)
(0.00165462 -0.00233195 0.221102)
(-0.00351198 0.00180646 0.208214)
(7.44254e-06 0.00572253 0.173505)
(0.00372489 0.00189776 0.211432)
(-0.00158035 -0.00222753 0.2241)
(-0.0010454 0.00087954 0.216343)
(-0.000503656 0.000598762 0.215558)
(-0.00038932 0.00104146 0.211806)
(-0.000166723 0.001034 0.210639)
(-8.30805e-05 0.00114779 0.209187)
(6.22389e-06 0.00111439 0.20922)
(9.38836e-05 0.00114541 0.209296)
(0.000178859 0.00102863 0.210829)
(0.000396348 0.00103424 0.212052)
(0.00051275 0.000593186 0.215787)
(0.0010476 0.00087422 0.216555)
(0.0015908 -0.00222819 0.224271)
(-0.00370352 0.00188746 0.211627)
(7.43923e-06 0.00588825 0.179433)
(0.00385825 0.00197319 0.214619)
(-0.00151987 -0.00212069 0.227065)
(-0.000987349 0.00094989 0.220533)
(-0.000495319 0.000671972 0.219653)
(-0.000376151 0.0011352 0.216408)
(-0.000163708 0.00113008 0.215327)
(-8.05492e-05 0.00125069 0.214028)
(6.14085e-06 0.00121606 0.214042)
(9.12116e-05 0.00124806 0.214131)
(0.000175726 0.00112419 0.215502)
(0.000383385 0.00112732 0.216637)
(0.000504612 0.000665752 0.219866)
(0.000990175 0.000943907 0.220731)
(0.00153085 -0.00212173 0.227236)
(-0.0038364 0.00196261 0.214807)
(7.47185e-06 0.00603491 0.18486)
(0.00394137 0.0020428 0.217592)
(-0.00146397 -0.00201172 0.22984)
(-0.000930135 0.00101383 0.224404)
(-0.000485281 0.000739545 0.223439)
(-0.000361842 0.00122166 0.220634)
(-0.000159304 0.00121876 0.219626)
(-7.74387e-05 0.00134606 0.218469)
(6.0842e-06 0.0013102 0.218465)
(8.80096e-05 0.00134317 0.218567)
(0.000171256 0.00121238 0.219789)
(0.000369308 0.00121316 0.220848)
(0.000494787 0.000732718 0.223639)
(0.000933571 0.00100723 0.224589)
(0.00147542 -0.00201314 0.230009)
(-0.00391921 0.00203196 0.217774)
(7.52529e-06 0.00617088 0.189752)
(0.00398331 0.00210662 0.220371)
(-0.00141235 -0.00190116 0.23244)
(-0.000873719 0.00107125 0.227974)
(-0.000473949 0.000801415 0.226936)
(-0.00034678 0.00130046 0.224501)
(-0.000153886 0.00129961 0.223553)
(-7.3927e-05 0.00143323 0.222524)
(6.05832e-06 0.00139621 0.222502)
(8.44649e-05 0.0014301 0.222617)
(0.000165827 0.00129279 0.223705)
(0.000354501 0.00129138 0.224701)
(0.000483679 0.000794031 0.227125)
(0.000877744 0.00106407 0.228148)
(0.00142421 -0.00190295 0.232607)
(-0.00396101 0.00209555 0.220547)
(7.58771e-06 0.00630834 0.19416)
(0.00399389 0.00216451 0.222978)
(-0.00136412 -0.00178919 0.234889)
(-0.000818252 0.00112224 0.231262)
(-0.000461746 0.000857679 0.230162)
(-0.000331367 0.00137154 0.228029)
(-0.000147819 0.00137255 0.227128)
(-7.0187e-05 0.00151204 0.226211)
(6.06525e-06 0.00147391 0.226172)
(8.07553e-05 0.00150868 0.226299)
(0.000159807 0.00136533 0.227272)
(0.000339368 0.00136194 0.228218)
(0.000471706 0.000849796 0.230343)
(0.000822837 0.00111455 0.231428)
(0.00137632 -0.00179134 0.235056)
(-0.00397154 0.00215323 0.22315)
(7.65676e-06 0.00644914 0.198212)
(0.00398152 0.0022165 0.225436)
(-0.00131851 -0.00167583 0.237218)
(-0.000764072 0.00116703 0.234286)
(-0.000449109 0.000908571 0.233135)
(-0.000316023 0.00143509 0.23124)
(-0.000141453 0.00143775 0.230375)
(-6.63837e-05 0.00158264 0.229552)
(6.10469e-06 0.00154347 0.229498)
(7.70453e-05 0.00157905 0.229636)
(0.000153542 0.00143019 0.230512)
(0.000324323 0.00142504 0.23142)
(0.000459303 0.000900247 0.23331)
(0.000769188 0.00115889 0.234446)
(0.001331 -0.00167835 0.237384)
(-0.00395919 0.00220502 0.225604)
(7.7331e-06 0.0065816 0.201991)
(0.00395184 0.00226274 0.227768)
(-0.00127545 -0.00156162 0.239442)
(-0.0007116 0.00120594 0.237064)
(-0.000436416 0.000954409 0.235869)
(-0.000301129 0.00149151 0.234157)
(-0.000135091 0.00149565 0.233317)
(-6.26605e-05 0.00164543 0.232571)
(6.17468e-06 0.0016053 0.232504)
(7.34748e-05 0.00164164 0.232652)
(0.000147329 0.00148779 0.233448)
(0.000309739 0.00148106 0.23433)
(0.000446846 0.000945704 0.236039)
(0.000717212 0.0011974 0.237219)
(0.00128819 -0.00156449 0.239607)
(-0.00392959 0.00225108 0.227932)
(7.81445e-06 0.00669196 0.205519)
(0.00390797 0.00230335 0.229991)
(-0.00123493 -0.00144703 0.241568)
(-0.000661183 0.00123943 0.239612)
(-0.000423868 0.000995541 0.238382)
(-0.000286906 0.00154124 0.236807)
(-0.00012893 0.00154669 0.235981)
(-5.91126e-05 0.00170088 0.235297)
(6.27306e-06 0.00165987 0.235217)
(7.01345e-05 0.00169691 0.235374)
(0.00014136 0.00153857 0.236109)
(0.000295834 0.00153046 0.236975)
(0.000434529 0.000986517 0.238549)
(0.000667256 0.00123056 0.239764)
(0.00124786 -0.00145024 0.241732)
(-0.00388586 0.00229153 0.230153)
(7.8965e-06 0.00678626 0.208822)
(0.00385165 0.00233886 0.23212)
(-0.00119636 -0.00133222 0.243601)
(-0.000612716 0.00126825 0.241962)
(-0.000411442 0.00103253 0.240707)
(-0.000273332 0.00158495 0.23923)
(-0.000123033 0.00159153 0.238411)
(-5.57627e-05 0.00174962 0.23777)
(6.39819e-06 0.00170781 0.237681)
(6.70436e-05 0.00174548 0.237845)
(0.000135693 0.0015832 0.238537)
(0.000282579 0.00157389 0.239395)
(0.000422331 0.00102324 0.240872)
(0.000619216 0.00125909 0.242112)
(0.00120945 -0.00133577 0.243765)
(-0.00382975 0.0023269 0.232279)
(7.97362e-06 0.00686966 0.21192)
(0.00378541 0.00236959 0.234161)
(-0.00115896 -0.00121745 0.245548)
(-0.000565546 0.00129312 0.244157)
(-0.000399072 0.00106607 0.242887)
(-0.000260259 0.00162353 0.24148)
(-0.000117395 0.00163113 0.240662)
(-5.25773e-05 0.00179268 0.240051)
(6.54815e-06 0.00175013 0.239955)
(6.41653e-05 0.0017884 0.240125)
(0.000130321 0.00162263 0.240787)
(0.000269831 0.00161224 0.241643)
(0.00041018 0.00105656 0.24305)
(0.000572442 0.00128372 0.244305)
(0.00117214 -0.00122132 0.245711)
(-0.00376377 0.00235749 0.234317)
(8.04297e-06 0.00693951 0.21484)
(0.00371237 0.0023956 0.236121)
(-0.00112201 -0.001103 0.247413)
(-0.000519391 0.00131442 0.246223)
(-0.000386855 0.00109655 0.244948)
(-0.000247719 0.00165758 0.24359)
(-0.000112076 0.00166612 0.242772)
(-4.95564e-05 0.00183082 0.242184)
(6.71978e-06 0.00178759 0.242082)
(6.14938e-05 0.00182641 0.242256)
(0.000125302 0.00165748 0.242896)
(0.000257625 0.0016461 0.243752)
(0.000398173 0.00108687 0.245111)
(0.000526646 0.00130481 0.24637)
(0.00113526 -0.00110719 0.247576)
(-0.00369101 0.00238335 0.236274)
(8.10157e-06 0.0069964 0.217606)
(0.00363509 0.00241708 0.238004)
(-0.0010849 -0.000989121 0.249201)
(-0.000474486 0.00133252 0.248174)
(-0.000374915 0.00112435 0.246905)
(-0.000235836 0.00168764 0.245578)
(-0.00010716 0.00169706 0.244758)
(-4.67326e-05 0.00186457 0.244188)
(6.90952e-06 0.00182071 0.244081)
(5.90545e-05 0.00186004 0.244259)
(0.000120711 0.00168829 0.244882)
(0.000246082 0.00167599 0.245739)
(0.000386434 0.00111455 0.247067)
(0.000482066 0.00132275 0.248322)
(0.00109816 -0.000993634 0.249363)
(-0.00361404 0.0024047 0.238155)
(8.14766e-06 0.00704089 0.220242)
(0.00355568 0.00243433 0.239817)
(-0.00104709 -0.000876064 0.250916)
(-0.000430933 0.00134805 0.250025)
(-0.000363249 0.00114997 0.248767)
(-0.000224607 0.00171435 0.24746)
(-0.000102661 0.00172461 0.246638)
(-4.41056e-05 0.00189464 0.24608)
(7.11519e-06 0.0018502 0.245969)
(5.68426e-05 0.00189001 0.246151)
(0.00011656 0.00171574 0.246762)
(0.000235195 0.00170256 0.247621)
(0.000374964 0.00114007 0.24893)
(0.000438804 0.00133814 0.250173)
(0.00106033 -0.000880882 0.251076)
(-0.00353495 0.00242181 0.239966)
(8.18025e-06 0.00707368 0.222773)
(0.00347584 0.00244763 0.241564)
(-0.00100814 -0.000764049 0.252561)
(-0.000388709 0.00136152 0.251786)
(-0.000351808 0.00117381 0.250547)
(-0.00021397 0.00173832 0.249251)
(-9.85535e-05 0.00174941 0.248425)
(-4.16567e-05 0.00192163 0.247876)
(7.33531e-06 0.00187666 0.247763)
(5.48363e-05 0.00191692 0.247947)
(0.000112819 0.00174045 0.24855)
(0.000224903 0.00172643 0.249412)
(0.000363709 0.00116386 0.250711)
(0.000396837 0.00135151 0.251934)
(0.00102132 -0.000769163 0.252721)
(-0.00345545 0.00243499 0.241711)
(8.19897e-06 0.00709608 0.225223)
(0.00339684 0.00245737 0.24325)
(-0.000967694 -0.000653295 0.25414)
(-0.000347789 0.00137339 0.253468)
(-0.000340532 0.00119626 0.252254)
(-0.000203859 0.00176005 0.250961)
(-9.48115e-05 0.00177192 0.250133)
(-3.9367e-05 0.00194607 0.249589)
(7.56842e-06 0.00190062 0.249474)
(5.30138e-05 0.00194128 0.249659)
(0.000109462 0.0017629 0.250258)
(0.000215139 0.00174807 0.251123)
(0.000352612 0.00118626 0.252419)
(0.000356142 0.00136328 0.253617)
(0.000980788 -0.000658699 0.254298)
(-0.00337681 0.0024446 0.243395)
(8.2043e-06 0.00711009 0.227613)
(0.00331969 0.0024639 0.24488)
(-0.000925515 -0.000544022 0.255656)
(-0.000308136 0.00138407 0.255079)
(-0.000329359 0.00121764 0.253895)
(-0.000194206 0.00177994 0.252601)
(-9.14078e-05 0.00179256 0.251771)
(-3.72195e-05 0.00196833 0.25123)
(7.81317e-06 0.00192245 0.251114)
(5.13551e-05 0.00196348 0.2513)
(0.000106458 0.00178348 0.251896)
(0.000205836 0.0017679 0.252763)
(0.000341611 0.00120762 0.254061)
(0.000316683 0.00137389 0.255229)
(0.00093849 -0.000549707 0.255813)
(-0.00330002 0.002451 0.245022)
(8.19793e-06 0.00711822 0.229954)
(0.00324523 0.00246761 0.246457)
(-0.000881468 -0.00043644 0.257112)
(-0.000269704 0.00139397 0.256628)
(-0.000318228 0.00123825 0.255476)
(-0.000184947 0.00179833 0.254178)
(-8.83128e-05 0.00181163 0.253346)
(-3.51969e-05 0.00198878 0.252808)
(8.06835e-06 0.00194251 0.252691)
(4.98405e-05 0.00198388 0.252878)
(0.000103775 0.00180252 0.253472)
(0.000196928 0.00178624 0.25434)
(0.000330644 0.00122821 0.255643)
(0.000278418 0.00138373 0.256779)
(0.000894297 -0.000442401 0.257268)
(-0.00322591 0.00245457 0.246597)
(8.18168e-06 0.0071226 0.232249)
(0.00317412 0.00246888 0.247984)
(-0.000835527 -0.000330751 0.258511)
(-0.000232443 0.00140348 0.258119)
(-0.00030708 0.00125829 0.257001)
(-0.000176018 0.00181546 0.255698)
(-8.54932e-05 0.00182941 0.254866)
(-3.32808e-05 0.00200771 0.254329)
(8.33293e-06 0.00196108 0.254212)
(4.84494e-05 0.00200276 0.254399)
(0.000101379 0.00182026 0.254992)
(0.00018835 0.00180333 0.255861)
(0.000319653 0.00124824 0.257169)
(0.0002413 0.00139318 0.258271)
(0.000848185 -0.000336983 0.258665)
(-0.00315516 0.00245571 0.248121)
(8.15685e-06 0.00712386 0.234498)
(0.00310689 0.00246809 0.249464)
(-0.000787746 -0.000227134 0.259855)
(-0.000196297 0.00141291 0.259557)
(-0.00029586 0.00127791 0.258474)
(-0.000167353 0.00183154 0.257167)