-0.0075 	373
-0.00715932 	361.455
-0.00676191 	359.656
-0.00629832 	358.932
-0.00575752 	358.483
-0.00512667 	358.128
-0.00439077 	357.807
-0.00353231 	357.495
-0.00253089 	357.173
-0.00136271 	356.825
0 	356.438
0.00136271 	356.014
0.00253089 	355.569
0.00353231 	355.11
0.00439077 	354.623
0.00512667 	354.068
0.00575752 	353.364
0.00629832 	352.322
0.00676191 	350.077
0.00715932 	338.723
0.0075 	313
