/*--------------------------------*- C++ -*----------------------------------*\
| =========                 |                                                 |
| \\      /  F ield         | OpenFOAM: The Open Source CFD Toolbox           |
|  \\    /   O peration     | Version:  v1912                                 |
|   \\  /    A nd           | Website:  www.openfoam.com                      |
|    \\/     M anipulation  |                                                 |
\*---------------------------------------------------------------------------*/
FoamFile
{
    version     2.0;
    format      ascii;
    class       volScalarField;
    location    "96.4";
    object      k;
}
// * * * * * * * * * * * * * * * * * * * * * * * * * * * * * * * * * * * * * //

dimensions      [0 2 -2 0 0 0 0];


internalField   nonuniform List<scalar> 
2000
(
8.04765e-06
6.01967e-05
0.000131431
0.000168977
0.000174884
0.000176913
0.00017488
0.000168981
0.000131452
6.02357e-05
1.40917e-05
0.00029409
0.000481417
0.000559487
0.000579744
0.000585183
0.000579731
0.000559486
0.000481452
0.000294178
3.95509e-05
0.0008054
0.000849418
0.000876179
0.000895455
0.000900835
0.000895442
0.000876161
0.00084942
0.000805425
0.000258096
0.000946843
0.000880734
0.000889154
0.000902638
0.000907502
0.000902627
0.000889129
0.000880723
0.000946796
0.00081658
0.000903309
0.000789123
0.000798601
0.000808399
0.000813316
0.000808389
0.000798578
0.000789109
0.000903235
0.00135799
0.000845869
0.00067983
0.000685206
0.0006932
0.000698071
0.00069319
0.000685184
0.000679809
0.000845785
0.00152789
0.000787654
0.000576269
0.000569013
0.000574314
0.000578603
0.000574304
0.00056899
0.000576236
0.000787563
0.00137198
0.00071615
0.00048554
0.000462154
0.000464033
0.000467188
0.000464024
0.000462131
0.000485497
0.000716056
0.00110056
0.000628573
0.000419813
0.000392432
0.000393237
0.000395144
0.000393234
0.000392419
0.000419777
0.000628491
0.000835915
0.000535712
0.000405473
0.000395996
0.000399895
0.000401023
0.000399903
0.000396004
0.000405466
0.000535661
3.70517e-05
0.000177633
0.00025505
0.000287677
0.000305631
0.000311215
0.000305635
0.000287689
0.000255091
0.000177679
3.67517e-05
0.000517336
0.000654053
0.000723891
0.000764404
0.000775904
0.000764406
0.000723906
0.000654119
0.000517433
0.000196373
0.00098208
0.0010273
0.00107261
0.00111103
0.00112214
0.00111103
0.00107262
0.00102733
0.000982136
0.000563415
0.0011286
0.00109853
0.00112178
0.00115375
0.00116354
0.00115376
0.00112179
0.00109853
0.0011286
0.000967133
0.00111282
0.00105758
0.00106861
0.00109351
0.00110167
0.00109353
0.00106863
0.00105757
0.0011128
0.00122323
0.00101747
0.000967546
0.000972436
0.000990716
0.000997319
0.000990735
0.000972464
0.000967539
0.00101744
0.00121257
0.000886055
0.000854148
0.000855553
0.000868453
0.000873587
0.000868478
0.000855589
0.000854147
0.000886032
0.000987456
0.000742823
0.00072965
0.000728445
0.000736813
0.000740379
0.00073684
0.000728484
0.000729651
0.000742805
0.000725444
0.00059824
0.000597959
0.000596936
0.000602164
0.000604286
0.000602191
0.000596972
0.000597963
0.000598225
0.000505875
0.000464247
0.000472249
0.000473527
0.000477014
0.000478093
0.000477034
0.000473554
0.000472254
0.000464238
3.02655e-05
0.000193341
0.000244736
0.000259667
0.000268945
0.000270534
0.000268947
0.000259675
0.000244761
0.000193402
0.000145396
0.000494368
0.00056993
0.000590909
0.000602371
0.000604249
0.000602363
0.000590906
0.000569964
0.000494466
0.000589926
0.00084807
0.000862362
0.000885641
0.000897864
0.000901669
0.000897852
0.000885626
0.000862378
0.0008481
0.00101258
0.000957006
0.000881428
0.000899293
0.000913034
0.000917827
0.000913022
0.000899275
0.000881423
0.000956964
0.00136701
0.000961372
0.00080246
0.000812264
0.000825747
0.000830764
0.000825737
0.000812244
0.000802439
0.000961279
0.00159457
0.000902323
0.000688865
0.000688757
0.000700061
0.000704892
0.000700052
0.000688736
0.000688832
0.000902207
0.00160938
0.000812162
0.000573514
0.000560663
0.000568464
0.00057275
0.000568456
0.000560641
0.000573471
0.000812047
0.00141878
0.000714894
0.000475325
0.000448327
0.000452589
0.000456014
0.000452582
0.000448306
0.000475278
0.000714789
0.00112595
0.000612618
0.00040983
0.00038046
0.000382921
0.0003853
0.000382919
0.000380448
0.000409793
0.000612534
0.000840851
0.000520297
0.000399329
0.000388369
0.000392741
0.000394312
0.000392748
0.000388376
0.00039932
0.000520248
0.000150264
0.000238065
0.000272242
0.000297848
0.000316697
0.000322363
0.000316698
0.000297857
0.000272269
0.000238113
0.00042971
0.000607263
0.0006781
0.000731081
0.000767667
0.000779154
0.000767663
0.000731088
0.000678143
0.000607349
0.000865498
0.000985987
0.00102512
0.00106773
0.00110035
0.0011112
0.00110034
0.00106773
0.00102515
0.000986026
0.00110095
0.00110603
0.0011
0.00112961
0.00115746
0.00116688
0.00115747
0.00112962
0.0011
0.00110603
0.00125273
0.00111945
0.00107015
0.00108773
0.00111116
0.00111896
0.00111117
0.00108775
0.00107015
0.00111942
0.00129963
0.00104601
0.000982202
0.000990843
0.00100967
0.00101589
0.00100969
0.000990873
0.000982195
0.00104596
0.00120089
0.000909288
0.000859111
0.000863447
0.0008777
0.000882493
0.000877724
0.000863485
0.000859109
0.000909247
0.000962721
0.000746063
0.000725864
0.000728264
0.000737903
0.000741211
0.000737931
0.000728304
0.000725868
0.000746037
0.00068284
0.00058737
0.000593154
0.000595304
0.000601053
0.000602977
0.00060108
0.000595341
0.000593161
0.000587358
0.000462658
0.000452112
0.000469666
0.000472546
0.000475419
0.000476259
0.000475438
0.000472572
0.000469673
0.000452109
8.32286e-05
0.000217832
0.000255545
0.000262416
0.000267703
0.000267602
0.000267698
0.000262417
0.000255558
0.000217887
0.000250415
0.000492763
0.00057816
0.00059246
0.000601995
0.000602929
0.000601978
0.000592449
0.00057818
0.000492855
0.000702118
0.000778617
0.000843299
0.000867472
0.000878365
0.000882102
0.000878348
0.000867456
0.000843316
0.000778659
0.00101047
0.000859239
0.000853889
0.000877628
0.000888528
0.000893218
0.000888513
0.000877609
0.000853893
0.00085922
0.00125434
0.000892147
0.000788268
0.000802197
0.000812467
0.000817059
0.000812455
0.000802176
0.000788254
0.000892075
0.00142717
0.0008886
0.000691757
0.000692139
0.000700934
0.000705141
0.000700925
0.000692116
0.000691725
0.000888493
0.00148453
0.000835904
0.000582628
0.000566378
0.00057272
0.000576286
0.000572712
0.000566355
0.000582583
0.000835785
0.0013794
0.000739863
0.000478456
0.000448423
0.000451893
0.000454634
0.000451886
0.000448401
0.000478408
0.000739752
0.00113104
0.000622262
0.000406136
0.000375243
0.000377412
0.000379282
0.00037741
0.00037523
0.000406101
0.000622176
0.000841136
0.000517635
0.00039436
0.000382956
0.000387404
0.000388737
0.000387411
0.000382963
0.000394353
0.000517589
0.000266665
0.000251186
0.0002742
0.000295288
0.000311511
0.000316762
0.00031151
0.000295289
0.000274217
0.000251219
0.000679205
0.000624945
0.000678279
0.000725945
0.000762528
0.000774509
0.000762522
0.000725944
0.000678307
0.000625001
0.00105973
0.000990528
0.00102921
0.00107128
0.00110531
0.00111714
0.0011053
0.00107128
0.00102922
0.000990547
0.00118695
0.00108612
0.00109839
0.00113302
0.00116172
0.00117212
0.00116172
0.00113303
0.00109839
0.00108611
0.00120974
0.00107517
0.00106192
0.00108818
0.00111145
0.00111994
0.00111146
0.0010882
0.00106192
0.00107513
0.00115504
0.00100018
0.000971626
0.000989929
0.00100837
0.00101496
0.00100838
0.00098996
0.000971623
0.00100013
0.0010215
0.000880624
0.000852549
0.000864291
0.00087848
0.000883376
0.000878504
0.000864329
0.00085255
0.000880584
0.000819386
0.000734799
0.000722654
0.000729742
0.0007397
0.00074304
0.000739728
0.000729783
0.000722659
0.000734771
0.000599483
0.000583727
0.000591556
0.000596421
0.00060233
0.000604272
0.000602357
0.000596458
0.000591564
0.000583713
0.000420308
0.000449982
0.000469389
0.000473472
0.000475904
0.000476746
0.000475924
0.000473499
0.000469397
0.000449979
8.89126e-05
0.000236151
0.000274436
0.000278501
0.000281798
0.000281374
0.000281791
0.000278495
0.000274439
0.000236186
0.000132667
0.000499326
0.000594439
0.000603092
0.000608616
0.000608177
0.000608598
0.000603075
0.000594448
0.000499397
0.000425576
0.000736716
0.000833893
0.000859183
0.000868815
0.000871527
0.0008688
0.000859168
0.000833914
0.000736768
0.000687313
0.000798043
0.000840967
0.000867918
0.000879233
0.000883627
0.000879221
0.000867901
0.000840982
0.000798048
0.00095727
0.000840303
0.000781603
0.000799361
0.000810057
0.000814911
0.000810047
0.000799342
0.000781596
0.000840251
0.00118937
0.000859732
0.000694304
0.000695651
0.000703894
0.0007083
0.000703885
0.000695629
0.000694275
0.000859637
0.00132718
0.000828937
0.000586658
0.000570109
0.000575257
0.00057887
0.00057525
0.000570085
0.000586613
0.000828822
0.00130698
0.000742288
0.000477879
0.000447622
0.00045003
0.000452722
0.000450023
0.0004476
0.00047783
0.000742177
0.00110931
0.000621556
0.000400043
0.00036998
0.000371805
0.000373633
0.000371802
0.000369967
0.000400008
0.00062147
0.00083101
0.000511544
0.000387264
0.000377362
0.000382108
0.000383447
0.000382115
0.000377367
0.000387258
0.000511499
0.000319407
0.000234526
0.000256789
0.000276101
0.000291415
0.000296675
0.000291412
0.000276099
0.000256805
0.000234557
0.000897033
0.000621217
0.000663198
0.000704791
0.000740018
0.000751953
0.000740011
0.000704787
0.000663228
0.000621276
0.00131261
0.000988124
0.00101477
0.00105469
0.0010888
0.00110088
0.0010888
0.0010547
0.00101479
0.00098815
0.00136002
0.00104024
0.00106764
0.00110766
0.00113703
0.00114791
0.00113703
0.00110768
0.00106766
0.00104024
0.00123724
0.000989281
0.00101964
0.00105704
0.00108156
0.00109073
0.00108157
0.00105706
0.00101966
0.000989271
0.0010423
0.000906207
0.000936439
0.000966561
0.000986453
0.000993711
0.000986471
0.000966595
0.000936449
0.000906192
0.000829382
0.000810056
0.000834535
0.000855108
0.000870404
0.000875796
0.000870428
0.000855147
0.000834543
0.000810038
0.000642645
0.000700251
0.000717389
0.000729723
0.000740351
0.000743983
0.000740378
0.000729764
0.000717395
0.000700232
0.000499749
0.000576121
0.000592194
0.000599512
0.000605683
0.000607741
0.00060571
0.00059955
0.000592202
0.000576107
0.000381551
0.00045167
0.000472263
0.000477225
0.000479504
0.000480311
0.000479525
0.000477253
0.000472272
0.000451666
0.000106674
0.000247164
0.000292123
0.000299981
0.000305721
0.000306702
0.000305714
0.000299977
0.000292128
0.000247197
0.000106757
0.000509354
0.000620695
0.000631968
0.000636242
0.000635961
0.000636223
0.000631953
0.000620702
0.000509424
0.000189976
0.000739581
0.000863542
0.000888448
0.000899188
0.000901309
0.000899174
0.000888435
0.00086356
0.000739646
0.000353481
0.00081373
0.000871519
0.000897164
0.000910255
0.000914258
0.000910245
0.000897151
0.000871532
0.000813741
0.00068902
0.000851934
0.000805778
0.000822813
0.000834391
0.0008393
0.000834383
0.000822797
0.000805773
0.000851882
0.00103104
0.000852221
0.000700826
0.000704595
0.000712812
0.000717601
0.000712806
0.000704576
0.000700803
0.000852124
0.00125261
0.000805049
0.000580317
0.00056814
0.000572849
0.000576923
0.000572842
0.000568117
0.000580278
0.000804937
0.00126173
0.000714761
0.000468519
0.000442787
0.000444873
0.000447967
0.000444866
0.000442764
0.000468475
0.000714655
0.00107246
0.000601809
0.000392755
0.000366196
0.000368061
0.000370167
0.000368058
0.000366182
0.000392721
0.000601728
0.000813134
0.000502625
0.000382339
0.00037453
0.000379602
0.000381091
0.000379608
0.000374536
0.000382334
0.000502582
0.000156809
0.000118688
0.000157036
0.000186081
0.000202196
0.00020716
0.000202193
0.000186081
0.000157057
0.000118732
0.000879071
0.000468093
0.000499955
0.000542959
0.000581136
0.000593579
0.00058113
0.000542952
0.000499983
0.000468164
0.001368
0.000861782
0.000892518
0.000935439
0.000968137
0.000979452
0.000968136
0.000935443
0.000892546
0.000861846
0.00152171
0.000923238
0.000977901
0.00102431
0.00105349
0.00106342
0.0010535
0.00102433
0.000977929
0.000923296
0.00133322
0.000903266
0.000969277
0.00101111
0.00103709
0.00104571
0.0010371
0.00101113
0.0009693
0.000903308
0.00102025
0.000852872
0.000918058
0.000950765
0.000972386
0.000979563
0.000972403
0.000950799
0.000918073
0.000852894
0.000732877
0.00078561
0.000833653
0.000855133
0.000871131
0.000876594
0.000871155
0.000855172
0.000833661
0.000785609
0.000552181
0.00069581
0.000721525
0.000733919
0.000744463
0.000748131
0.00074449
0.00073396
0.000721532
0.000695794
0.000453389
0.000579676
0.000596236
0.000603591
0.000609592
0.000611609
0.000609619
0.000603629
0.000596245
0.000579658
0.000366262
0.000455386
0.000476083
0.000481045
0.00048337
0.000484087
0.00048339
0.000481074
0.000476092
0.00045538
0.000625357
0.000480584
0.000460878
0.000478574
0.000487672
0.000488856
0.000487688
0.000478598
0.000460902
0.000480574
0.000517272
0.000504892
0.000566706
0.000602734
0.000616074
0.000617857
0.000616091
0.000602762
0.000566749
0.000504913
0.000525875
0.000596522
0.000695652
0.000741557
0.00075787
0.000760472
0.000757882
0.00074158
0.000695703
0.000596559
0.000623574
0.000726731
0.000829293
0.000877603
0.000894723
0.000897989
0.000894727
0.000877617
0.000829344
0.00072677
0.000753078
0.000844515
0.000928494
0.000971773
0.000986694
0.000990023
0.00098669
0.000971775
0.000928534
0.000844546
0.000841311
0.000894494
0.000949074
0.000983063
0.000994001
0.000996966
0.000993991
0.000983054
0.000949096
0.000894512
0.000836245
0.000843528
0.000867322
0.000890096
0.000896048
0.000898284
0.000896035
0.000890078
0.00086732
0.000843532
0.000692791
0.000659565
0.000651422
0.000662305
0.000662863
0.000663646
0.000662848
0.000662282
0.000651399
0.00065956
0.000129254
0.000115194
0.000109174
0.000112203
0.000112408
0.000112485
0.000112405
0.000112199
0.00010917
0.000115193
6.21507e-05
5.95735e-05
5.84652e-05
6.01107e-05
6.06964e-05
6.0838e-05
6.06958e-05
6.01105e-05
5.84655e-05
5.95743e-05
0.000384839
0.00038226
0.000394232
0.000399031
0.000402158
0.000403141
0.000402163
0.000399039
0.000394236
0.000382265
0.000391271
0.000401042
0.000413553
0.000423723
0.000428602
0.000430825
0.000428591
0.000423714
0.000413554
0.000401064
0.00048981
0.000501469
0.00051644
0.000533625
0.000541583
0.000545665
0.000541567
0.000533611
0.000516441
0.000501503
0.000630475
0.000639305
0.000655798
0.000677794
0.000688228
0.000694115
0.000688215
0.000677783
0.000655798
0.000639341
0.000767064
0.000766256
0.000783495
0.00080807
0.000820437
0.00082786
0.000820431
0.000808065
0.000783493
0.000766288
0.000860189
0.000852765
0.000872581
0.0008996
0.000914923
0.000923791
0.000914924
0.000899604
0.000872578
0.000852792
0.000884228
0.000874876
0.000900815
0.000931632
0.000950467
0.000960105
0.000950477
0.000931647
0.000900819
0.000874899
0.000766322
0.000762204
0.000797124
0.000829942
0.00085126
0.000860276
0.000851278
0.000829969
0.000797137
0.000762224
0.000120196
0.000113768
0.000131825
0.000143609
0.000151089
0.00015488
0.000151102
0.000143625
0.000131828
0.000113772
3.35386e-05
3.21762e-05
3.5497e-05
3.82001e-05
3.98533e-05
4.05967e-05
3.9856e-05
3.82037e-05
3.54985e-05
3.21771e-05
0.000625892
0.000478321
0.00046097
0.000477733
0.000486321
0.000487672
0.000486337
0.000477756
0.000460994
0.000478314
0.00052711
0.000517225
0.000572852
0.000608356
0.000620457
0.00062208
0.000620475
0.000608384
0.000572894
0.000517248
0.000543578
0.000612089
0.000699854
0.000744033
0.000758435
0.000760642
0.00075845
0.000744057
0.000699903
0.000612124
0.0006276
0.000722775
0.000813715
0.000858808
0.000874249
0.000876987
0.000874257
0.000858823
0.000813763
0.000722809
0.000724152
0.000810377
0.000887321
0.000927734
0.000942692
0.000945543
0.00094269
0.000927735
0.000887362
0.000810404
0.000803033
0.000861563
0.000917287
0.000949678
0.000962154
0.00096381
0.000962136
0.000949662
0.000917317
0.000861579
0.000832818
0.000857432
0.000889887
0.000912908
0.000922998
0.000923868
0.000922969
0.000912882
0.000889898
0.000857439
0.000747625
0.000728908
0.000736643
0.000745299
0.000750364
0.000750804
0.000750331
0.000745264
0.000736628
0.000728902
0.000105044
9.79709e-05
0.000105838
0.00010763
0.000110132
0.000110993
0.000110128
0.000107628
0.000105833
9.79685e-05
2.13917e-05
1.97515e-05
2.22169e-05
2.33313e-05
2.42234e-05
2.46351e-05
2.42238e-05
2.33322e-05
2.22161e-05
1.97512e-05
0.000360553
0.000376174
0.00039315
0.000397881
0.000399609
0.000400307
0.000399614
0.000397889
0.000393154
0.000376183
0.000385172
0.000396368
0.000408922
0.00041827
0.000421784
0.000423745
0.000421773
0.000418262
0.000408923
0.000396392
0.000480854
0.000485383
0.00049582
0.000510823
0.000517715
0.000521412
0.000517698
0.000510809
0.000495821
0.000485417
0.000600616
0.00059989
0.00060893
0.000627434
0.000637212
0.000642216
0.000637195
0.00062742
0.00060893
0.000599927
0.000724794
0.000720976
0.000729605
0.000750203
0.000762114
0.00076775
0.000762097
0.000750191
0.000729606
0.000721013
0.000848567
0.000846149
0.000854488
0.000877264
0.000891475
0.000897438
0.000891461
0.000877253
0.000854493
0.000846182
0.000948359
0.000953561
0.000965467
0.000992478
0.00100998
0.00101636
0.00100997
0.000992471
0.00096548
0.000953589
0.000883348
0.000892232
0.000921395
0.000953317
0.000975532
0.000982104
0.000975533
0.000953327
0.000921419
0.000892251
0.000135204
0.000138602
0.000153215
0.000162568
0.00017206
0.000174368
0.000172064
0.000162579
0.000153226
0.000138608
2.256e-05
2.28395e-05
2.61411e-05
2.80363e-05
2.98996e-05
3.04441e-05
2.9901e-05
2.80392e-05
2.61431e-05
2.28403e-05
0.000622933
0.000475186
0.000458946
0.000475276
0.000483909
0.000485262
0.000483924
0.000475298
0.00045897
0.000475181
0.000529001
0.000515975
0.000570635
0.000605127
0.000616836
0.000618504
0.000616854
0.000605154
0.000570676
0.000516
0.000545162
0.000609041
0.000694103
0.000736446
0.000749807
0.00075192
0.000749822
0.00073647
0.00069415
0.000609076
0.000634841
0.000727425
0.000814972
0.000858103
0.00087201
0.000874558
0.000872018
0.000858116
0.000815018
0.000727458
0.000761433
0.000851056
0.000925463
0.000966207
0.000980033
0.000982733
0.000980029
0.000966204
0.000925504
0.000851081
0.000884055
0.000959887
0.00101041
0.00104686
0.00105979
0.00106242
0.00105977
0.00104684
0.00101044
0.000959902
0.000950008
0.000995421
0.00102265
0.0010534
0.00106454
0.0010668
0.00106451
0.00105336
0.00102267
0.000995426
0.000822999
0.000828982
0.000843404
0.000862446
0.000871092
0.000872948
0.000871065
0.000862413
0.000843404
0.000828977
0.000125031
0.000124643
0.000128115
0.000130947
0.0001335
0.000133819
0.000133493
0.000130941
0.000128114
0.000124641
1.92542e-05
1.86152e-05
1.98481e-05
2.03348e-05
2.0973e-05
2.11338e-05
2.09726e-05
2.03347e-05
1.98479e-05
1.8615e-05
0.000340977
0.000373811
0.000392907
0.000397441
0.000398207
0.000398876
0.000398212
0.00039745
0.000392911
0.000373822
0.00037662
0.000392386
0.000406768
0.000415171
0.000417807
0.000419754
0.000417797
0.000415163
0.000406769
0.000392411
0.000479541
0.000484533
0.000496373
0.000510394
0.000516816
0.000520474
0.000516798
0.00051038
0.000496374
0.000484568
0.000611738
0.00061407
0.000622099
0.000640168
0.000649842
0.0006547
0.000649822
0.000640152
0.0006221
0.00061411
0.000753712
0.00075538
0.00075936
0.000781709
0.000794079
0.000799608
0.000794061
0.000781694
0.000759362
0.00075542
0.000889383
0.000893378
0.000896595
0.000924441
0.000939567
0.000945813
0.000939553
0.000924427
0.000896601
0.000893415
0.000976179
0.000984785
0.000998372
0.00103286
0.00105231
0.00105983
0.00105231
0.00103285
0.000998383
0.000984814
0.000874352
0.000889748
0.000922816
0.000961703
0.000986604
0.000994643
0.000986613
0.000961717
0.00092284
0.000889767
0.000138463
0.000146012
0.000157405
0.000170899
0.000180534
0.000182793
0.000180538
0.000170906
0.000157417
0.000146017
2.31958e-05
2.43922e-05
2.66969e-05
2.88294e-05
3.05698e-05
3.09541e-05
3.05707e-05
2.88312e-05
2.66992e-05
2.4393e-05
0.000618856
0.000471299
0.000455648
0.000472677
0.000481855
0.000483253
0.00048187
0.000472699
0.000455672
0.000471297
0.000533889
0.000517862
0.000571209
0.000604754
0.000616856
0.00061851
0.000616872
0.00060478
0.00057125
0.000517887
0.000557287
0.000617861
0.0006987
0.000738456
0.000751625
0.000753569
0.000751638
0.000738478
0.000698744
0.000617896
0.000658788
0.000748097
0.000831196
0.000872855
0.000886148
0.000888535
0.000886155
0.000872866
0.000831239
0.000748129
0.00080425
0.000897184
0.000971094
0.00101184
0.00102481
0.00102801
0.00102481
0.00101183
0.000971131
0.000897208
0.000954171
0.00103137
0.00108934
0.00112768
0.00114035
0.00114462
0.00114034
0.00112767
0.00108937
0.00103138
0.0010182
0.00106591
0.00110821
0.00114141
0.0011535
0.00115826
0.00115348
0.00114139
0.00110822
0.00106591
0.000851696
0.000864545
0.000887676
0.00090926
0.000918444
0.000921862
0.000918422
0.000909231
0.000887673
0.000864535
0.00013032
0.000131345
0.000134715
0.000138846
0.000140838
0.00014133
0.000140832
0.000138838
0.000134711
0.000131342
1.8749e-05
1.84028e-05
1.90289e-05
1.96913e-05
2.01671e-05
2.02575e-05
2.01663e-05
1.96905e-05
1.90283e-05
1.84025e-05
0.000323249
0.000375584
0.000396265
0.00039988
0.000399913
0.000400384
0.000399919
0.000399889
0.000396269
0.000375595
0.000369359
0.000395715
0.000410841
0.000416554
0.000418058
0.000419771
0.000418047
0.000416545
0.00041084
0.00039574
0.000488964
0.000499722
0.000513324
0.000525477
0.000531142
0.000534769
0.000531123
0.000525462
0.000513324
0.000499758
0.000649185
0.000657873
0.000670772
0.000690145
0.000700006
0.000705121
0.000699987
0.000690129
0.000670776
0.000657914
0.000815645
0.000824638
0.000834638
0.000859787
0.000873281
0.000879541
0.000873266
0.000859774
0.000834646
0.000824679
0.000943378
0.00095134
0.000959508
0.000990067
0.00100715
0.00101452
0.00100714
0.000990059
0.000959518
0.000951377
0.000981387
0.000990532
0.00100559
0.00104154
0.00106301
0.00107138
0.00106301
0.00104154
0.00100561
0.000990563
0.000841269
0.000857449
0.00088537
0.000923894
0.000948873
0.000957148
0.000948884
0.000923912
0.000885394
0.00085747
0.000140281
0.000149487
0.000159294
0.000173538
0.000183206
0.000185721
0.00018321
0.000173545
0.000159306
0.000149492
2.51156e-05
2.69177e-05
2.90668e-05
3.16099e-05
3.34696e-05
3.39349e-05
3.34705e-05
3.16114e-05
2.9069e-05
2.69183e-05
0.000617268
0.00046921
0.000453528
0.000471619
0.000481337
0.000482836
0.000481351
0.000471641
0.000453552
0.000469208
0.00054411
0.000523145
0.000576755
0.000611047
0.000624014
0.000625802
0.000624029
0.000611072
0.000576796
0.00052317
0.000578948
0.000635822
0.000716866
0.000757408
0.000771493
0.000773532
0.000771504
0.000757428
0.000716912
0.000635859
0.000684296
0.000770988
0.000852588
0.000894875
0.000908645
0.000911086
0.000908651
0.000894885
0.000852633
0.000771021
0.000812738
0.000896912
0.000970214
0.00101105
0.00102385
0.00102724
0.00102385
0.00101105
0.00097025
0.000896936
0.000933524
0.000999889
0.00106359
0.00110127
0.00111298
0.00111769
0.00111297
0.00110126
0.00106362
0.000999902
0.0010001
0.0010419
0.00109433
0.00112485
0.00113447
0.00113958
0.00113446
0.00112483
0.00109434
0.0010419
0.000865062
0.000878808
0.000906393
0.000922594
0.00092724
0.000930179
0.000927217
0.000922565
0.000906382
0.000878796
0.000123555
0.000122915
0.000126491
0.000129481
0.000129934
0.000130393
0.000129928
0.000129473
0.000126484
0.000122914
1.63824e-05
1.59587e-05
1.64224e-05
1.73148e-05
1.77304e-05
1.78514e-05
1.77296e-05
1.73138e-05
1.64214e-05
1.59587e-05
0.000312034
0.000377661
0.000400321
0.000403472
0.000403592
0.00040392
0.000403598
0.000403481
0.000400325
0.000377671
0.000359987
0.000399998
0.000416079
0.000420209
0.000421315
0.000422795
0.000421305
0.000420199
0.000416077
0.000400025
0.000483249
0.000505101
0.000519768
0.000530659
0.000535818
0.000539371
0.000535802
0.000530644
0.000519764
0.000505137
0.000652491
0.000668908
0.000688896
0.000709115
0.000719532
0.000725388
0.000719518
0.000709102
0.000688897
0.00066895
0.000846624
0.000868866
0.000894665
0.000921918
0.000937053
0.000944842
0.000937043
0.00092191
0.000894674
0.000868907
0.00102929
0.00105801
0.00108309
0.00111254
0.00113083
0.00113931
0.00113082
0.00111253
0.00108311
0.00105804
0.00112367
0.00115183
0.00116988
0.00119873
0.00121892
0.00122678
0.00121892
0.00119874
0.0011699
0.00115185
0.00101828
0.00103501
0.0010452
0.00107558
0.00109783
0.0011051
0.00109784
0.00107559
0.00104523
0.00103502
0.000296893
0.000309811
0.000312455
0.00032386
0.000334262
0.000337589
0.000334267
0.000323866
0.000312474
0.000309812
8.73133e-05
9.3719e-05
9.89998e-05
0.000102508
0.000105548
0.000106586
0.00010555
0.000102511
9.90045e-05
9.37198e-05
)
;

boundaryField
{
    leftWall
    {
        type            kqRWallFunction;
        value           nonuniform List<scalar> 
100
(
8.04765e-06
3.70517e-05
3.02655e-05
0.000150264
8.32286e-05
0.000266665
8.89126e-05
0.000319407
0.000106674
0.000156809
6.01967e-05
0.000177633
0.000193341
0.000238065
0.000217832
0.000251186
0.000236151
0.000234526
0.000247164
0.000118688
0.000131431
0.00025505
0.000244736
0.000272242
0.000255545
0.0002742
0.000274436
0.000256789
0.000292123
0.000157036
0.000168977
0.000287677
0.000259667
0.000297848
0.000262416
0.000295288
0.000278501
0.000276101
0.000299981
0.000186081
0.000174884
0.000305631
0.000268945
0.000316697
0.000267703
0.000311511
0.000281798
0.000291415
0.000305721
0.000202196
0.000176913
0.000311215
0.000270534
0.000322363
0.000267602
0.000316762
0.000281374
0.000296675
0.000306702
0.00020716
0.00017488
0.000305635
0.000268947
0.000316698
0.000267698
0.00031151
0.000281791
0.000291412
0.000305714
0.000202193
0.000168981
0.000287689
0.000259675
0.000297857
0.000262417
0.000295289
0.000278495
0.000276099
0.000299977
0.000186081
0.000131452
0.000255091
0.000244761
0.000272269
0.000255558
0.000274217
0.000274439
0.000256805
0.000292128
0.000157057
6.02357e-05
0.000177679
0.000193402
0.000238113
0.000217887
0.000251219
0.000236186
0.000234557
0.000247197
0.000118732
)
;
    }
    rightWall
    {
        type            kqRWallFunction;
        value           nonuniform List<scalar> 
100
(
6.21507e-05
3.35386e-05
2.13917e-05
2.256e-05
1.92542e-05
2.31958e-05
1.8749e-05
2.51156e-05
1.63824e-05
8.73133e-05
5.95735e-05
3.21762e-05
1.97515e-05
2.28395e-05
1.86152e-05
2.43922e-05
1.84028e-05
2.69177e-05
1.59587e-05
9.3719e-05
5.84652e-05
3.5497e-05
2.22169e-05
2.61411e-05
1.98481e-05
2.66969e-05
1.90289e-05
2.90668e-05
1.64224e-05
9.89998e-05
6.01107e-05
3.82001e-05
2.33313e-05
2.80363e-05
2.03348e-05
2.88294e-05
1.96913e-05
3.16099e-05
1.73148e-05
0.000102508
6.06964e-05
3.98533e-05
2.42234e-05
2.98996e-05
2.0973e-05
3.05698e-05
2.01671e-05
3.34696e-05
1.77304e-05
0.000105548
6.0838e-05
4.05967e-05
2.46351e-05
3.04441e-05
2.11338e-05
3.09541e-05
2.02575e-05
3.39349e-05
1.78514e-05
0.000106586
6.06958e-05
3.9856e-05
2.42238e-05
2.9901e-05
2.09726e-05
3.05707e-05
2.01663e-05
3.34705e-05
1.77296e-05
0.00010555
6.01105e-05
3.82037e-05
2.33322e-05
2.80392e-05
2.03347e-05
2.88312e-05
1.96905e-05
3.16114e-05
1.73138e-05
0.000102511
5.84655e-05
3.54985e-05
2.22161e-05
2.61431e-05
1.98479e-05
2.66992e-05
1.90283e-05
2.9069e-05
1.64214e-05
9.90045e-05
5.95743e-05
3.21771e-05
1.97512e-05
2.28403e-05
1.8615e-05
2.4393e-05
1.84025e-05
2.69183e-05
1.59587e-05
9.37198e-05
)
;
    }
    leftSides_periodic0
    {
        type            cyclic;
    }
    leftSides_periodic1
    {
        type            cyclic;
    }
    rightSides_periodic0
    {
        type            cyclic;
    }
    rightSides_periodic1
    {
        type            cyclic;
    }
    leftInOut_periodic0
    {
        type            cyclic;
    }
    leftInOut_periodic1
    {
        type            cyclic;
    }
    rightInOut_periodic0
    {
        type            cyclic;
    }
    rightInOut_periodic1
    {
        type            cyclic;
    }
}


// ************************************************************************* //
