-0.0075 	0 	0 	0
-0.00715932 	-0.000206558 	-3.91735e-05 	0.139761
-0.00676191 	-0.000327137 	-0.000116281 	0.220305
-0.00629832 	-0.000356901 	-0.000211852 	0.270071
-0.00575752 	-0.000334805 	-0.000306827 	0.303624
-0.00512667 	-0.000295974 	-0.000390737 	0.328841
-0.00439077 	-0.000259636 	-0.000457189 	0.348663
-0.00353231 	-0.000232234 	-0.000508767 	0.364021
-0.00253089 	-0.000211515 	-0.000550223 	0.37502
-0.00136271 	-0.000193003 	-0.000579977 	0.38148
0 	-0.000175387 	-0.000591789 	0.38294
0.00136271 	-0.000160905 	-0.000580381 	0.37891
0.00253089 	-0.000152729 	-0.000545776 	0.369658
0.00353231 	-0.00015459 	-0.000493305 	0.355836
0.00439077 	-0.00017082 	-0.000421743 	0.337445
0.00512667 	-0.000203257 	-0.000324886 	0.313258
0.00575752 	-0.00024505 	-0.000205478 	0.280373
0.00629832 	-0.00027215 	-8.48732e-05 	0.233584
0.00676191 	-0.000238271 	-4.25673e-06 	0.162445
0.00715932 	-0.000125124 	1.2658e-05 	0.0726253
0.0075 	0 	0 	0
