0 	0 	0 	0
5.01672e-05 	-0.000256628 	-3.48711e-06 	0.0161348
0.000100334 	-0.000342394 	-6.52027e-06 	0.0312467
0.000150502 	-0.000395142 	-1.01732e-05 	0.0451745
0.000200669 	-0.00047672 	-1.47988e-05 	0.057997
0.000250836 	-0.000582636 	-1.98091e-05 	0.0698307
0.000301003 	-0.000701702 	-2.556e-05 	0.0807893
0.000351171 	-0.00082881 	-3.1897e-05 	0.0909644
0.000401338 	-0.000960718 	-3.87966e-05 	0.100418
0.000451505 	-0.00109488 	-4.62162e-05 	0.109194
0.000501672 	-0.00122933 	-5.41372e-05 	0.117324
0.000551839 	-0.0013627 	-6.25602e-05 	0.124844
0.000602007 	-0.0014942 	-7.1445e-05 	0.131798
0.000652174 	-0.00162339 	-8.06965e-05 	0.138235
0.000702341 	-0.00175004 	-9.02567e-05 	0.144207
0.000752508 	-0.00187397 	-0.000100163 	0.149764
0.000802676 	-0.00199491 	-0.000110471 	0.154943
0.000852843 	-0.00211201 	-0.000121194 	0.159734
0.00090301 	-0.00222558 	-0.000132161 	0.164227
0.000953177 	-0.00233552 	-0.000143294 	0.168453
0.00100334 	-0.00244179 	-0.000154562 	0.172437
0.00105351 	-0.00254438 	-0.000165951 	0.176203
0.00110368 	-0.00264326 	-0.000177445 	0.179766
0.00115385 	-0.00273734 	-0.000189015 	0.183096
0.00120401 	-0.00282782 	-0.000200602 	0.186268
0.00125418 	-0.00291479 	-0.000212185 	0.189296
0.00130435 	-0.00299838 	-0.000223748 	0.192193
0.00135452 	-0.00307757 	-0.00023525 	0.194932
0.00140468 	-0.00315298 	-0.000246674 	0.197548
0.00145485 	-0.00322528 	-0.000258018 	0.200068
0.00150502 	-0.0032946 	-0.000269276 	0.202499
0.00155518 	-0.00335924 	-0.000280344 	0.2048
0.00160535 	-0.00342095 	-0.00029124 	0.207027
0.00165552 	-0.00348 	-0.000301965 	0.209187
0.00170569 	-0.00353522 	-0.000312395 	0.211255
0.00175585 	-0.0035872 	-0.000322558 	0.213246
0.00180602 	-0.00363688 	-0.000332559 	0.215186
0.00185619 	-0.0036832 	-0.000342368 	0.21705
0.00190635 	-0.00372641 	-0.000352181 	0.21885
0.00195652 	-0.00376763 	-0.000362047 	0.220612
0.00200669 	-0.00380519 	-0.00037216 	0.22231
0.00205686 	-0.00383985 	-0.000382545 	0.223969
0.00210702 	-0.00387258 	-0.000393109 	0.225603
0.00215719 	-0.00390009 	-0.000403911 	0.227188
0.00220736 	-0.00392545 	-0.000414088 	0.228754
0.00225753 	-0.00394738 	-0.000423265 	0.230291
0.00230769 	-0.00396558 	-0.000430474 	0.23178
0.00235786 	-0.00398223 	-0.000436904 	0.233249
0.00240803 	-0.00399508 	-0.000442246 	0.234628
0.00245819 	-0.00400694 	-0.000447597 	0.23597
0.00250836 	-0.00401679 	-0.000452965 	0.23724
0.00255853 	-0.00402517 	-0.000459117 	0.238449
0.0026087 	-0.0040325 	-0.000465827 	0.239615
0.00265886 	-0.00403753 	-0.000474463 	0.240713
0.00270903 	-0.00404202 	-0.000483557 	0.241794
0.0027592 	-0.00404232 	-0.000496453 	0.242823
0.00280936 	-0.00404154 	-0.000509814 	0.243854
0.00285953 	-0.00403507 	-0.000525639 	0.244891
0.0029097 	-0.00402599 	-0.000539874 	0.245946
0.00295987 	-0.00401036 	-0.000550107 	0.247045
0.00301003 	-0.00399173 	-0.00055676 	0.248155
0.0030602 	-0.00396815 	-0.000557485 	0.249283
0.00311037 	-0.00394285 	-0.000557615 	0.250382
0.00316054 	-0.00391529 	-0.000556972 	0.251441
0.0032107 	-0.00388683 	-0.000559096 	0.252446
0.00326087 	-0.00385732 	-0.000564498 	0.253388
0.00331104 	-0.00382668 	-0.000572211 	0.254287
0.0033612 	-0.00379464 	-0.000582799 	0.255133
0.00341137 	-0.00376125 	-0.000593135 	0.255954
0.00346154 	-0.00372583 	-0.000603089 	0.256736
0.00351171 	-0.00368955 	-0.000612028 	0.257505
0.00356187 	-0.0036514 	-0.000618736 	0.258242
0.00361204 	-0.00361304 	-0.000625268 	0.258971
0.00366221 	-0.00357377 	-0.000631051 	0.259667
0.00371237 	-0.00353448 	-0.000636841 	0.260363
0.00376254 	-0.00349485 	-0.000642836 	0.26102
0.00381271 	-0.00345522 	-0.000648831 	0.261677
0.00386288 	-0.00341524 	-0.000654816 	0.262303
0.00391304 	-0.00337519 	-0.0006608 	0.262923
0.00396321 	-0.00333471 	-0.000666877 	0.263521
0.00401338 	-0.00329395 	-0.000673019 	0.264104
0.00406355 	-0.00325283 	-0.00067922 	0.264676
0.00411371 	-0.00321094 	-0.000685552 	0.265224
0.00416388 	-0.00316905 	-0.000691885 	0.265772
0.00421405 	-0.00312574 	-0.000698193 	0.266286
0.00426421 	-0.00308242 	-0.000704501 	0.2668
0.00431438 	-0.00303816 	-0.000710629 	0.267294
0.00436455 	-0.00299336 	-0.000716654 	0.267775
0.00441472 	-0.00294826 	-0.000722603 	0.268248
0.00446488 	-0.00290216 	-0.000728299 	0.268697
0.00451505 	-0.00285606 	-0.000733995 	0.269146
0.00456522 	-0.00280919 	-0.000739507 	0.26957
0.00461538 	-0.00276209 	-0.000744968 	0.269987
0.00466555 	-0.00271478 	-0.000750388 	0.270394
0.00471572 	-0.00266694 	-0.000755706 	0.270779
0.00476589 	-0.0026191 	-0.000761024 	0.271164
0.00481605 	-0.00257077 	-0.000766221 	0.271524
0.00486622 	-0.00252228 	-0.000771379 	0.271876
0.00491639 	-0.00247368 	-0.000776499 	0.272223
0.00496656 	-0.00242455 	-0.000781443 	0.272542
0.00501672 	-0.00237543 	-0.000786388 	0.272862
0.00506689 	-0.00232596 	-0.000791259 	0.273165
0.00511706 	-0.00227621 	-0.000796071 	0.273454
0.00516722 	-0.00222646 	-0.000800882 	0.273742
0.00521739 	-0.00217623 	-0.000805636 	0.274006
0.00526756 	-0.00212593 	-0.000810381 	0.274267
0.00531773 	-0.00207556 	-0.000815101 	0.274523
0.00536789 	-0.00202481 	-0.00081968 	0.274757
0.00541806 	-0.00197406 	-0.00082426 	0.274991
0.00546823 	-0.00192319 	-0.000828758 	0.275215
0.00551839 	-0.00187211 	-0.000833126 	0.275423
0.00556856 	-0.00182103 	-0.000837493 	0.275631
0.00561873 	-0.00176983 	-0.000841759 	0.275824
0.0056689 	-0.00171853 	-0.000845945 	0.276006
0.00571906 	-0.00166723 	-0.000850131 	0.276187
0.00576923 	-0.00161585 	-0.000854183 	0.276351
0.0058194 	-0.00156444 	-0.000858174 	0.276506
0.00586957 	-0.00151303 	-0.000862165 	0.276661
0.00591973 	-0.00146162 	-0.000865992 	0.276795
0.0059699 	-0.00141022 	-0.000869769 	0.276923
0.00602007 	-0.00135881 	-0.000873545 	0.277051
0.00607023 	-0.00130751 	-0.000877143 	0.277158
0.0061204 	-0.00125623 	-0.000880694 	0.277259
0.00617057 	-0.00120496 	-0.000884245 	0.27736
0.00622074 	-0.0011539 	-0.000887608 	0.277439
0.0062709 	-0.0011029 	-0.000890913 	0.277512
0.00632107 	-0.00105189 	-0.000894218 	0.277585
0.00637124 	-0.00100118 	-0.00089734 	0.277638
0.0064214 	-0.000950608 	-0.000900376 	0.277682
0.00647157 	-0.000900031 	-0.000903413 	0.277727
0.00652174 	-0.000849779 	-0.000906289 	0.277755
0.00657191 	-0.000799798 	-0.000909031 	0.27777
0.00662207 	-0.000749817 	-0.000911773 	0.277785
0.00667224 	-0.000700114 	-0.000914404 	0.277789
0.00672241 	-0.000650925 	-0.000916831 	0.277774
0.00677258 	-0.000601737 	-0.000919258 	0.277759
0.00682274 	-0.000552652 	-0.000921653 	0.277741
0.00687291 	-0.000504502 	-0.000923758 	0.277695
0.00692308 	-0.000456353 	-0.000925863 	0.277649
0.00697324 	-0.000408203 	-0.000927968 	0.277604
0.00702341 	-0.000361066 	-0.000929827 	0.277533
0.00707358 	-0.000314198 	-0.00093162 	0.277457
0.00712375 	-0.000267331 	-0.000933414 	0.27738
0.00717391 	-0.000220861 	-0.000935065 	0.277292
0.00722408 	-0.000174938 	-0.00093652 	0.277186
0.00727425 	-0.000129015 	-0.000937974 	0.27708
0.00732441 	-8.30924e-05 	-0.000939429 	0.276975
0.00737458 	-3.73513e-05 	-0.000940412 	0.276845
0.00742475 	8.38824e-06 	-0.000941391 	0.276715
0.00747492 	5.41277e-05 	-0.00094237 	0.276585
0.00752508 	0.000100087 	-0.000943057 	0.276444
0.00757525 	0.000146265 	-0.000943453 	0.276292
0.00762542 	0.000192444 	-0.000943849 	0.276141
0.00767559 	0.00023862 	-0.000944239 	0.275989
0.00772575 	0.000284598 	-0.000943979 	0.275813
0.00777592 	0.000330576 	-0.000943718 	0.275636
0.00782609 	0.000376554 	-0.000943458 	0.27546
0.00787625 	0.000421487 	-0.00094278 	0.275268
0.00792642 	0.000465662 	-0.0009418 	0.275065
0.00797659 	0.000509837 	-0.00094082 	0.274862
0.00802676 	0.000553482 	-0.000939691 	0.274653
0.00807692 	0.000595141 	-0.000938002 	0.274422
0.00812709 	0.0006368 	-0.000936314 	0.274191
0.00817726 	0.000678459 	-0.000934625 	0.27396
0.00822742 	0.000717784 	-0.000932321 	0.273705
0.00827759 	0.000756852 	-0.00092995 	0.273446
0.00832776 	0.000795919 	-0.000927579 	0.273188
0.00837793 	0.000833275 	-0.000924797 	0.272913
0.00842809 	0.000869706 	-0.000921793 	0.272628
0.00847826 	0.000906137 	-0.000918789 	0.272343
0.00852843 	0.000941338 	-0.000915491 	0.272046
0.0085786 	0.000975065 	-0.000911842 	0.271734
0.00862876 	0.00100879 	-0.000908193 	0.271423
0.00867893 	0.00104163 	-0.000904338 	0.271104
0.0087291 	0.00107257 	-0.000900042 	0.270767
0.00877926 	0.00110351 	-0.000895746 	0.27043
0.00882943 	0.00113378 	-0.000891351 	0.270087
0.0088796 	0.00116185 	-0.000886633 	0.269723
0.00892977 	0.00118992 	-0.000881914 	0.26936
0.00897993 	0.0012174 	-0.000877118 	0.26899
0.0090301 	0.00124258 	-0.000872019 	0.268598
0.00908027 	0.00126777 	-0.00086692 	0.268205
0.00913043 	0.0012923 	-0.00086169 	0.267806
0.0091806 	0.00131461 	-0.000856024 	0.267383
0.00923077 	0.00133693 	-0.000850359 	0.266961
0.00928094 	0.00135835 	-0.000844525 	0.266529
0.0093311 	0.00137778 	-0.000838316 	0.266077
0.00938127 	0.0013972 	-0.000832106 	0.265624
0.00943144 	0.00141534 	-0.000825701 	0.265159
0.00948161 	0.00143185 	-0.000819043 	0.264679
0.00953177 	0.00144836 	-0.000812385 	0.264198
0.00958194 	0.00146307 	-0.000805483 	0.2637
0.00963211 	0.00147666 	-0.00079843 	0.263192
0.00968227 	0.00149026 	-0.000791377 	0.262683
0.00973244 	0.00150144 	-0.000784001 	0.262153
0.00978261 	0.00151218 	-0.000776567 	0.261618
0.00983278 	0.00152257 	-0.000769083 	0.261079
0.00988294 	0.00153051 	-0.000761246 	0.260518
0.00993311 	0.00153846 	-0.000753409 	0.259957
0.00998328 	0.00154517 	-0.000745427 	0.259383
0.0100334 	0.00155038 	-0.000737269 	0.258795
0.0100836 	0.00155559 	-0.00072911 	0.258207
0.0101338 	0.00155855 	-0.000720755 	0.257596
0.0101839 	0.00156103 	-0.000712359 	0.256981
0.0102341 	0.00156288 	-0.000703906 	0.256359
0.0102843 	0.00156275 	-0.000695276 	0.255716
0.0103344 	0.00156262 	-0.000686646 	0.255073
0.0103846 	0.00156089 	-0.00067784 	0.254411
0.0104348 	0.00155851 	-0.000668961 	0.253741
0.0104849 	0.00155572 	-0.000660018 	0.253065
0.0105351 	0.0015515 	-0.000650845 	0.252367
0.0105853 	0.00154728 	-0.000641672 	0.25167
0.0106355 	0.00154175 	-0.000632251 	0.250949
0.0106856 	0.00153584 	-0.000622756 	0.250222
0.0107358 	0.00152927 	-0.000613171 	0.249483
0.010786 	0.00152154 	-0.000603431 	0.248725
0.0108361 	0.00151381 	-0.000593691 	0.247966
0.0108863 	0.00150417 	-0.000583887 	0.247174
0.0109365 	0.00149454 	-0.000574084 	0.246381
0.0109866 	0.00148362 	-0.000564335 	0.245564
0.0110368 	0.00147212 	-0.000554612 	0.244736
0.011087 	0.00145988 	-0.000544902 	0.243893
0.0111371 	0.00144657 	-0.00053521 	0.243028
0.0111873 	0.00143295 	-0.000525491 	0.242155
0.0112375 	0.00141784 	-0.000515641 	0.24125
0.0112876 	0.00140272 	-0.000505791 	0.240345
0.0113378 	0.00138585 	-0.000495755 	0.2394
0.011388 	0.00136892 	-0.000485713 	0.238454
0.0114381 	0.00135052 	-0.000475617 	0.237472
0.0114883 	0.00133178 	-0.000465507 	0.236482
0.0115385 	0.00131177 	-0.000455368 	0.23546
0.0115886 	0.0012912 	-0.000445215 	0.234424
0.0116388 	0.00126952 	-0.000435014 	0.233358
0.011689 	0.00124711 	-0.000424781 	0.232273
0.0117391 	0.00122368 	-0.000414498 	0.231158
0.0117893 	0.00119943 	-0.000404176 	0.230021
0.0118395 	0.00117417 	-0.000393799 	0.228854
0.0118896 	0.00114807 	-0.000383376 	0.227661
0.0119398 	0.00112091 	-0.000372902 	0.226435
0.01199 	0.00109295 	-0.00036239 	0.225184
0.0120401 	0.00106383 	-0.000351837 	0.223893
0.0120903 	0.00103402 	-0.000341261 	0.22258
0.0121405 	0.00100297 	-0.000330631 	0.22122
0.0121906 	0.000971414 	-0.000319979 	0.21984
0.0122408 	0.000938596 	-0.000309074 	0.218404
0.012291 	0.000905539 	-0.00029812 	0.216957
0.0123411 	0.000871318 	-0.000286603 	0.215439
0.0123913 	0.000836803 	-0.000275354 	0.213906
0.0124415 	0.000801055 	-0.00026523 	0.21231
0.0124916 	0.000762819 	-0.00025585 	0.210664
0.0125418 	0.000721078 	-0.000247516 	0.208947
0.012592 	0.000668788 	-0.000237664 	0.207095
0.0126421 	0.000611295 	-0.000227063 	0.205176
0.0126923 	0.000531712 	-0.000214328 	0.203008
0.0127425 	0.000447401 	-0.000201378 	0.200772
0.0127926 	0.000353151 	-0.00018812 	0.198383
0.0128428 	0.0002687 	-0.000176765 	0.196001
0.012893 	0.000190369 	-0.000166598 	0.193622
0.0129431 	0.000143341 	-0.000162015 	0.191397
0.0129933 	0.000102973 	-0.000157118 	0.189193
0.0130435 	7.24058e-05 	-0.000151649 	0.18702
0.0130936 	3.94118e-05 	-0.000143192 	0.184754
0.0131438 	3.33945e-06 	-0.000133735 	0.182414
0.013194 	-3.92304e-05 	-0.000123365 	0.179938
0.0132441 	-8.59231e-05 	-0.000113108 	0.177316
0.0132943 	-0.000134053 	-0.000103324 	0.174604
0.0133445 	-0.00018268 	-9.46643e-05 	0.171774
0.0133946 	-0.000231056 	-8.65953e-05 	0.168807
0.0134448 	-0.000279649 	-7.86629e-05 	0.165735
0.013495 	-0.000328676 	-7.07414e-05 	0.162544
0.0135452 	-0.000379708 	-6.30778e-05 	0.159138
0.0135953 	-0.000432149 	-5.55949e-05 	0.155582
0.0136455 	-0.000485555 	-4.83464e-05 	0.151869
0.0136957 	-0.000539024 	-4.14814e-05 	0.147965
0.0137458 	-0.000589457 	-3.53703e-05 	0.143854
0.013796 	-0.000636271 	-2.98469e-05 	0.139585
0.0138462 	-0.000678947 	-2.48506e-05 	0.135152
0.0138963 	-0.00071713 	-2.02721e-05 	0.130543
0.0139465 	-0.000749203 	-1.61498e-05 	0.125682
0.0139967 	-0.000776082 	-1.24345e-05 	0.120608
0.0140468 	-0.000797214 	-9.21002e-06 	0.115316
0.014097 	-0.000811825 	-6.53982e-06 	0.10979
0.0141472 	-0.00081908 	-4.42819e-06 	0.104014
0.0141973 	-0.000818211 	-2.76662e-06 	0.0979684
0.0142475 	-0.000807014 	-1.48603e-06 	0.0915952
0.0142977 	-0.000785815 	-5.14987e-07 	0.0849448
0.0143478 	-0.000753515 	1.01206e-07 	0.0780504
0.014398 	-0.000709221 	3.57621e-07 	0.0709679
0.0144482 	-0.000652764 	3.4773e-07 	0.0637775
0.0144983 	-0.000584977 	1.8237e-07 	0.0565795
0.0145485 	-0.000507794 	-4.67544e-08 	0.0494859
0.0145987 	-0.00042418 	-2.26232e-07 	0.0426038
0.0146488 	-0.00033782 	-2.34732e-07 	0.0360183
0.014699 	-0.000252756 	3.86447e-09 	0.0297798
0.0147492 	-0.000173401 	5.04351e-07 	0.0239002
0.0147993 	-0.000105386 	1.17753e-06 	0.0183539
0.0148495 	-5.74742e-05 	1.69738e-06 	0.0130833
0.0148997 	-3.776e-05 	1.70389e-06 	0.00809462
0.0149498 	-3.30435e-05 	1.08019e-06 	0.00362274
0.015 	0 	0 	0
