-0.0075 	0 	0 	0
-0.0075 	-6.43343e-36 	-1.77584e-36 	1.8556e-31
-0.00745622 	-5.28466e-07 	-1.45874e-07 	0.0152426
-0.00745622 	-5.28466e-07 	-1.45874e-07 	0.0152426
-0.00741165 	-7.3315e-07 	-6.06042e-07 	0.0296771
-0.00741165 	-7.3315e-07 	-6.06042e-07 	0.0296771
-0.00736628 	-8.83261e-07 	-1.42953e-06 	0.0433989
-0.00736628 	-8.83261e-07 	-1.42953e-06 	0.0433989
-0.0073201 	-1.08914e-06 	-2.65064e-06 	0.056433
-0.0073201 	-1.08914e-06 	-2.65064e-06 	0.056433
-0.00727309 	-1.33656e-06 	-4.26761e-06 	0.0688053
-0.00727309 	-1.33656e-06 	-4.26761e-06 	0.0688053
-0.00722524 	-1.60233e-06 	-6.29483e-06 	0.0805392
-0.00722524 	-1.60233e-06 	-6.29483e-06 	0.0805392
-0.00717653 	-1.87913e-06 	-8.74326e-06 	0.0916468
-0.00717653 	-1.87913e-06 	-8.74326e-06 	0.0916468
-0.00712695 	-2.16371e-06 	-1.16321e-05 	0.102119
-0.00712695 	-2.16371e-06 	-1.16321e-05 	0.102119
-0.00707647 	-2.45269e-06 	-1.49966e-05 	0.111929
-0.00707647 	-2.45269e-06 	-1.49966e-05 	0.111929
-0.0070251 	-2.74133e-06 	-1.88928e-05 	0.12105
-0.0070251 	-2.74133e-06 	-1.88928e-05 	0.12105
-0.0069728 	-3.02405e-06 	-2.33928e-05 	0.129477
-0.0069728 	-3.02405e-06 	-2.33928e-05 	0.129477
-0.00691956 	-3.29533e-06 	-2.8571e-05 	0.137227
-0.00691956 	-3.29533e-06 	-2.8571e-05 	0.137227
-0.00686537 	-3.55037e-06 	-3.4494e-05 	0.144339
-0.00686537 	-3.55037e-06 	-3.4494e-05 	0.144339
-0.00681021 	-3.78559e-06 	-4.12265e-05 	0.150867
-0.00681021 	-3.78559e-06 	-4.12265e-05 	0.150867
-0.00675406 	-3.99852e-06 	-4.88385e-05 	0.156872
-0.00675406 	-3.99852e-06 	-4.88385e-05 	0.156872
-0.0066969 	-4.18735e-06 	-5.73948e-05 	0.162408
-0.0066969 	-4.18735e-06 	-5.73948e-05 	0.162408
-0.00663871 	-4.35099e-06 	-6.69405e-05 	0.16752
-0.00663871 	-4.35099e-06 	-6.69405e-05 	0.16752
-0.00657949 	-4.4893e-06 	-7.74829e-05 	0.172251
-0.00657949 	-4.4893e-06 	-7.74829e-05 	0.172251
-0.0065192 	-4.60288e-06 	-8.89893e-05 	0.176643
-0.0065192 	-4.60288e-06 	-8.89893e-05 	0.176643
-0.00645783 	-4.69277e-06 	-0.000101411 	0.180737
-0.00645783 	-4.69277e-06 	-0.000101411 	0.180737
-0.00639535 	-4.76011e-06 	-0.000114696 	0.184572
-0.00639535 	-4.76011e-06 	-0.000114696 	0.184572
-0.00633176 	-4.806e-06 	-0.000128791 	0.188181
-0.00633176 	-4.806e-06 	-0.000128791 	0.188181
-0.00626703 	-4.83152e-06 	-0.000143642 	0.19159
-0.00626703 	-4.83152e-06 	-0.000143642 	0.19159
-0.00620114 	-4.83777e-06 	-0.000159191 	0.194821
-0.00620114 	-4.83777e-06 	-0.000159191 	0.194821
-0.00613406 	-4.82581e-06 	-0.00017538 	0.197897
-0.00613406 	-4.82581e-06 	-0.00017538 	0.197897
-0.00606579 	-4.79671e-06 	-0.000192146 	0.200835
-0.00606579 	-4.79671e-06 	-0.000192146 	0.200835
-0.00599629 	-4.75152e-06 	-0.000209424 	0.203651
-0.00599629 	-4.75152e-06 	-0.000209424 	0.203651
-0.00592554 	-4.69122e-06 	-0.000227144 	0.206361
-0.00592554 	-4.69122e-06 	-0.000227144 	0.206361
-0.00585352 	-4.61646e-06 	-0.000245231 	0.20898
-0.00585352 	-4.61646e-06 	-0.000245231 	0.20898
-0.00578022 	-4.52758e-06 	-0.000263595 	0.21152
-0.00578022 	-4.52758e-06 	-0.000263595 	0.21152
-0.00570559 	-4.42478e-06 	-0.000282136 	0.213991
-0.00570559 	-4.42478e-06 	-0.000282136 	0.213991
-0.00562963 	-4.3082e-06 	-0.000300755 	0.2164
-0.00562963 	-4.3082e-06 	-0.000300755 	0.2164
-0.00555231 	-4.17797e-06 	-0.000319349 	0.218756
-0.00555231 	-4.17797e-06 	-0.000319349 	0.218756
-0.0054736 	-4.03409e-06 	-0.000337816 	0.221063
-0.0054736 	-4.03409e-06 	-0.000337816 	0.221063
-0.00539348 	-3.87651e-06 	-0.000356051 	0.223326
-0.00539348 	-3.87651e-06 	-0.000356051 	0.223326
-0.00531193 	-3.70511e-06 	-0.000373949 	0.22555
-0.00531193 	-3.70511e-06 	-0.000373949 	0.22555
-0.00522891 	-3.51972e-06 	-0.000391406 	0.227736
-0.00522891 	-3.51972e-06 	-0.000391406 	0.227736
-0.0051444 	-3.32008e-06 	-0.000408319 	0.229887
-0.0051444 	-3.32008e-06 	-0.000408319 	0.229887
-0.00505838 	-3.1059e-06 	-0.000424589 	0.232005
-0.00505838 	-3.1059e-06 	-0.000424589 	0.232005
-0.00497081 	-2.87682e-06 	-0.000440124 	0.23409
-0.00497081 	-2.87682e-06 	-0.000440124 	0.23409
-0.00488168 	-2.63242e-06 	-0.000454834 	0.236142
-0.00488168 	-2.63242e-06 	-0.000454834 	0.236142
-0.00479094 	-2.37227e-06 	-0.000468635 	0.23816
-0.00479094 	-2.37227e-06 	-0.000468635 	0.23816
-0.00469858 	-2.09589e-06 	-0.000481445 	0.240143
-0.00469858 	-2.09589e-06 	-0.000481445 	0.240143
-0.00460456 	-1.80277e-06 	-0.000493191 	0.242089
-0.00460456 	-1.80277e-06 	-0.000493191 	0.242089
-0.00450886 	-1.49235e-06 	-0.000503821 	0.243997
-0.00450886 	-1.49235e-06 	-0.000503821 	0.243997
-0.00441144 	-1.16391e-06 	-0.000513313 	0.245866
-0.00441144 	-1.16391e-06 	-0.000513313 	0.245866
-0.00431227 	-8.16642e-07 	-0.00052168 	0.247692
-0.00431227 	-8.16642e-07 	-0.00052168 	0.247692
-0.00421133 	-4.49599e-07 	-0.000528962 	0.249475
-0.00421133 	-4.49599e-07 	-0.000528962 	0.249475
-0.00410857 	-6.19176e-08 	-0.000535222 	0.251212
-0.00410857 	-6.19176e-08 	-0.000535222 	0.251212
-0.00400397 	3.46802e-07 	-0.000540541 	0.252901
-0.00400397 	3.46802e-07 	-0.000540541 	0.252901
-0.0038975 	7.76492e-07 	-0.000545008 	0.254541
-0.0038975 	7.76492e-07 	-0.000545008 	0.254541
-0.00378912 	1.22732e-06 	-0.00054871 	0.256134
-0.00378912 	1.22732e-06 	-0.00054871 	0.256134
-0.00367879 	1.70009e-06 	-0.000551716 	0.257683
-0.00367879 	1.70009e-06 	-0.000551716 	0.257683
-0.00356649 	2.19563e-06 	-0.000554089 	0.259188
-0.00356649 	2.19563e-06 	-0.000554089 	0.259188
-0.00345217 	2.71405e-06 	-0.000555883 	0.260647
-0.00345217 	2.71405e-06 	-0.000555883 	0.260647
-0.0033358 	3.25473e-06 	-0.000557158 	0.262058
-0.0033358 	3.25473e-06 	-0.000557158 	0.262058
-0.00321735 	3.81664e-06 	-0.00055798 	0.263417
-0.00321735 	3.81664e-06 	-0.00055798 	0.263417
-0.00309677 	4.3985e-06 	-0.000558418 	0.264723
-0.00309677 	4.3985e-06 	-0.000558418 	0.264723
-0.00297403 	4.99872e-06 	-0.000558546 	0.265973
-0.00297403 	4.99872e-06 	-0.000558546 	0.265973
-0.00284909 	5.61536e-06 	-0.00055844 	0.267164
-0.00284909 	5.61536e-06 	-0.00055844 	0.267164
-0.0027219 	6.24613e-06 	-0.00055818 	0.268294
-0.0027219 	6.24613e-06 	-0.00055818 	0.268294
-0.00259244 	6.88847e-06 	-0.000557842 	0.26936
-0.00259244 	6.88847e-06 	-0.000557842 	0.26936
-0.00246065 	7.53959e-06 	-0.000557498 	0.27036
-0.00246065 	7.53959e-06 	-0.000557498 	0.27036
-0.00232651 	8.19631e-06 	-0.00055721 	0.271291
-0.00232651 	8.19631e-06 	-0.00055721 	0.271291
-0.00218995 	8.85505e-06 	-0.000557032 	0.272151
-0.00218995 	8.85505e-06 	-0.000557032 	0.272151
-0.00205095 	9.51174e-06 	-0.000557003 	0.272939
-0.00205095 	9.51174e-06 	-0.000557003 	0.272939
-0.00190946 	1.01618e-05 	-0.000557148 	0.273653
-0.00190946 	1.01618e-05 	-0.000557148 	0.273653
-0.00176543 	1.07998e-05 	-0.000557477 	0.274291
-0.00176543 	1.07998e-05 	-0.000557477 	0.274291
-0.00161881 	1.14198e-05 	-0.00055798 	0.274854
-0.00161881 	1.14198e-05 	-0.00055798 	0.274854
-0.00146957 	1.20151e-05 	-0.000558628 	0.275341
-0.00146957 	1.20151e-05 	-0.000558628 	0.275341
-0.00131765 	1.25788e-05 	-0.00055938 	0.275753
-0.00131765 	1.25788e-05 	-0.00055938 	0.275753
-0.001163 	1.31037e-05 	-0.000560179 	0.276089
-0.001163 	1.31037e-05 	-0.000560179 	0.276089
-0.00100559 	1.35818e-05 	-0.000560965 	0.276349
-0.00100559 	1.35818e-05 	-0.000560965 	0.276349
-0.000845345 	1.40036e-05 	-0.000561699 	0.276534
-0.000845345 	1.40036e-05 	-0.000561699 	0.276534
-0.000682232 	1.43576e-05 	-0.000562306 	0.276641
-0.000682232 	1.43576e-05 	-0.000562306 	0.276641
-0.000516194 	1.46315e-05 	-0.000562701 	0.276669
-0.000516194 	1.46315e-05 	-0.000562701 	0.276669
-0.000347178 	1.48115e-05 	-0.00056286 	0.276616
-0.000347178 	1.48115e-05 	-0.00056286 	0.276616
-0.000175132 	1.48862e-05 	-0.000562667 	0.27648
-0.000175132 	1.48862e-05 	-0.000562667 	0.27648
0 	1.48478e-05 	-0.000562105 	0.276259
0 	1.48478e-05 	-0.000562105 	0.276259
0 	1.48478e-05 	-0.000562105 	0.276259
0 	1.48478e-05 	-0.000562105 	0.276259
0.000175132 	1.4694e-05 	-0.000561208 	0.275955
0.000175132 	1.8126e-05 	-0.000458802 	0.272438
0.000347178 	1.44337e-05 	-0.000559908 	0.275575
0.000347178 	1.94471e-05 	-0.000459327 	0.27213
0.000516194 	1.40797e-05 	-0.000558269 	0.275122
0.000516194 	2.05906e-05 	-0.000459562 	0.271742
0.000682232 	1.36456e-05 	-0.000556292 	0.274602
0.000682232 	2.15718e-05 	-0.000459474 	0.271281
0.000845345 	1.3147e-05 	-0.00055394 	0.274017
0.000845345 	2.24084e-05 	-0.000459047 	0.27075
0.00100559 	1.25979e-05 	-0.000551262 	0.273371
0.00100559 	2.31174e-05 	-0.000458293 	0.270152
0.001163 	1.20106e-05 	-0.000548275 	0.272665
0.001163 	2.37147e-05 	-0.000457221 	0.269492
0.00131765 	1.13957e-05 	-0.000544997 	0.271903
0.00131765 	2.4215e-05 	-0.000455839 	0.268771
0.00146957 	1.07625e-05 	-0.000541445 	0.271086
0.00146957 	2.46312e-05 	-0.000454157 	0.267993
0.00161881 	1.01188e-05 	-0.000537632 	0.270216
0.00161881 	2.49748e-05 	-0.000452184 	0.267159
0.00176543 	9.47117e-06 	-0.000533571 	0.269295
0.00176543 	2.52554e-05 	-0.000449927 	0.266272
0.00190946 	8.82515e-06 	-0.000529271 	0.268325
0.00190946 	2.54816e-05 	-0.000447393 	0.265334
0.00205095 	8.18526e-06 	-0.00052474 	0.267306
0.00205095 	2.56606e-05 	-0.000444586 	0.264345
0.00218995 	7.55518e-06 	-0.000519983 	0.26624
0.00218995 	2.57985e-05 	-0.000441509 	0.263307
0.00232651 	6.93787e-06 	-0.000515003 	0.265128
0.00232651 	2.59005e-05 	-0.000438161 	0.262222
0.00246065 	6.33567e-06 	-0.000509799 	0.26397
0.00246065 	2.59708e-05 	-0.000434541 	0.261089
0.00259244 	5.75043e-06 	-0.000504372 	0.262767
0.00259244 	2.60129e-05 	-0.000430644 	0.259911
0.0027219 	5.18358e-06 	-0.000498718 	0.26152
0.0027219 	2.60294e-05 	-0.000426462 	0.258686
0.00284909 	4.63625e-06 	-0.000492833 	0.260228
0.00284909 	2.60223e-05 	-0.000421989 	0.257417
0.00297403 	4.10924e-06 	-0.00048671 	0.258892
0.00297403 	2.59931e-05 	-0.000417213 	0.256103
0.00309677 	3.6031e-06 	-0.000480341 	0.257511
0.00309677 	2.59428e-05 	-0.000412122 	0.254744
0.00321735 	3.11819e-06 	-0.000473718 	0.256086
0.00321735 	2.58722e-05 	-0.0004067 	0.25334
0.0033358 	2.65468e-06 	-0.000466833 	0.254617
0.0033358 	2.57817e-05 	-0.000400935 	0.251891
0.00345217 	2.56713e-05 	-0.000394817 	0.250396
0.00345217 	2.21263e-06 	-0.000459678 	0.253101
0.00356649 	1.79201e-06 	-0.000452248 	0.251539
0.00356649 	2.55408e-05 	-0.000388349 	0.248853
0.00367879 	1.39271e-06 	-0.00044453 	0.249931
0.00367879 	2.53905e-05 	-0.000381524 	0.247263
0.00378912 	1.01452e-06 	-0.000436506 	0.248273
0.00378912 	2.52215e-05 	-0.000374328 	0.245627
0.0038975 	6.57276e-07 	-0.000428154 	0.246566
0.0038975 	2.5035e-05 	-0.000366743 	0.243942
0.00400397 	3.20762e-07 	-0.000419432 	0.244805
0.00400397 	2.4832e-05 	-0.000358707 	0.242205
0.00410857 	2.4613e-05 	-0.000350112 	0.2404
0.00410857 	4.45486e-09 	-0.000410269 	0.242984
0.00421133 	-2.92751e-07 	-0.000400589 	0.241098
0.00421133 	2.4376e-05 	-0.000340853 	0.238517
0.00431227 	-5.72279e-07 	-0.000390306 	0.239139
0.00431227 	2.41173e-05 	-0.000330857 	0.23655
0.00441144 	-8.35233e-07 	-0.000379355 	0.237101
0.00441144 	2.38326e-05 	-0.000320082 	0.234495
0.00450886 	-1.08224e-06 	-0.000367705 	0.234977
0.00450886 	2.3518e-05 	-0.000308536 	0.232347
0.00460456 	-1.31384e-06 	-0.000355354 	0.232762
0.00460456 	2.31693e-05 	-0.000296255 	0.230104
0.00469858 	-1.53073e-06 	-0.000342318 	0.230452
0.00469858 	2.2783e-05 	-0.000283286 	0.22776
0.00479094 	-1.73372e-06 	-0.000328622 	0.228042
0.00479094 	2.23554e-05 	-0.000269681 	0.225313
0.00488168 	-1.92365e-06 	-0.000314297 	0.225527
0.00488168 	2.18828e-05 	-0.000255498 	0.222758
0.00497081 	-2.10141e-06 	-0.000299381 	0.222903
0.00497081 	2.13618e-05 	-0.000240804 	0.220091
0.00505838 	-2.26783e-06 	-0.000283928 	0.220166
0.00505838 	2.0789e-05 	-0.000225673 	0.217307
0.0051444 	-2.42375e-06 	-0.000268006 	0.217313
0.0051444 	2.01612e-05 	-0.000210196 	0.214405
0.00522891 	-2.56995e-06 	-0.000251699 	0.214339
0.00522891 	1.94759e-05 	-0.000194479 	0.21138
0.00531193 	-2.70713e-06 	-0.000235106 	0.211241
0.00531193 	1.87308e-05 	-0.000178643 	0.208231
0.00539348 	-2.83593e-06 	-0.000218343 	0.208017
0.00539348 	1.79247e-05 	-0.000162824 	0.204956
0.0054736 	-2.95691e-06 	-0.000201535 	0.204662
0.0054736 	1.70566e-05 	-0.000147163 	0.201553
0.00555231 	-3.07052e-06 	-0.000184813 	0.201174
0.00555231 	1.61264e-05 	-0.000131806 	0.198019
0.00562963 	-3.17711e-06 	-0.000168312 	0.197549
0.00562963 	1.51348e-05 	-0.000116896 	0.194353
0.00570559 	-3.27695e-06 	-0.000152162 	0.193782
0.00570559 	1.40826e-05 	-0.000102562 	0.19055
0.00578022 	-3.37016e-06 	-0.000136489 	0.189868
0.00578022 	1.29718e-05 	-8.89251e-05 	0.186609
0.00585352 	-3.45676e-06 	-0.000121406 	0.185802
0.00585352 	1.18048e-05 	-7.60853e-05 	0.182523
0.00592554 	-3.53666e-06 	-0.000107015 	0.181577
0.00592554 	1.05845e-05 	-6.41248e-05 	0.178287
0.00599629 	-3.60965e-06 	-9.34015e-05 	0.177186
0.00599629 	9.31478e-06 	-5.31044e-05 	0.173895
0.00606579 	-3.67548e-06 	-8.06385e-05 	0.172619
0.00606579 	8.00022e-06 	-4.30651e-05 	0.169338
0.00613406 	-3.73384e-06 	-6.87866e-05 	0.167864
0.00613406 	6.64587e-06 	-3.40296e-05 	0.164602
0.00620114 	5.25738e-06 	-2.60042e-05 	0.159673
0.00620114 	-3.78426e-06 	-5.78925e-05 	0.162907
0.00626703 	-3.82592e-06 	-4.79919e-05 	0.157728
0.00626703 	3.84177e-06 	-1.89848e-05 	0.154534
0.00633176 	2.4084e-06 	-1.29569e-05 	0.149168
0.00633176 	-3.85777e-06 	-3.91125e-05 	0.152313
0.00639535 	9.68868e-07 	-7.88983e-06 	0.143562
0.00639535 	-3.87867e-06 	-3.12639e-05 	0.146647
0.00645783 	-3.8874e-06 	-2.44356e-05 	0.140713
0.00645783 	-4.63183e-07 	-3.73609e-06 	0.137699
0.0065192 	-3.88251e-06 	-1.86017e-05 	0.134494
0.0065192 	-1.87177e-06 	-4.36046e-07 	0.131562
0.00657949 	-3.86234e-06 	-1.3723e-05 	0.127973
0.00657949 	-3.23828e-06 	2.07902e-06 	0.125132
0.00663871 	-3.82527e-06 	-9.74688e-06 	0.121135
0.00663871 	-4.54138e-06 	3.88472e-06 	0.118395
0.0066969 	-3.76984e-06 	-6.5947e-06 	0.11396
0.0066969 	-5.75788e-06 	5.06648e-06 	0.111328
0.00675406 	-6.86366e-06 	5.71459e-06 	0.103896
0.00675406 	-3.69413e-06 	-4.17323e-06 	0.106417
0.00681021 	-7.83085e-06 	5.91965e-06 	0.0960744
0.00681021 	-3.59516e-06 	-2.38172e-06 	0.0984736
0.00686537 	-8.62482e-06 	5.77202e-06 	0.0878811
0.00686537 	-3.46957e-06 	-1.12379e-06 	0.0901404
0.00691956 	-9.20805e-06 	5.36079e-06 	0.079384
0.00691956 	-3.31458e-06 	-3.1371e-07 	0.081483
0.0069728 	-9.54721e-06 	4.77326e-06 	0.0707008
0.0069728 	-3.12838e-06 	1.42355e-07 	0.0726187
0.0070251 	-2.91033e-06 	3.40963e-07 	0.0637149
0.0070251 	-9.61985e-06 	4.09057e-06 	0.0619955
0.00707647 	-2.66132e-06 	3.73872e-07 	0.0549697
0.00707647 	-9.42047e-06 	3.38248e-06 	0.0534588
0.00712695 	-2.38419e-06 	3.18634e-07 	0.046577
0.00712695 	-8.96292e-06 	2.70223e-06 	0.0452757
0.00717653 	-2.08394e-06 	2.31757e-07 	0.0386898
0.00717653 	-8.27719e-06 	2.08437e-06 	0.0375908
0.00722524 	-1.76753e-06 	1.46836e-07 	0.0313986
0.00722524 	-7.4021e-06 	1.54587e-06 	0.0304893
0.00727309 	-6.3783e-06 	1.09151e-06 	0.0240007
0.00727309 	-1.44426e-06 	7.88613e-08 	0.0247343
0.0073201 	-5.24499e-06 	7.19968e-07 	0.0181167
0.0073201 	-1.12765e-06 	3.21401e-08 	0.0186882
0.00736628 	-4.0418e-06 	4.22237e-07 	0.0128094
0.00736628 	-8.4072e-07 	9.6276e-10 	0.0132309
0.00741165 	-5.93026e-07 	-9.34256e-09 	0.00832511
0.00741165 	-2.78448e-06 	2.07185e-07 	0.00804268
0.00745622 	-3.36447e-07 	-8.81317e-09 	0.00393292
0.00745622 	-1.44194e-06 	6.74637e-08 	0.00377976
0.0075 	0 	0 	0
0.0075 	0 	0 	0
