/*--------------------------------*- C++ -*----------------------------------*\
| =========                 |                                                 |
| \\      /  F ield         | OpenFOAM: The Open Source CFD Toolbox           |
|  \\    /   O peration     | Version:  v1906                                 |
|   \\  /    A nd           | Web:      www.OpenFOAM.com                      |
|    \\/     M anipulation  |                                                 |
\*---------------------------------------------------------------------------*/
FoamFile
{
    version     2.0;
    format      ascii;
    class       volScalarField;
    location    "98";
    object      alphat;
}
// * * * * * * * * * * * * * * * * * * * * * * * * * * * * * * * * * * * * * //

dimensions      [1 -1 -1 0 0 0 0];


internalField   nonuniform List<scalar> 
634
(
8.81756e-09
3.75773e-09
1.05296e-08
1.06569e-08
1.87137e-08
6.35902e-09
2.02006e-08
1.80314e-08
2.30562e-07
6.94229e-08
2.29336e-07
1.87581e-07
1.63965e-06
5.09521e-07
1.60279e-06
1.31287e-06
6.90547e-06
2.25582e-06
6.65275e-06
5.50356e-06
2.06821e-05
7.15791e-06
1.96286e-05
1.6404e-05
4.87707e-05
1.79868e-05
4.56404e-05
3.85038e-05
9.62866e-05
3.79699e-05
8.9058e-05
7.58072e-05
0.000165938
6.99848e-05
0.000152124
0.000130631
0.000257414
0.000115789
0.000234512
0.000203112
0.000367954
0.000175647
0.000333843
0.000291469
0.000493569
0.000248453
0.000446656
0.000392748
0.000618391
0.000332147
0.000559688
0.000495261
0.000742642
0.000424375
0.000672858
0.000597573
0.000872906
0.000512127
0.000792135
0.000705478
0.00100816
0.000603605
0.000916728
0.000818056
0.00114757
0.000699573
0.00104602
0.000934516
0.00129044
0.000798821
0.00117965
0.00105394
0.00143622
0.000901274
0.00131748
0.00117494
0.00158499
0.0010104
0.00145944
0.00129618
0.00173824
0.0011352
0.00160472
0.00141884
0.00189897
0.00128639
0.00175052
0.00155017
0.00206925
0.00146475
0.00189213
0.0017039
0.00224412
0.00164466
0.00202729
0.00189159
0.00240501
0.00179995
0.00216384
0.00210613
0.00252891
0.00196276
0.0023227
0.00231992
0.00261651
0.00213359
0.00252629
0.00248243
0.00270925
0.00231282
0.00277221
0.00263016
0.00288084
0.00250052
0.00302057
0.00277362
0.00319139
0.00269634
0.00322309
0.00282816
0.00361624
0.00289952
0.00337865
0.00261133
0.00401443
0.0031088
0.00352485
0.00230916
0.00419377
0.00332228
0.00367859
0.00226058
0.00436259
0.00353735
0.00383366
0.00269895
0.00452
0.00375065
0.00398649
0.00358048
0.00437706
0.00395821
0.00413673
0.00371282
0.00370375
0.00415585
0.00428459
0.00384562
0.00299237
0.00433974
0.00443125
0.00399111
0.00287253
0.00433017
0.00457847
0.00415104
0.00360976
0.00318538
0.0047271
0.00432515
0.00517838
0.00253801
0.00487803
0.00451418
0.00560597
0.00296625
0.0050323
0.00471863
0.00577562
0.00515297
0.0051895
0.00493727
0.00595879
0.00551315
0.00535319
0.00516847
0.00615214
0.00573546
0.00551294
0.00541169
0.00634832
0.00596632
0.00565483
0.00566774
0.0065427
0.00620225
0.00579431
0.00593666
0.00673337
0.00644183
0.00593074
0.00621649
0.00691939
0.00668427
0.00606317
0.00651143
0.00710012
0.00692877
0.00619057
0.00682131
0.00727505
0.0071742
0.00631263
0.00714514
0.00744379
0.0074189
0.00642891
0.00748134
0.00760613
0.00766127
0.00653789
0.00782788
0.00776182
0.00789977
0.00663838
0.00818236
0.0079105
0.0081329
0.00672944
0.00854211
0.00805185
0.00835905
0.00681032
0.00890427
0.00818567
0.00857715
0.0068806
0.0092658
0.00831152
0.00878586
0.00694038
0.00962359
0.00842835
0.00898312
0.00699039
0.0099745
0.00853627
0.00916857
0.00703207
0.0103155
0.00864002
0.00934217
0.00706828
0.0106436
0.00874503
0.00950326
0.00710385
0.0109565
0.00885607
0.00965138
0.00714504
0.011252
0.00897669
0.00978664
0.00719618
0.0115289
0.00911014
0.0099101
0.00725377
0.0117894
0.00925913
0.0100362
0.00426664
0.0120395
0.00942396
0.0101636
0.00270892
0.0122899
0.0096044
0.0102915
0.00315172
0.0125487
0.00979971
0.0104187
0.00736008
0.0128084
0.0100086
0.0105442
0.00739092
0.0130575
0.0102281
0.0106682
0.00742355
0.0132767
0.0104518
0.0107792
0.00745106
0.0134562
0.0106706
0.0108669
0.00746118
0.0135898
0.0108843
0.0109281
0.00745616
0.013669
0.0110886
0.0109587
0.00743712
0.0136834
0.0112783
0.0109559
0.00740411
0.0136389
0.011447
0.0109138
0.00735708
0.0135722
0.0115872
0.0108342
0.00729604
0.0134665
0.0116906
0.0107257
0.00722128
0.00545367
9.55568e-09
1.10534e-08
1.02726e-08
1.12628e-08
1.2524e-08
1.54376e-08
1.56317e-08
1.68724e-08
7.80085e-08
1.09168e-07
1.26846e-07
1.35184e-07
5.11946e-07
7.30026e-07
8.58635e-07
9.10028e-07
2.14062e-06
3.06217e-06
3.5958e-06
3.78445e-06
6.47149e-06
9.26724e-06
1.08495e-05
1.13187e-05
1.55554e-05
2.2296e-05
2.60109e-05
2.68764e-05
3.15443e-05
4.52767e-05
5.26113e-05
5.38474e-05
5.61596e-05
8.07844e-05
9.34614e-05
9.48037e-05
9.03268e-05
0.000130342
0.000150096
0.000150979
0.00013409
0.000194317
0.0002227
0.000222232
0.000186758
0.000272143
0.000310415
0.000307389
0.00024717
0.000362691
0.000411784
0.000404717
0.000310827
0.0004647
0.000525134
0.000512383
0.000375378
0.000569356
0.000641758
0.000622478
0.000445028
0.000683927
0.000765095
0.000738381
0.00052008
0.000810556
0.000898187
0.000863667
0.000600749
0.000950368
0.00104091
0.000998951
0.000687395
0.00110415
0.00119304
0.00114507
0.000780545
0.00127118
0.0013543
0.00130261
0.00088078
0.00144898
0.00152432
0.00147069
0.000988152
0.00162084
0.00170273
0.00164579
0.00110081
0.00179692
0.00188915
0.00181336
0.00120007
0.00197801
0.00208317
0.00198508
0.00129973
0.00216388
0.002284
0.00216077
0.00139963
0.00235371
0.00249001
0.00234025
0.00149941
0.00254659
0.00269804
0.00252328
0.00159865
0.00274158
0.00290467
0.00270967
0.00169683
0.0029377
0.00310969
0.00289938
0.00179327
0.00313398
0.00331248
0.00309243
0.0018871
0.00332945
0.00351143
0.00328894
0.00197725
0.00352312
0.00370299
0.00348924
0.00206255
0.00371407
0.00388148
0.00369364
0.00214166
0.00390148
0.00404068
0.00390218
0.00221318
0.00408456
0.00417831
0.0041144
0.00227917
0.00426257
0.00430294
0.00432956
0.00234596
0.00443491
0.00443701
0.00454687
0.00241528
0.00460111
0.00460647
0.00476544
0.002489
0.00476088
0.00481683
0.00498431
0.00256801
0.0049141
0.00504744
0.00520241
0.00265121
0.00506072
0.00527619
0.00541853
0.0027368
0.00520045
0.00549429
0.0056314
0.00282347
0.00533213
0.00570232
0.00583963
0.00291012
0.00546187
0.00590395
0.00604175
0.00299559
0.00558891
0.00610388
0.00623628
0.00307835
0.00571395
0.00630466
0.00642072
0.00315653
0.00583822
0.0064994
0.00659238
0.00322859
0.00595963
0.00666729
0.00675006
0.00329381
0.00607493
0.00678574
0.00689279
0.00335196
0.00618125
0.00686361
0.00701891
0.00340313
0.0062767
0.00696559
0.00712686
0.00344756
0.00635987
0.00717938
0.00721525
0.00348555
0.00642965
0.00752596
0.00728287
0.00351734
0.00648529
0.00785169
0.00732878
0.00354296
0.00652652
0.00793929
0.0073524
0.00356216
0.00655369
0.00800474
0.00735348
0.00357478
0.00656775
0.00804566
0.007332
0.00358092
0.0065703
0.00805977
0.00728818
0.0035807
0.00656372
0.0080513
0.00722238
0.00357444
0.00655153
0.00715056
0.00713509
0.00356211
0.00629961
0.00553367
0.00702634
0.00354299
0.00555408
0.00426659
0.00689699
0.00351633
0.00465262
0.00388159
0.00674641
0.00348191
0.00426813
0.00454803
0.00593845
0.00343964
0.00470133
0.00645405
0.00388873
0.00338939
0.00576871
0.00773238
0.00248275
0.00333148
0.00627494
0.00772477
0.00220964
0.00326586
0.00619405
0.0077148
0.00309855
0.00319304
0.00609609
0.00770051
0.00544537
0.00311371
0.00598054
0.00767969
0.00534303
0.00302873
0.00584737
0.00765149
0.0052385
0.00293919
0.00569749
0.00761601
0.00513761
0.00284663
0.00552791
0.00757454
0.00505055
0.00275215
0.00532932
0.00753107
0.00498375
0.00265687
0.00509882
0.00748337
0.0049413
0.00256183
0.00483061
0.00742841
0.00492425
0.00246876
0.00428207
0.00736901
0.0049309
0.00237901
0.00399973
0.00730817
0.00495845
0.00229433
0.00374986
0.00724966
0.0050106
0.00221701
0.00334714
)
;

boundaryField
{
    leftWall
    {
        type            compressible::alphatWallFunction;
        Prt             0.85;
        value           uniform 0;
    }
    rightWall
    {
        type            compressible::alphatWallFunction;
        Prt             0.85;
        value           nonuniform 0();
    }
    leftSides_periodic0
    {
        type            cyclic;
    }
    leftSides_periodic1
    {
        type            cyclic;
    }
    rightSides_periodic0
    {
        type            cyclic;
    }
    rightSides_periodic1
    {
        type            cyclic;
    }
    leftInOut_periodic0
    {
        type            cyclic;
    }
    leftInOut_periodic1
    {
        type            cyclic;
    }
    rightInOut_periodic0
    {
        type            cyclic;
    }
    rightInOut_periodic1
    {
        type            cyclic;
    }
    procBoundary2to0
    {
        type            processor;
        value           nonuniform List<scalar> 
316
(
1.56443e-09
2.60255e-09
6.46193e-09
2.97991e-09
5.4807e-09
8.70893e-09
1.73709e-08
7.19552e-09
8.53355e-08
1.33372e-07
2.40486e-07
9.52072e-08
6.28754e-07
9.77518e-07
1.71404e-06
6.8605e-07
2.75007e-06
4.23744e-06
7.20657e-06
2.94654e-06
8.67976e-06
1.31757e-05
2.15943e-05
9.09681e-06
2.18797e-05
3.25027e-05
5.11076e-05
2.23384e-05
4.66547e-05
6.74227e-05
0.000101599
4.62829e-05
8.72529e-05
0.000122152
0.00017676
8.40695e-05
0.000146775
0.000198669
0.000277264
0.000137567
0.00022641
0.000296364
0.000401157
0.000207011
0.000325344
0.000412615
0.000544943
0.00029117
0.000441267
0.00054376
0.000704637
0.000387843
0.00057109
0.000679665
0.000868043
0.000494412
0.000711548
0.000811814
0.00103079
0.000598547
0.000854007
0.000948022
0.00119891
0.00070318
0.000989674
0.00108815
0.00137272
0.000811005
0.00112575
0.00123162
0.00155121
0.000921874
0.00126264
0.00137765
0.00173333
0.00103511
0.00140024
0.0015256
0.00191812
0.00115009
0.00153807
0.00167511
0.00210479
0.0012663
0.00167578
0.00182613
0.00229269
0.0013835
0.00181332
0.00197894
0.00248129
0.00150177
0.00195095
0.00213404
0.00267
0.00162142
0.00208867
0.00229163
0.00285827
0.00174286
0.00222303
0.00244983
0.00304741
0.00186667
0.00235324
0.00260877
0.00323897
0.00199384
0.00248182
0.0027647
0.00343424
0.00212504
0.00261132
0.00291049
0.00363378
0.0022571
0.00274408
0.00303995
0.00383786
0.0023839
0.00288081
0.00315669
0.0040475
0.00250381
0.00302036
0.00328062
0.00426539
0.00261248
0.00316126
0.00344174
0.00449612
0.00270202
0.00330336
0.00365796
0.00474496
0.00275347
0.003446
0.00391078
0.00501423
0.00274371
0.00358409
0.00415304
0.00529544
0.00268097
0.0037086
0.00430337
0.00556217
0.00262976
0.00381306
0.0044004
0.00577995
0.00268822
0.00390092
0.00448305
0.00594148
0.00293734
0.00398205
0.00429644
0.00607733
0.00335896
0.00407037
0.00374605
0.00621887
0.00379083
0.00417937
0.00331555
0.00637594
0.00405444
0.00430998
0.00328753
0.00654331
0.00417467
0.00445108
0.00374048
0.0067124
0.00429315
0.00458932
0.00452472
0.00687585
0.00441006
0.00471944
0.00501684
0.00702919
0.00452517
0.00484332
0.00509149
0.00717449
0.00463807
0.00496357
0.00516478
0.00732525
0.00474871
0.00508168
0.00523557
0.00750736
0.00485207
0.00519872
0.00530241
0.00775087
0.00494664
0.00531831
0.00536356
0.00807285
0.00503074
0.00544848
0.00541767
0.00845974
0.00510252
0.00559434
0.00546323
0.00886298
0.00516045
0.00573695
0.00549868
0.00921916
0.00520363
0.00581663
0.00552273
0.00948962
0.00523165
0.00576939
0.00547916
0.0096907
0.0052442
0.00562912
0.00394472
0.00987848
0.0052411
0.00556782
0.00354947
0.0100994
0.00522228
0.00577285
0.00429178
0.010381
0.00518782
0.00625432
0.00550858
0.010589
0.00513793
0.00674679
0.00553298
0.0106948
0.00507295
0.00676887
0.00557471
0.0107908
0.00499334
0.00677904
0.00563205
0.0108752
0.00489963
0.0067769
0.00570006
0.0109455
0.00479248
0.00676294
0.00577362
0.010992
0.00467279
0.00673773
0.00584796
0.0107798
0.00454178
0.00670273
0.00591867
0.0105559
0.00440031
0.00666078
0.00598162
0.0106416
0.00424914
0.00661079
0.00603295
0.0111022
0.00408935
0.00655215
0.00606878
0.0111028
0.00392067
0.00648888
0.00608556
0.0110938
0.00374266
0.00642615
0.00608959
0.0110757
0.00355765
0.00636964
0.00608701
0.0110489
0.00337016
0.00631889
0.00607827
0.0110134
0.00320117
0.00627353
0.00606527
0.0109689
0.00307409
0.00623288
0.00605051
0.0109053
0.003017
0.00619568
0.00603654
0.010825
0.00305755
0.00616428
0.00602693
0.0107323
0.0032224
0.00613898
0.00602564
0.0106293
0.00351943
)
;
    }
    procBoundary2to0throughleftSides_periodic1
    {
        type            processorCyclic;
        value           nonuniform List<scalar> 
314
(
1.24627e-08
2.28999e-08
2.46469e-07
1.70217e-06
7.01267e-06
2.06002e-05
4.79019e-05
9.39653e-05
0.000162162
0.000253575
0.000367211
0.000500766
0.00064344
0.000792418
0.00095498
0.0011302
0.00131849
0.00151977
0.00173196
0.00195294
0.00218119
0.00241537
0.00265415
0.00289587
0.00313834
0.00336521
0.00358771
0.0038072
0.00402286
0.00423392
0.00443955
0.00463892
0.00483223
0.00501758
0.00519259
0.00535271
0.00549792
0.00417357
0.00338289
0.00354277
0.00461044
0.00601435
0.00670137
0.00688949
0.00707
0.00724289
0.00740944
0.00757145
0.00773026
0.00788681
0.00804177
0.00819572
0.00834916
0.00850194
0.0086544
0.0088081
0.00896434
0.00912404
0.0092879
0.00945603
0.00962852
0.00980669
0.00999248
0.0101874
0.0103924
0.0106083
0.0108362
0.0110773
0.0113301
0.0115916
0.0118574
0.0121233
0.0123838
0.0126333
0.0128655
0.0130735
0.0132502
0.0133806
0.0134554
5.02584e-09
9.7826e-09
9.75841e-08
6.65436e-07
2.78871e-06
8.53739e-06
2.10332e-05
4.4078e-05
8.14132e-05
0.00013591
0.000209025
0.000300726
0.000409824
0.000534512
0.000659867
0.000796055
0.000946348
0.00111054
0.00128764
0.00147584
0.00167266
0.00187533
0.00208127
0.00228295
0.00247968
0.00267634
0.00287219
0.00306657
0.00325891
0.00344874
0.00363563
0.00381917
0.00399895
0.00417453
0.00434547
0.0045113
0.00467157
0.00482565
0.00497258
0.00511092
0.00523846
0.0053517
0.00545006
0.00553227
0.00449672
0.00319687
0.00328216
0.00464221
0.00610945
0.00621862
0.00632069
0.00641335
0.00649395
0.00656037
0.00661072
0.0066449
0.00666664
0.0066784
0.00667221
0.00403808
0.00293073
0.00361611
0.00607871
0.00696425
0.0071037
0.00728079
0.00749742
0.00776669
0.00807898
0.00840777
0.00874515
0.00908371
0.00942244
0.00976817
0.0101145
0.0104541
0.0107785
0.0110782
0.0113472
1.51384e-08
2.99708e-08
3.43608e-07
2.38188e-06
9.76965e-06
2.83965e-05
6.49587e-05
0.000124797
0.000210345
0.000320888
0.000453461
0.00059228
0.000736052
0.000889393
0.00105189
0.00122295
0.00140182
0.00158777
0.00177997
0.00197695
0.00217606
0.00237454
0.00257369
0.0027841
0.00302334
0.00329584
0.00357466
0.00382916
0.00404055
0.00422062
0.00439071
0.00454906
0.00469357
0.00482199
0.00493472
0.00452618
0.00355705
0.00343654
0.00423507
0.00543193
0.00551445
0.00558549
0.00564307
0.00569046
0.00572982
0.0057619
0.00578754
0.00580822
0.00582581
0.00584238
0.0058588
0.0058721
0.00588134
0.00588322
0.00587963
0.00587307
0.00586599
0.00586084
0.0058544
0.00583803
0.00438446
0.00546373
0.00580318
0.00584209
0.00592612
0.00604699
0.00619597
0.00636444
0.00654431
0.00672855
0.00691102
0.00708629
0.00724955
0.0073967
0.00752361
0.00763557
0.00772639
0.00779205
1.58755e-08
2.70821e-08
2.71091e-07
1.84021e-06
7.48118e-06
2.16546e-05
4.95348e-05
9.5503e-05
0.00016197
0.000249022
0.000354876
0.000476341
0.000596271
0.000725124
0.000862344
0.00100777
0.0011607
0.00132053
0.00148731
0.00166283
0.00185036
0.00205144
0.00225966
0.0024637
0.00266104
0.00286226
0.00303942
0.00321029
0.0033216
0.00330302
0.00339239
0.00368251
0.00404063
0.00419249
0.00434463
0.00449863
0.00465595
0.00481779
0.00498487
0.00515749
0.00533621
0.00552148
0.00571363
0.00591286
0.00611919
0.00633235
0.00655241
0.00677917
0.00701204
0.00725022
0.0074926
0.00773788
0.00798457
0.00823107
0.00847569
0.00871675
0.00895253
0.00918138
0.0094017
0.00961206
0.00981107
0.00999758
0.0101704
0.0103298
0.0104751
0.0106066
0.0107187
0.010792
0.010829
0.0108361
0.0108196
0.0107911
0.010762
0.0107244
0.01067
0.0105905
0.0082413
0.00439216
)
;
    }
    procBoundary2to1throughleftSides_periodic1
    {
        type            processorCyclic;
        value           nonuniform List<scalar> 2(0.00783292 0.00363697);
    }
    procBoundary2to1throughrightSides_periodic1
    {
        type            processorCyclic;
        value           nonuniform List<scalar> 2(0.0134588 0.0112563);
    }
    procBoundary2to3
    {
        type            processor;
        value           nonuniform List<scalar> 
11
(
0.0117619
0.0106058
0.0071339
0.00388062
0.00719428
0.00510298
0.0117619
0.0106058
0.00214897
0.00719428
0.00302262
)
;
    }
    procBoundary2to3throughrightInOut_periodic1
    {
        type            processorCyclic;
        value           uniform 0.00510298;
    }
}


// ************************************************************************* //
