/*--------------------------------*- C++ -*----------------------------------*\
| =========                 |                                                 |
| \\      /  F ield         | OpenFOAM: The Open Source CFD Toolbox           |
|  \\    /   O peration     | Version:  v1906                                 |
|   \\  /    A nd           | Web:      www.OpenFOAM.com                      |
|    \\/     M anipulation  |                                                 |
\*---------------------------------------------------------------------------*/
FoamFile
{
    version     2.0;
    format      ascii;
    class       volScalarField;
    location    "98";
    object      pPrime2Mean;
}
// * * * * * * * * * * * * * * * * * * * * * * * * * * * * * * * * * * * * * //

dimensions      [2 -2 -4 0 0 0 0];


internalField   nonuniform List<scalar> 
634
(
68123
98260
67969.9
102486
68117.2
98251.4
67964.2
102478
68111.3
98240.7
67958.5
102466
68110.8
98232.2
67958.2
102457
68113.6
98223.3
67961.3
102448
68117.2
98211.4
67965.5
102434
68121.8
98196
67970.8
102417
68127.4
98177.1
67977.3
102397
68134
98154.2
67985.2
102371
68141.9
98126.9
67994.5
102341
68151
98094.8
68005.4
102306
68161.6
98057.3
68018.1
102265
68173.8
98014
68032.8
102217
68187.7
97964.5
68049.6
102162
68203.4
97908.3
68068.6
102100
68221
97845.1
68090.1
102030
68240.7
97774.1
68114.2
101952
68262.7
97695.2
68141.1
101864
68287.2
97607.8
68171
101767
68314.3
97511.7
68204
101659
68344.1
97406.2
68240.4
101541
68376.8
97290.9
68280.5
101411
68412.6
97165.3
68324.4
101269
68452.1
97028.5
68372.2
101114
68496.1
96880.1
68424.3
100945
68544.2
96721
68481
100764
68595.3
96553.3
68542
100572
68648
96378.2
68606.6
100372
68702.7
96194.2
68674.7
100162
68761.7
95997.7
68747.1
99937.6
68827.3
95786.5
68825.3
99694.2
68900
95561.9
68909.9
99432
68977.9
95326.6
69000.1
99154.1
69058.9
95081.1
69094.7
98863.5
69143.2
94823.5
69193.6
98560.2
69232.7
94551.7
69298.3
98243.1
69328.9
94264.8
69410.5
97911.1
69431.5
93966.4
69529.3
97566.4
69537.9
93663.7
69651.1
97214
69647.1
93360.7
69774.1
96856.2
69761.6
93053.4
69901.6
96488.9
69885.7
92733.3
70039.9
96105.6
70022.3
92394.7
70193
95703.7
70171.1
92039.4
70359.1
95288.8
70329.5
91673.5
70533.2
94868.3
70495.9
91301
70712.8
94443.1
70669.6
90923
70897.5
94010.5
70850.7
90540.7
71086.9
93568.6
71039.4
90154.5
71281.8
93119.5
71236
89764
71484.3
92666.8
71440.4
89370.6
71696.4
92213.4
71651.6
88980.1
71918
91763.8
71866.4
88601.5
72144.4
91324.8
72078.9
88238.5
72368.4
90900.1
72286.3
87884.6
72586.4
90484.5
72492.8
87528.2
72803.2
90065.7
72707.7
87162.4
73029
89634.6
72938.2
86791.1
73271.5
89194.8
73183.4
86422.1
73528.4
88756.6
73437.3
86057.4
73792.1
88326.2
73695.8
85695.9
74059.1
87903.9
73956.6
85339.3
74330.2
87489.6
74217.4
84992.9
74606.1
87085.4
74475.8
84661.8
74887.2
86693.3
74730.6
84346.6
75172.3
86312.7
74981.8
84042.2
75459
85938.7
75232.9
83742.4
75746.2
85565.5
75489.3
83444.4
76036
85192.2
75754.9
83149.9
76331.6
84823
76029.5
82861.4
76634.3
84461.5
76309.7
82579.5
76942.9
84107.7
76594.3
82303.8
77256.4
83758.6
76884.9
82034.2
77574.8
83412.1
77181.8
81770.5
77897.4
83069.6
77482.2
81512.5
78222.4
82735.2
77782.4
81259.5
78545.7
82411.3
78078
81011.6
78860.5
82098
78364.8
80769.5
79157.4
81793.7
78638
80530.3
79426.1
81490.6
14643.2
15227.5
14309.4
13400.6
14633.1
15217.3
14299.4
13390.7
14621.4
15205.5
14287.8
13379.4
14614.7
15198.9
14281.3
13373.5
14610
15194.3
14276.8
13369.8
14603.6
15188.2
14270.6
13364.8
14595.3
15180.4
14262.7
13358.3
14585.2
15170.8
14253
13350.3
14573.1
15159.4
14241.2
13340.7
14558.7
15145.9
14227.4
13329.3
14541.9
15130.1
14211.1
13315.9
14522.4
15111.7
14192.2
13300.2
14499.8
15090.5
14170.3
13282.1
14473.9
15066.2
14145.2
13261.2
14444.5
15038.5
14116.7
13237.4
14411.4
15007.1
14084.7
13210.5
14374.3
14971.8
14048.7
13180.2
14332.9
14932.3
14008.7
13146.3
14286.9
14888.1
13964.3
13108.5
14235.9
14839
13915.1
13066.7
14179.9
14784.8
13861
13020.6
14118.4
14725.1
13801.7
12970.2
14051.4
14659.7
13737.2
12915.4
13978.7
14588.6
13667.3
12856.1
13900.3
14511.7
13592.1
12792.4
13816.4
14428.9
13511.8
12724.3
13727
14340.2
13426.5
12652
13632.3
14245.9
13336.3
12575.8
13532.5
14145.9
13241.4
12495.8
13427.8
14040.6
13142.2
12412.4
13318.6
13930.1
13038.9
12325.9
13205.2
13814.7
12931.9
12236.6
13088
13694.8
12821.5
12144.9
12967.4
13570.7
12708.2
12051.2
12843.8
13442.8
12592.4
11955.9
12717.8
13311.7
12474.7
11859.6
12589.9
13177.8
12355.5
11762.9
12460.7
13041.7
12235.5
11666.5
12330.6
12904
12115
11570.4
12200.1
12765.2
11994.4
11474.9
12069.9
12625.8
11874.3
11380.2
11940.7
12486.4
11755.2
11287.1
11813
12347.7
11637.7
11196
11687.5
12210.3
11522.5
11107.3
11564.6
12075.2
11409.8
11021
11444.2
11942.8
11299.8
10937.3
11326.7
11813.6
11192.8
10856.7
11212.4
11688.2
11088.9
10779.8
11101.8
11567.1
10988.6
10707
10995.5
11450.7
10892.3
10638.3
10893.8
11339.5
10800.4
10573.6
10796.8
11233.6
10713.6
10512.9
10704.5
11133.6
10631.9
10456.5
10617.1
11040.2
10555.5
10404.4
10534.8
10953.7
10484.2
10355.9
10458
10873.5
10417.9
10310.5
10386.9
10798.9
10356.6
10268
10321.3
10729.1
10300.3
10228.8
10261.1
10664.1
10249
10193.1
10206.1
10604.6
10202.8
10160.7
10156.6
10551
10161.3
10131.2
10112.5
10503
10124.4
10104.4
10073.5
10459.9
10091.8
10080.8
10038.4
10420.9
10063.4
10061.1
10006.7
10385.3
10039.3
10045.2
9978.15
10352.8
10018.8
10032.5
9953.11
10323.6
10001.4
10022.2
9931.92
10298
9986.8
10013.7
9914.67
10276.1
9974.76
10006.8
9901.13
10257.6
9965.19
10001.5
9890.76
10242
9957.91
9998.01
9882.83
10229
9952.82
9996.35
9876.69
10218.6
9949.99
9996.51
9872.1
10210.4
9949.34
9998.32
9869.19
10204.2
9950.6
10001.4
9868.09
10199.7
9953.47
10005.8
9868.8
10197
9957.78
10011.3
9871.19
10195.9
9963.32
10017.6
9875.06
10196.2
9969.79
10024.4
9880.34
10197.8
)
;

boundaryField
{
    leftWall
    {
        type            calculated;
        value           nonuniform List<scalar> 8(68123 14643.2 98260 15227.5 67969.9 14309.4 102486 13400.6);
    }
    rightWall
    {
        type            calculated;
        value           nonuniform 0();
    }
    leftSides_periodic0
    {
        type            cyclic;
    }
    leftSides_periodic1
    {
        type            cyclic;
    }
    rightSides_periodic0
    {
        type            cyclic;
    }
    rightSides_periodic1
    {
        type            cyclic;
    }
    leftInOut_periodic0
    {
        type            cyclic;
    }
    leftInOut_periodic1
    {
        type            cyclic;
    }
    rightInOut_periodic0
    {
        type            cyclic;
    }
    rightInOut_periodic1
    {
        type            cyclic;
    }
    procBoundary2to0
    {
        type            processor;
        value           nonuniform List<scalar> 
316
(
122588
142107
125862
141225
122589
142106
125862
141224
122590
142105
125863
141223
122591
142103
125865
141222
122593
142100
125868
141219
122596
142097
125871
141216
122599
142092
125875
141211
122604
142087
125881
141205
122609
142080
125887
141198
122615
142072
125894
141190
122622
142062
125903
141180
122631
142051
125914
141169
122641
142038
125926
141155
122652
142022
125940
141139
122665
142004
125956
141121
122680
141983
125974
141101
122697
141959
125994
141078
122716
141932
126016
141052
122736
141902
126041
141024
122759
141869
126069
140993
122785
141832
126099
140959
122812
141792
126132
140921
122842
141749
126167
140881
122875
141702
126206
140837
122910
141651
126247
140790
122948
141596
126292
140739
122989
141538
126340
140686
123033
141476
126391
140629
123080
141410
126445
140568
123130
141340
126503
140504
123183
141267
126564
140437
123240
141189
126628
140365
123298
141106
126696
140290
123360
141021
126767
140212
123424
140933
126840
140133
123490
140843
126917
140054
123559
140749
126998
139972
123632
140651
127085
139887
123710
140550
127176
139798
123791
140445
127271
139706
123876
140336
127369
139609
123963
140223
127470
139510
124054
140108
127576
139406
124148
139993
127685
139298
124246
139877
127796
139187
124348
139759
127909
139076
124453
139634
128027
138966
124563
139501
128151
138855
124682
139362
128283
138742
124809
139222
128420
138628
124942
139082
128563
138511
125080
138945
128712
138392
125224
138808
128866
138271
125372
138670
129026
138148
125523
138530
129189
138024
125674
138389
129355
137900
125824
138247
129522
137776
125979
138104
129691
137653
126138
137959
129863
137529
126305
137813
130036
137405
126478
137669
130212
137282
126656
137530
130388
137159
126838
137393
130565
137038
127022
137259
130746
136918
127208
137126
130930
136799
127394
136996
131120
136680
127580
136870
131314
136560
127767
136747
131511
136439
127957
136627
131713
136316
128155
136509
131921
136193
128362
136392
132135
136070
128576
136276
132354
135950
128799
136162
132579
135832
129029
136048
132807
135719
129267
135937
133040
135610
129508
135824
133272
135501
129746
135706
133496
135386
129970
135574
133703
135259
130171
135419
133885
135114
)
;
    }
    procBoundary2to0throughleftSides_periodic1
    {
        type            processorCyclic;
        value           nonuniform List<scalar> 
314
(
1.14441e-05
0.00715446
0.0408707
0.115625
0.235785
0.415287
0.664606
1.00093
1.44811
2.03667
2.80946
3.81798
5.12741
6.81596
8.97726
11.7248
15.1953
19.5505
24.9773
31.6898
39.9268
49.9607
62.1002
76.6812
94.0519
114.576
138.648
166.683
199.103
236.334
278.799
326.908
381.05
441.523
508.373
581.487
660.924
746.889
839.401
938.452
1044.43
1158.07
1279.93
1409.58
1545.92
1688.94
1840
2000.58
2170.78
2348.89
2533.18
2723.79
2922.39
3130.42
3347.5
3571.92
3802.16
4037.74
4279.2
4527.22
4781.91
5041.66
5302.41
5559.96
5813.99
6069.09
6330.35
6598.7
6871.25
7145.43
7420.93
7698.02
7975.89
8252.66
8526.32
8796.01
9062.24
9325.35
9587.02
38928
38923.4
38916
38904.6
38888.2
38866.6
38839.5
38806.2
38766
38718
38660.8
38593.2
38513.6
38420.9
38313.7
38190.8
38050.8
37892.7
37715.4
37517.9
37299.4
37059.5
36797.8
36514.3
36209.1
35882.5
35535
35167.6
34781.1
34376.5
33955
33517.3
33064.6
32599.4
32124.3
31639.6
31143.3
30633.2
30110.4
29579.9
29047.2
28514.9
27982.3
27448.6
26914.2
26379.9
25844.8
25306.8
24766.6
24227.9
23694.8
23169.1
22650.5
22138.9
21635.1
21139.2
20650.7
20169.5
19697.6
19237.4
18789.8
18353.2
17924.8
17503.6
17092.3
16695
16311.9
15939.1
15573
15213.8
14865.4
14530.4
14207.8
13894.2
13587.4
13288
12999.9
12728.2
12475.7
2968.35
2968.88
2969.78
2971.22
2973.32
2976.11
2979.64
2983.98
2989.25
2995.56
3003.08
3011.97
3022.41
3034.57
3048.61
3064.76
3083.2
3104.17
3127.89
3154.62
3184.67
3218.34
3255.95
3297.77
3344.06
3395.06
3451
3512.09
3578.5
3650.45
3728.25
3812.26
3902.75
3999.82
4103.28
4212.5
4326.44
4444.24
4566.41
4694.94
4831.63
4976.92
5129.99
5290.42
5459.1
5636.52
5821.58
6012.55
6208.08
6407.29
6609.78
6816.41
7029.37
7250.47
7479.58
7715.3
7956.65
8203
8453.4
8707.3
8964.73
9225.28
9487.05
9747.76
10007.5
10269.8
10537.6
10809.6
11082.3
11353.7
11624
11893.6
12163
12431.7
12698.9
12964.3
13227
13486.4
38532.8
38528
38520.4
38508.5
38491.6
38469.3
38441.1
38406.6
38364.9
38315
38255.5
38185.1
38102.2
38005.5
37893.5
37765.2
37619.2
37454.5
37269.9
37064.6
36837.9
36589.2
36318.4
36025.2
35710.1
35373.4
35015.8
34637.9
34239.9
33822.7
33387.2
32935.4
32469.6
31992.9
31507.8
31014.1
30509
29990
29457.5
28915.6
28369.2
27821.6
27273.9
26724.7
26171.3
25612.1
25047.2
24480
23915.6
23357.5
22806.9
22262.8
21722.7
21185.8
20653.8
20129.6
19614.8
19109
18612.3
18126.7
17652.8
17189.3
16734.3
16287.7
15851.4
15427.3
15014.3
14609
14209.3
13816.5
13433.5
13061.2
12698.6
12344.3
11999.5
11668.1
11356
11070.5
)
;
    }
    procBoundary2to1throughleftSides_periodic1
    {
        type            processorCyclic;
        value           nonuniform List<scalar> 2(13743.1 10813.8);
    }
    procBoundary2to1throughrightSides_periodic1
    {
        type            processorCyclic;
        value           nonuniform List<scalar> 2(9853.26 12237.3);
    }
    procBoundary2to3
    {
        type            processor;
        value           nonuniform List<scalar> 
11
(
78900.1
80285.3
79667.4
81175.8
9976.9
10031.7
78900.1
80285.3
9887.14
9976.9
10200.9
)
;
    }
    procBoundary2to3throughrightInOut_periodic1
    {
        type            processorCyclic;
        value           uniform 10031.7;
    }
}


// ************************************************************************* //
