/*--------------------------------*- C++ -*----------------------------------*\
| =========                 |                                                 |
| \\      /  F ield         | OpenFOAM: The Open Source CFD Toolbox           |
|  \\    /   O peration     | Version:  v1912                                 |
|   \\  /    A nd           | Website:  www.openfoam.com                      |
|    \\/     M anipulation  |                                                 |
\*---------------------------------------------------------------------------*/
FoamFile
{
    version     2.0;
    format      ascii;
    class       volScalarField;
    location    "8";
    object      omega;
}
// * * * * * * * * * * * * * * * * * * * * * * * * * * * * * * * * * * * * * //

dimensions      [0 0 -1 0 0 0 0];


internalField   nonuniform List<scalar> 
34128
(
156509
156508
156509
156509
156509
156509
156509
156509
156509
156508
156509
156509
25867.5
25863
25868.6
25870.5
25868.1
25868
25870.4
25871.6
25870.1
25871.1
25870.8
25866.6
8912.87
8908.48
8913.13
8914.66
8912.89
8913.37
8915.7
8916.73
8914.4
8914.3
8914.4
8911.59
4285.51
4281.06
4284.89
4286.16
4284.97
4286.15
4288.63
4289.52
4285.95
4284.5
4285.16
4283.83
2500.19
2495.5
2498.77
2499.79
2499.18
2501.2
2503.87
2504.59
2499.52
2496.61
2497.95
2498.08
1658.29
1653.45
1656.25
1656.98
1657.03
1659.88
1662.62
1663.1
1656.56
1652.24
1654.33
1655.88
1207.54
1202.79
1205.13
1205.51
1206.29
1209.87
1212.45
1212.63
1204.88
1199.32
1202.16
1205.04
944.069
939.685
941.577
941.56
943.109
947.203
949.361
949.214
940.675
934.128
937.664
941.726
779.307
775.514
776.954
776.668
778.848
783.214
784.751
784.308
775.405
768.274
772.341
777.337
670.284
667.215
668.247
667.695
670.46
674.837
675.613
674.951
666.12
658.654
663.131
668.856
594.361
592.054
592.749
591.972
595.207
599.359
599.326
598.555
590.188
582.604
587.341
593.583
538.883
537.305
537.748
536.791
540.343
544.083
543.278
542.523
534.939
527.409
532.252
538.808
496.436
495.518
495.791
494.686
498.377
501.586
500.109
499.485
492.933
485.599
490.397
497.073
462.5
462.165
462.339
461.093
464.742
467.367
465.353
464.95
459.614
452.606
457.221
463.83
434.217
434.406
434.531
433.132
436.562
438.603
436.194
436.076
432.091
425.542
429.851
436.213
409.721
410.397
410.504
408.926
411.977
413.414
410.781
410.998
408.462
402.52
406.416
412.351
387.756
388.903
388.997
387.224
389.752
390.56
387.815
388.458
387.44
382.261
385.655
390.987
367.458
369.068
369.135
367.167
369.044
369.22
366.43
367.573
368.129
363.876
366.69
371.251
348.226
350.287
350.293
348.162
349.294
348.835
346.007
347.685
349.9
346.725
348.898
352.531
329.516
332.134
332.027
329.769
330.105
328.997
326.199
328.332
332.315
330.344
331.825
334.264
311.038
314.158
314.025
311.67
311.215
309.44
306.758
309.225
314.874
314.4
315.153
316.172
292.581
296.188
295.971
293.649
292.472
290.006
287.507
290.149
297.403
298.62
298.448
298.022
273.995
278.07
277.74
275.571
273.796
270.622
268.347
271.131
279.795
282.632
281.594
279.709
255.344
259.726
259.276
257.491
255.17
251.276
249.244
252.122
262.012
266.38
264.53
261.202
236.65
241.233
240.625
239.407
236.613
232.002
230.209
233.126
244.008
249.858
247.232
242.493
217.946
222.616
221.813
221.311
218.161
212.855
211.288
214.177
225.788
233.106
229.675
223.609
199.289
203.921
202.89
203.233
199.866
193.913
192.555
195.333
207.396
216.058
211.874
204.603
180.752
185.21
183.913
185.22
181.788
175.269
174.1
176.657
188.89
198.739
193.87
185.536
162.411
166.537
164.932
167.319
163.988
157.034
156.045
158.216
170.332
181.196
175.714
166.476
144.375
148.002
146.138
149.672
146.623
139.432
138.621
140.205
151.796
163.476
157.461
147.607
127.227
130.312
128.442
132.903
130.163
122.979
122.251
123.321
133.851
145.657
139.398
129.801
111.355
113.985
112.169
117.171
114.749
107.721
107.11
107.773
117.17
128.423
122.378
113.396
96.705
98.9694
97.1873
102.532
100.453
93.6525
93.215
93.5821
101.881
112.366
106.669
98.2703
83.3064
85.2868
83.5772
89.175
87.4559
80.7966
80.5472
80.7642
87.9765
97.5881
92.2968
84.4992
71.2774
72.9641
71.3516
77.0777
75.7042
69.2357
69.0837
69.2711
75.4322
84.0954
79.2489
72.138
60.5839
61.974
60.4731
66.1994
65.1553
59.0094
58.8036
59.0564
64.2216
71.8842
67.5115
61.1427
51.1814
52.2805
50.9039
56.5053
55.7698
50.0533
49.7438
50.072
54.3166
60.9515
57.0719
51.4725
43.0145
43.8387
42.6001
47.961
47.5089
42.293
41.97
42.2613
45.6816
51.2907
47.9135
43.0839
36.0011
36.5911
35.5046
40.5271
40.3188
35.5502
35.2211
35.4662
38.2541
42.8834
40.0007
35.9042
29.9282
30.3572
29.4224
34.0887
34.0135
29.6647
29.3164
29.5302
31.8183
35.6135
33.1294
29.7045
24.6917
24.9903
24.2052
28.4759
28.4797
24.6358
24.258
24.452
26.262
29.3119
27.179
24.38
20.319
20.4902
19.8524
23.6492
23.7645
20.4254
19.9927
20.2035
21.6205
23.9557
22.1993
19.965
16.7156
16.7877
16.2857
19.6022
19.8023
16.9436
16.4719
16.6945
17.7966
19.52
18.099
16.3547
13.7824
13.7813
13.3998
16.2508
16.5127
14.0974
13.6186
13.8301
14.6853
15.9044
14.7723
13.4397
11.4211
11.3694
11.0908
13.5069
13.8115
11.7949
11.3334
11.5167
12.1814
13.0008
12.1101
11.1122
9.53781
9.45486
9.26104
11.2843
11.6157
9.94884
9.51939
9.66545
10.1848
10.7006
10.006
9.27084
8.04828
7.94851
7.82249
9.50153
9.84621
8.47936
8.08956
8.1956
8.6041
8.8998
8.36015
7.82406
6.88081
6.77192
6.69831
8.08413
8.43084
7.31553
6.96962
7.03556
7.35857
7.50326
7.08276
6.69253
5.9723
5.85888
5.82371
6.96568
7.30524
6.3961
6.09884
6.12345
6.37971
6.42738
6.09612
5.81064
5.26879
5.15491
5.14545
6.08848
6.41337
5.66897
5.4261
5.40699
5.61079
5.60126
5.33503
5.13018
4.72559
4.61476
4.62041
5.40349
5.70739
5.09309
4.89727
4.84298
5.00582
4.96652
4.74618
4.60185
4.30667
4.20126
4.21407
4.8696
5.14946
4.63663
4.47964
4.39848
4.52973
4.47812
4.28953
4.19243
3.9845
3.88527
3.90055
4.45345
4.70609
4.26874
4.14862
4.04568
4.15322
4.10222
3.93392
3.87706
3.73902
3.64479
3.66145
4.12907
4.34902
3.97023
3.88138
3.75975
3.84977
3.80718
3.66407
3.6301
3.55085
3.4634
3.47926
3.87685
4.06202
3.7323
3.66592
3.53029
3.60453
3.57443
3.4702
3.44032
3.40557
3.32877
3.3404
3.6812
3.835
3.54477
3.49377
3.35034
3.41005
3.396
3.32944
3.29539
3.2956
3.22856
3.23526
3.52806
3.6578
3.39585
3.35665
3.21081
3.25765
3.26176
3.21679
3.18283
3.21433
3.15409
3.15641
3.40755
3.5206
3.27849
3.24714
3.1029
3.13857
3.16123
3.126
3.09363
3.15504
3.10031
3.09972
3.31346
3.41467
3.18772
3.15906
3.01986
3.04526
3.08526
3.05227
3.02176
3.11145
3.06203
3.05641
3.24035
3.33263
3.11542
3.08743
2.95583
2.97163
3.02666
2.99185
2.96279
3.07819
3.03481
3.02253
3.18337
3.26858
3.05634
3.02839
2.90566
2.91301
2.98015
2.94187
2.91357
3.05076
3.01433
2.99484
3.13839
3.21796
3.00723
2.97908
2.86351
2.86596
2.94215
2.90021
2.87195
3.02568
2.99692
2.97067
3.10208
3.17734
2.96595
2.93743
2.82806
2.82801
2.9104
2.86534
2.83644
3.00074
2.97975
2.94768
3.07182
3.14421
2.93093
2.90195
2.79829
2.79746
2.88365
2.83619
2.80557
2.97487
2.96112
2.92362
3.04586
3.11678
2.90125
2.87159
2.77319
2.77314
2.86127
2.81202
2.77827
2.94813
2.94024
2.90059
3.02307
3.09374
2.87605
2.84544
2.75204
2.75427
2.84311
2.79235
2.75421
2.921
2.91716
2.87995
3.00289
3.07409
2.85494
2.82284
2.73454
2.74032
2.82924
2.7769
2.73336
2.89442
2.8927
2.86133
2.98498
3.05705
2.83768
2.80343
2.72053
2.73095
2.81986
2.76542
2.71576
2.86928
2.86808
2.84472
2.96934
3.04189
2.82413
2.78691
2.70999
2.72593
2.81527
2.75765
2.70151
2.84626
2.8446
2.83021
2.95597
3.02795
2.81413
2.77303
2.70293
2.72514
2.8157
2.75364
2.69075
2.8255
2.82335
2.81799
2.94487
3.01458
2.80763
2.76163
2.69942
2.72851
2.82111
2.75301
2.68363
2.80715
2.80478
2.8082
2.93595
3.00123
2.80443
2.75267
2.69956
2.736
2.83117
2.75525
2.68015
2.79164
2.78903
2.80094
2.92904
2.98747
2.80426
2.74616
2.70336
2.74742
2.84454
2.75997
2.68025
2.77923
2.77635
2.7961
2.92376
2.97306
2.8067
2.74225
2.71087
2.76248
2.85947
2.76647
2.68369
2.76997
2.76686
2.79342
2.91959
2.95803
2.81132
2.74115
2.72208
2.78053
2.87503
2.77392
2.69006
2.76385
2.76048
2.79251
2.91591
2.94275
2.81773
2.74313
2.73691
2.80052
2.89088
2.78141
2.6988
2.76108
2.757
2.79306
2.9121
2.92786
2.82551
2.74855
2.75511
2.82197
2.90563
2.78809
2.70923
2.76228
2.75627
2.7948
2.9077
2.91422
2.83462
2.75733
2.77618
2.84474
2.91778
2.79331
2.72062
2.76473
2.75828
2.79764
2.90266
2.9028
2.84655
2.77064
2.79958
2.86726
2.92577
2.79672
2.73228
156509
156509
156509
156509
156509
156509
156509
156509
156509
156509
156509
156509
25851.5
25845.4
25849.8
25852
25851.6
25852.1
25852.5
25853.8
25851.4
25850.4
25850.8
25849.3
8685.32
8675.33
8664.17
8661.18
8681.38
8690.8
8672.71
8674.12
8664.77
8651.58
8656.89
8672.06
4212.05
4205.42
4203.77
4203.57
4210.21
4214.66
4209.93
4210.8
4204.42
4198
4200.75
4206.2
2472.43
2466.77
2467.54
2467.8
2470.93
2474.6
2473.85
2474.42
2467.93
2462.48
2464.99
2468.53
1648.06
1642.9
1644.25
1644.34
1646.61
1650.51
1651.14
1651.46
1644.26
1638.38
1641.24
1644.86
1205.1
1200.46
1201.77
1201.45
1203.76
1208.1
1209.06
1209.14
1201.32
1194.73
1198.07
1202.33
945.271
941.295
942.323
941.525
944.208
948.889
949.633
949.487
941.402
934.215
937.998
942.964
782.405
779.235
779.913
778.535
781.567
786.34
786.603
786.385
778.588
771.041
775.14
780.689
674.356
672.051
672.402
670.499
673.793
678.425
678.093
677.902
670.794
663.145
667.4
673.331
598.889
597.434
597.524
595.161
598.56
602.851
601.932
601.883
595.788
588.261
592.51
598.608
543.563
542.89
542.801
540.038
543.354
547.164
545.746
545.952
541.098
533.88
537.973
544.029
501.077
501.104
500.915
497.796
500.841
504.09
502.3
502.854
499.384
492.634
496.442
502.264
466.971
467.625
467.403
463.959
466.563
469.21
467.187
468.151
466.143
460.011
463.431
468.834
438.418
439.644
439.435
435.701
437.724
439.741
437.61
439.02
438.509
433.144
436.094
440.906
413.556
415.319
415.154
411.176
412.517
413.914
411.726
413.598
414.587
410.144
412.563
416.616
391.12
393.399
393.289
389.142
389.741
390.492
388.336
390.611
393.084
389.721
391.56
394.695
370.224
373
372.948
368.739
368.573
368.62
366.571
369.171
373.09
370.963
372.179
374.252
350.235
353.486
353.49
349.365
348.429
347.718
345.825
348.7
353.952
353.204
353.76
354.643
330.834
334.401
334.46
330.592
328.917
327.398
325.702
328.828
335.2
335.946
335.809
335.561
311.765
315.595
315.542
312.125
309.785
307.408
305.963
309.309
316.713
318.82
317.967
316.741
292.772
296.831
296.654
293.764
290.863
287.614
286.439
289.87
298.24
301.572
300.205
297.879
273.739
277.964
277.642
275.422
272.061
267.966
267.022
270.428
279.616
284.274
282.328
278.851
254.632
258.923
258.428
257.121
253.383
248.502
247.691
250.976
260.744
266.77
264.212
259.638
235.485
239.743
239.053
238.764
234.919
229.307
228.517
231.56
241.654
248.953
245.801
240.285
216.383
220.51
219.611
220.394
216.554
210.363
209.586
212.27
222.432
230.815
227.155
220.885
197.443
201.354
200.241
202.099
198.358
191.7
190.992
193.227
203.207
212.448
208.386
201.571
178.809
182.437
181.119
183.991
180.431
173.447
172.833
174.577
184.15
193.992
189.645
182.506
160.642
163.94
162.441
166.207
162.889
155.736
155.203
156.476
165.461
175.628
171.121
163.872
143.108
146.057
144.418
148.901
145.862
138.699
138.206
139.074
147.363
157.578
153.035
145.856
126.369
128.97
127.232
132.244
129.505
122.478
122.042
122.493
130.065
140.097
135.622
128.623
110.584
112.834
111.038
116.414
113.99
107.239
106.955
106.925
113.723
123.397
119.057
112.318
95.8934
97.7916
95.9779
101.558
99.4565
93.1044
93.0663
92.5687
98.4686
107.628
103.484
97.1488
82.3916
83.9462
82.1531
87.78
86.0038
80.1516
80.3964
79.4608
84.4142
92.9205
89.0315
83.2566
70.127
71.3657
69.6322
75.1621
73.707
68.4129
68.9286
67.5586
71.6442
79.3902
75.8054
70.6311
59.1231
60.0868
58.452
63.7616
62.6148
57.8931
58.5912
56.9209
60.2095
67.1234
63.8795
59.3166
49.3789
50.1154
48.6139
53.6047
52.745
48.572
49.3648
47.5393
50.1218
56.172
53.2907
49.3304
40.8603
41.4176
40.0743
44.6776
44.0696
40.4058
41.2219
39.363
41.3393
46.5408
44.0262
40.6398
33.5094
33.9235
32.7514
36.9223
36.5345
33.3583
34.153
32.3417
33.7968
38.1842
36.03
33.1775
27.2771
27.5689
26.5724
30.2808
30.0979
27.3904
28.1449
26.4236
27.4393
31.0508
29.2496
26.8856
22.0989
22.2873
21.4617
24.7032
24.7021
22.423
23.1465
21.5195
22.1859
25.0896
23.6195
21.688
17.8724
17.9753
17.3081
20.1039
20.2487
18.3521
19.0725
17.5167
17.9159
20.2062
19.0283
17.468
14.4827
14.5126
13.986
16.3703
16.6246
15.0635
15.767
14.2955
14.4987
16.2756
15.3483
14.0992
11.8101
11.7762
11.3687
13.3836
13.7124
12.4409
13.0965
11.7363
11.8031
13.1633
12.4459
11.4536
9.73446
9.64649
9.33484
11.0262
11.398
10.3722
10.9584
9.72535
9.70315
10.7352
10.1898
9.4083
8.1399
8.01195
7.77322
9.18721
9.57524
8.75441
9.26279
8.16068
8.0837
8.8645
8.45758
7.84982
6.92101
6.77235
6.58566
7.76562
8.14923
7.49704
7.92896
6.95407
6.84344
7.43698
7.13986
6.67757
5.98928
5.84005
5.68908
6.67364
7.0391
6.52398
6.88568
6.029
5.89731
6.35469
6.14396
5.80473
5.27617
5.14056
5.01585
5.83817
6.17871
5.77362
6.07139
5.32143
5.1783
5.53748
5.39477
5.15779
4.73104
4.61364
4.51321
5.20098
5.5111
5.18094
5.4326
4.78026
4.63386
4.92246
4.83417
4.66402
4.31424
4.21519
4.14071
4.71731
4.98074
4.70025
4.92279
4.35497
4.21214
4.45096
4.40433
4.27779
3.99005
3.91047
3.86164
4.34507
4.55125
4.31291
4.50996
4.013
3.87733
4.07893
4.06933
3.97274
3.73497
3.67376
3.64905
4.05321
4.20741
4.00593
4.18008
3.74209
3.61413
3.78537
3.81673
3.73552
3.53676
3.48979
3.48545
3.82429
3.93707
3.7662
3.91857
3.53382
3.41154
3.55866
3.61967
3.55373
3.38604
3.3485
3.36114
3.64575
3.72777
3.58069
3.71213
3.37407
3.25817
3.38682
3.46038
3.40748
3.27447
3.24169
3.2683
3.50748
3.56698
3.43835
3.55219
3.25021
3.14261
3.2572
3.33214
3.29066
3.19374
3.16262
3.19885
3.40061
3.44334
3.32975
3.42509
3.15282
3.05484
3.15859
3.22902
3.19885
3.13581
3.10515
3.14472
3.31728
3.34737
3.24431
3.32185
3.07471
2.98692
3.08217
3.14481
3.12586
3.09353
3.06354
3.09988
3.25094
3.27163
3.1713
3.23673
3.0098
2.93296
3.02144
3.07479
3.06625
3.06096
3.0327
3.06391
3.19656
3.21062
3.10852
3.16522
2.95423
2.88885
2.97192
3.01559
3.0159
3.03366
3.00842
3.03303
3.15059
3.16047
3.05421
3.10396
2.90719
2.85195
2.93067
2.96502
2.97183
3.00862
2.98754
3.00459
3.11072
3.1186
3.00715
3.05081
2.86721
2.82063
2.89594
2.92158
2.93199
2.98397
2.96783
2.9771
3.0755
3.08334
2.96658
3.00435
2.83311
2.79397
2.86673
2.88415
2.89521
2.95876
2.94784
2.9501
3.04407
3.05364
2.93201
2.96361
2.8041
2.77148
2.84257
2.85211
2.86103
2.93274
2.9268
2.92393
3.01595
3.02879
2.90247
2.92787
2.77961
2.75297
2.82328
2.8251
2.82942
2.90623
2.90456
2.89912
2.99084
3.00823
2.87723
2.89658
2.75906
2.7384
2.80879
2.80299
2.80057
2.87994
2.88152
2.87554
2.9686
2.99149
2.85611
2.86924
2.74195
2.72775
2.79909
2.7861
2.77479
2.85478
2.85851
2.85366
2.94924
2.97808
2.83908
2.84542
2.72811
2.72096
2.79412
2.77318
2.75228
2.83164
2.83665
2.83431
2.93282
2.96743
2.82603
2.82467
2.71764
2.71801
2.79378
2.76414
2.73346
2.81105
2.81662
2.81823
2.91937
2.95889
2.81688
2.80661
2.7107
2.71888
2.79775
2.75891
2.71881
2.79335
2.79872
2.80587
2.90888
2.95169
2.81142
2.79106
2.70751
2.72354
2.80582
2.75756
2.70862
2.77891
2.78333
2.79633
2.90125
2.94509
2.8093
2.77792
2.7083
2.73189
2.81744
2.75977
2.70331
2.76804
2.77077
2.78999
2.89623
2.93838
2.81006
2.76721
2.71331
2.74378
2.83207
2.76487
2.70285
2.76086
2.76118
2.78664
2.89335
2.93097
2.81317
2.75906
2.72272
2.75897
2.84909
2.77193
2.70664
2.75719
2.75443
2.78576
2.89197
2.92245
2.81819
2.75367
2.73657
2.77723
2.86739
2.77994
2.71378
2.75658
2.75019
2.78671
2.89126
2.91269
2.82431
2.75134
2.75469
2.79825
2.88549
2.78776
2.72351
2.75826
2.74779
2.7889
2.89027
2.9019
2.82942
2.75228
2.77666
2.82146
2.90188
2.79447
2.73477
2.76116
2.74695
2.79187
2.88811
2.89072
2.83392
2.75688
2.80177
2.84606
2.91501
2.79937
2.7463
2.76435
2.74759
2.7955
2.88426
2.88001
2.83872
2.76517
2.82909
2.87138
2.92396
2.80211
2.75689
156509
156509
156509
156509
156509
156509
156509
156509
156509
156509
156509
156509
25883.3
25876.3
25882.1
25885.6
25883.2
25882.6
25885
25886.7
25884.5
25883.3
25883.5
25881.6
8926.91
8920.8
8925.53
8928.12
8926.48
8926.65
8928.87
8930.17
8927.27
8925.34
8926.03
8925.19
4298.63
4293.23
4297.01
4298.7
4297.83
4298.94
4300.98
4301.98
4298.05
4295.05
4296.38
4296.83
2513.17
2508.28
2511.39
2512.19
2512.03
2514.1
2515.92
2516.72
2511.74
2507.52
2509.56
2511.31
1671.32
1667.01
1669.58
1669.45
1669.94
1672.84
1674.32
1674.99
1669.24
1663.9
1666.6
1669.54
1220.48
1216.93
1219.03
1217.96
1218.98
1222.45
1223.45
1224.07
1218.04
1211.84
1215.07
1219
956.686
954.075
955.779
953.76
955.14
958.884
959.308
959.978
954.215
947.488
951.082
955.711
791.304
789.707
791.081
788.298
789.899
793.652
793.466
794.213
789.09
782.189
785.933
790.965
681.486
680.889
682.018
678.565
680.171
683.684
682.935
683.886
679.778
673
676.699
681.848
604.691
605.012
605.982
601.97
603.379
606.479
605.267
606.529
603.672
597.255
600.743
605.758
548.322
549.443
550.333
545.871
546.914
549.501
547.947
549.595
548.104
542.234
545.384
550.053
504.984
506.783
507.653
502.849
503.399
505.425
503.645
505.718
505.616
500.446
503.168
507.313
470.148
472.514
473.401
468.366
468.35
469.791
467.873
470.375
471.626
467.286
469.525
473
440.932
443.771
444.686
439.548
438.94
439.773
437.774
440.683
443.216
439.823
441.548
444.228
415.44
418.669
419.6
414.507
413.324
413.514
411.469
414.74
418.471
416.121
417.316
419.102
392.387
395.925
396.842
391.966
390.256
389.744
387.674
391.267
396.105
394.862
395.519
396.336
370.89
374.647
375.511
371.039
368.87
367.583
365.502
369.258
375.093
375.132
375.24
375.041
350.207
354.1
354.941
351.105
348.551
346.429
344.311
348.127
354.805
356.249
355.832
354.492
329.949
333.898
334.651
331.733
328.872
325.869
323.709
327.453
334.844
337.635
336.693
334.295
309.815
313.791
314.41
312.641
309.529
305.637
303.443
306.943
314.939
319.043
317.572
314.135
289.717
293.604
294.049
293.491
290.331
285.574
283.402
286.538
294.902
300.324
298.317
293.923
269.577
273.262
273.493
274.188
270.997
265.536
263.576
266.167
274.645
281.316
278.812
273.582
249.389
252.771
252.752
254.65
251.499
245.503
243.988
245.83
254.164
261.969
259.026
253.105
229.207
232.192
231.891
235.014
231.814
225.486
224.648
225.575
233.515
242.305
238.993
232.543
209.119
211.627
211.015
215.319
212.158
205.652
205.614
205.485
212.801
222.404
218.797
211.987
189.239
191.203
190.251
195.639
192.596
186.168
186.975
185.663
192.151
202.376
198.552
191.55
169.689
171.052
169.725
176.062
173.212
167.119
168.834
166.215
171.7
182.352
178.385
171.351
150.588
151.299
149.569
156.676
154.099
148.586
151.291
147.25
151.582
162.454
158.416
151.51
132.082
132.155
130.201
137.653
135.392
130.673
134.426
129.002
132.113
142.833
138.843
132.324
114.682
114.328
112.37
119.759
117.681
113.791
118.428
112.107
114.055
124.154
120.451
114.565
98.835
98.154
96.2365
103.374
101.454
98.3473
103.559
96.7754
97.6672
106.983
103.644
98.4844
84.595
83.6483
81.7829
88.5337
86.7802
84.4038
89.8932
82.939
82.9692
91.4248
88.4777
84.0108
71.9174
70.7642
68.9616
75.2142
73.6439
71.9375
77.4486
70.5993
69.929
77.4813
74.9328
71.0662
60.741
59.4423
57.7165
63.3861
62.0151
60.9144
66.2441
59.7836
58.496
65.1303
62.9718
59.6864
50.9998
49.6165
47.984
53.0159
51.8588
51.2928
56.3347
50.3713
48.6092
54.334
52.5455
49.8117
42.6183
41.2114
39.6908
44.0631
43.1293
42.9959
47.6697
42.2477
40.1898
45.0402
43.5917
41.363
35.4651
34.1056
32.7064
36.445
35.6779
35.8117
40.0905
35.1899
33.0314
37.1504
35.9982
34.2014
29.3218
28.0472
26.769
29.911
29.2897
29.6132
33.4555
29.0757
26.939
30.4094
29.5106
28.0844
24.104
22.9272
21.7743
24.349
23.9065
24.4159
27.7658
23.9277
21.8747
24.6975
24.0182
22.9241
19.7946
18.7405
17.7168
19.7838
19.498
20.1247
22.9754
19.6603
17.7597
20.0215
19.5244
18.7102
16.2754
15.3595
14.4648
16.0923
15.9366
16.6223
18.9883
16.1675
14.4616
16.2502
15.9012
15.3157
13.4286
12.6582
11.889
13.1478
13.0939
13.7922
15.7117
13.341
11.8501
13.2496
13.0187
12.6139
11.1436
10.5182
9.86857
10.8278
10.8482
11.525
13.0541
11.0732
9.8026
10.8906
10.7522
10.484
9.32167
8.83305
8.29578
9.01915
9.08859
9.72127
10.9248
9.25911
8.2087
9.05437
8.98741
8.81652
7.87838
7.5108
7.07764
7.62121
7.71684
8.29327
9.23686
7.82718
6.97196
7.63559
7.62351
7.51619
6.7429
6.47479
6.13694
6.54744
6.64889
7.16513
7.91047
6.72031
6.0094
6.54414
6.57443
6.50311
5.85551
5.66343
5.41133
5.72475
5.81851
6.27421
6.87494
5.86913
5.24979
5.70469
5.76825
5.71255
5.16543
5.02859
4.85136
5.09525
5.17512
5.57369
6.06977
5.20939
4.66521
5.05855
5.14886
5.09584
4.62993
4.53272
4.41809
4.61639
4.66752
5.01362
5.43899
4.69197
4.21699
4.56329
4.67556
4.61923
4.21544
4.1464
4.08253
4.24929
4.26078
4.56073
4.9346
4.28704
3.87672
4.18296
4.31223
4.24737
3.89715
3.84721
3.82476
3.96291
3.92911
4.20237
4.5328
3.96776
3.61687
3.88684
4.03152
3.9531
3.65104
3.61793
3.62458
3.73971
3.68107
3.92379
4.22221
3.7152
3.41715
3.6552
3.81252
3.7252
3.4583
3.44181
3.46801
3.56574
3.5029
3.7069
3.9886
3.51748
3.2642
3.47473
3.6389
3.55361
3.30894
3.30516
3.34874
3.43506
3.373
3.5413
3.81389
3.36369
3.14658
3.33338
3.50105
3.42926
3.19535
3.19993
3.2601
3.3408
3.27542
3.42083
3.67599
3.24379
3.0559
3.22114
3.38996
3.33707
3.10987
3.11991
3.19426
3.27098
3.19923
3.32702
3.5632
3.14933
2.98522
3.13026
3.29777
3.26738
3.04547
3.05936
3.14796
3.21553
3.13728
3.24871
3.46383
3.07375
2.9291
3.05517
3.2186
3.21298
2.99621
3.01319
3.11284
3.1681
3.08513
3.18201
3.37784
3.01219
2.88348
2.99203
3.14847
3.16929
2.95749
2.97708
3.0821
3.12499
3.04014
3.12369
3.30476
2.96163
2.84552
2.93839
3.08525
3.13076
2.92575
2.94761
3.05258
3.0844
3.00088
3.07185
3.23939
2.91891
2.81348
2.89273
3.0295
3.0933
2.89839
2.92221
3.02269
3.04584
2.96671
3.02558
3.18035
2.88231
2.78639
2.8541
2.97954
3.05432
2.87366
2.89895
2.9921
3.00954
2.93731
2.98458
3.127
2.85081
2.76333
2.82189
2.93277
3.0133
2.85056
2.87629
2.96143
2.97605
2.9125
2.94885
3.07879
2.82381
2.74368
2.79572
2.89069
2.97068
2.82874
2.8547
2.93154
2.946
2.89201
2.91789
3.03533
2.80058
2.72731
2.7753
2.85417
2.92765
2.80828
2.83428
2.90276
2.91957
2.87567
2.89122
2.99624
2.78056
2.71417
2.76033
2.82348
2.88591
2.78948
2.81525
2.87557
2.89673
2.86347
2.86887
2.96113
2.76364
2.70435
2.75043
2.79819
2.84732
2.77265
2.79786
2.85057
2.87772
2.85542
2.85097
2.92961
2.74985
2.69795
2.74532
2.77922
2.8135
2.75809
2.78244
2.82801
2.86282
2.85127
2.83756
2.9013
2.73932
2.69508
2.74489
2.76604
2.78551
2.74612
2.76922
2.80831
2.85157
2.85058
2.82851
2.87589
2.73229
2.6958
2.7489
2.75803
2.76329
2.73688
2.7584
2.79195
2.84333
2.85264
2.82351
2.85305
2.72907
2.70019
2.7571
2.7545
2.74671
2.72993
2.75004
2.78053
2.83788
2.85616
2.82206
2.83255
2.73006
2.70834
2.76902
2.7549
2.73576
2.72618
2.74404
2.77356
2.83559
2.85998
2.82337
2.81435
2.73573
2.72046
2.78401
2.75849
2.7304
2.72588
2.74011
2.77048
2.83599
2.86275
2.82645
2.79861
2.74646
2.73663
2.80117
2.76437
2.73035
2.72867
2.73781
2.77054
2.83831
2.86359
2.82983
2.78564
2.76246
2.75666
2.81947
2.7715
2.73505
2.73395
2.73666
2.77291
2.8416
2.86181
2.83144
2.77571
2.78369
2.77972
2.83772
2.77886
2.74322
2.74098
2.73635
2.77685
2.84466
2.85829
2.8322
2.76908
2.80973
2.80551
2.85469
2.78547
2.75322
2.74874
2.73622
2.78172
2.84594
2.85352
2.83074
2.76601
2.83945
2.83326
2.86928
2.79059
2.76349
2.75616
2.73591
2.78709
2.84367
2.8475
2.82603
2.76663
2.87115
2.86182
2.88072
2.7938
2.77212
156509
156509
156509
156509
156509
156509
156509
156509
156509
156509
156509
156509
25865
25857.1
25862.9
25866.3
25863.8
25863.1
25865.8
25868.2
25865.5
25862.5
25863.2
25862.8
8661.83
8656.81
8660.31
8659.27
8657.45
8657.15
8658.62
8662.05
8661.93
8656.04
8656.9
8659.17
4213.13
4208.05
4211.38
4211.49
4210.58
4211.69
4213.36
4215.36
4212.31
4207.29
4208.85
4210.91
2480.92
2476.4
2479.25
2478.85
2478.67
2480.82
2482.28
2483.81
2479.5
2474.01
2476.19
2478.9
1659.44
1655.72
1658.08
1656.76
1657.14
1660.05
1661.12
1662.51
1657.72
1651.57
1654.25
1657.68
1217.57
1214.84
1216.76
1214.42
1215.18
1218.52
1219.1
1220.52
1215.88
1209.27
1212.26
1216.24
957.892
956.24
957.774
954.494
955.432
958.859
958.961
960.494
956.528
949.761
952.878
957.132
794.681
794.102
795.334
791.274
792.188
795.387
794.833
796.788
793.892
787.29
790.34
794.583
686.004
686.404
687.432
682.791
683.496
686.229
685.115
687.55
685.953
679.787
682.614
686.592
609.76
610.995
611.911
606.898
607.25
609.359
607.788
610.735
610.519
604.998
607.495
611.004
553.574
555.487
556.369
551.185
551.096
552.487
550.545
554.003
555.134
550.415
552.523
555.408
510.167
512.608
513.517
508.357
507.794
508.414
506.156
510.085
512.458
508.66
510.361
512.512
475.066
477.906
478.882
473.943
472.921
472.728
470.181
474.503
477.978
475.196
476.501
477.842
445.413
448.543
449.604
445.093
443.662
442.616
439.787
444.389
448.815
447.128
448.061
448.545
419.314
422.639
423.792
419.918
418.152
416.216
413.108
417.838
423.062
422.542
423.13
422.737
395.478
398.912
400.149
397.126
395.105
392.258
388.887
393.555
399.413
400.131
400.397
399.131
373.008
376.474
377.774
375.81
373.607
369.867
366.273
370.796
377.106
378.983
378.952
376.839
351.45
354.831
356.078
355.321
352.997
348.432
344.727
348.931
355.529
358.497
358.133
355.376
330.332
333.52
334.704
335.204
332.808
327.529
323.857
327.551
334.215
338.361
337.684
334.278
309.36
312.246
313.342
315.042
312.723
306.886
303.416
306.387
312.872
318.211
317.255
313.246
288.38
290.885
291.868
294.898
292.443
286.342
283.264
285.315
291.377
297.835
296.627
292.151
267.357
269.418
270.262
274.638
272.12
265.888
263.368
264.31
269.712
277.175
275.755
270.964
246.334
247.904
248.593
254.208
251.664
245.495
243.776
243.418
247.948
256.262
254.678
249.731
225.411
226.467
226.99
233.637
231.061
225.184
224.407
222.737
226.219
235.197
233.506
228.561
204.732
205.281
205.636
213.058
210.404
205.051
205.334
202.401
204.713
214.143
212.404
207.611
184.473
184.545
184.738
192.646
189.864
185.227
186.657
182.567
183.651
193.305
191.579
187.068
164.826
164.475
164.518
172.609
169.656
165.876
168.49
163.397
163.266
172.918
171.261
167.136
145.984
145.283
145.188
153.175
150.029
147.183
150.956
145.042
143.789
153.231
151.693
148.016
128.129
127.153
126.925
134.568
131.241
129.352
134.183
127.622
125.417
134.488
133.105
129.889
111.41
110.228
109.874
116.987
113.533
112.577
118.306
111.223
108.304
116.89
115.682
112.899
95.9428
94.6254
94.1647
100.605
97.0941
97.0131
103.454
96.0098
92.5732
100.585
99.5557
97.1587
81.8186
80.4345
79.8934
85.5661
82.0783
82.7771
89.7398
82.1916
78.3121
85.6803
84.8279
82.7209
69.0936
67.7054
67.1133
71.9755
68.5948
69.9466
77.2324
69.7968
65.5657
72.2463
71.5632
69.7743
57.7874
56.4479
55.8349
59.8927
56.6999
58.5582
65.9553
58.7627
54.3371
60.3136
59.7884
58.3521
47.8735
46.624
46.0213
49.322
46.3762
48.5851
55.8929
49.0027
44.5788
49.8636
49.4805
48.3634
39.2857
38.1548
37.5899
40.2066
37.549
39.9619
47.0003
40.4756
36.2083
40.8276
40.5695
39.6823
31.9558
30.9579
30.4468
32.4651
30.1393
32.6276
39.2297
33.1463
29.1489
33.129
32.9787
32.2728
25.8175
24.9583
24.5087
26.0243
24.0586
26.5037
32.5337
26.9637
23.3165
26.7001
26.6391
26.0764
20.7707
20.0512
19.6682
20.7809
19.1724
21.4718
26.8471
21.837
18.589
21.4386
21.4488
20.9942
16.6881
16.1012
15.7865
16.5901
15.3156
17.3999
22.0884
17.6565
14.8238
17.2059
17.2709
16.8942
13.4377
12.9705
12.7224
13.2992
12.3213
14.1528
18.166
14.3034
11.8758
13.8571
13.9635
13.639
10.8899
10.5255
10.3389
10.7572
10.0307
11.599
14.9802
11.6584
9.60457
11.2494
11.3865
11.0941
8.92155
8.64149
8.50873
8.82242
8.30117
9.61552
12.4283
9.60872
7.88041
9.24787
9.40806
9.13286
7.41913
7.20666
7.11894
7.36843
7.01058
8.09205
10.4089
8.05441
6.58866
7.73064
7.90953
7.64144
6.28193
6.12422
6.0729
6.2876
6.04553
6.9337
8.8274
6.87931
5.6331
6.59275
6.78916
6.52113
5.42585
5.31325
5.29114
5.4926
5.30356
6.05095
7.59952
5.97624
4.93787
5.74763
5.96061
5.68993
4.78318
4.70819
4.71047
4.89617
4.72228
5.35963
6.65315
5.28103
4.44677
5.10707
5.33617
5.06677
4.30088
4.25748
4.28209
4.43647
4.26656
4.81076
5.91116
4.74412
4.07814
4.6088
4.85733
4.58896
3.93093
3.91885
3.95965
4.08452
3.92517
4.38527
5.31479
4.32504
3.79265
4.22242
4.49502
4.22433
3.64065
3.65867
3.71192
3.82046
3.69745
4.06636
4.83979
3.99518
3.56992
3.9253
4.22351
3.95412
3.41462
3.45724
3.52478
3.62651
3.55936
3.83495
4.47114
3.73601
3.39481
3.69829
4.01554
3.76096
3.24201
3.30341
3.38803
3.4865
3.4568
3.67159
4.19095
3.53492
3.25692
3.52446
3.85248
3.62379
3.11262
3.18783
3.29239
3.39886
3.36812
3.55989
3.98102
3.38243
3.15043
3.38907
3.72332
3.52506
3.01666
3.10214
3.22819
3.33869
3.28981
3.47904
3.82514
3.26741
3.06899
3.28046
3.61708
3.45117
2.94539
3.03805
3.18593
3.28774
3.21975
3.40578
3.71084
3.17979
3.00495
3.19015
3.52437
3.3971
2.89137
2.98653
3.16243
3.24059
3.15649
3.34157
3.62783
3.11142
2.95256
3.11254
3.43745
3.35439
2.84724
2.94699
3.14307
3.19547
3.0991
3.28506
3.56885
3.05626
2.90809
3.04434
3.3523
3.31579
2.80917
2.91613
3.12608
3.15126
3.04711
3.23251
3.51771
3.01029
2.86945
2.98382
3.26768
3.27536
2.77711
2.89005
3.10811
3.10744
3.00036
3.18192
3.4634
2.97115
2.83548
2.93023
3.18421
3.23154
2.7503
2.86649
3.08677
3.06415
2.95885
3.13272
3.40589
2.93758
2.80547
2.8832
3.10222
3.1839
2.72794
2.84452
3.06087
3.02189
2.92251
3.08531
3.34798
2.90827
2.77904
2.84247
3.02597
3.13286
2.70943
2.82429
3.03045
2.98146
2.89122
3.04059
3.29362
2.88221
2.75642
2.80787
2.96055
3.079
2.69431
2.80672
2.99669
2.94369
2.86428
2.99951
3.24278
2.85874
2.73769
2.7792
2.90581
3.02357
2.68235
2.79104
2.96136
2.90905
2.8412
2.96289
3.1943
2.83842
2.7223
2.75605
2.86098
2.96854
2.67347
2.77727
2.9263
2.87729
2.82196
2.93115
3.14829
2.82103
2.70991
2.73797
2.8249
2.91618
2.66758
2.76554
2.89266
2.84822
2.80654
2.90427
3.10489
2.80612
2.70033
2.72466
2.79599
2.86866
2.66456
2.75592
2.86134
2.82221
2.79474
2.88202
3.0641
2.79369
2.69351
2.71578
2.77313
2.82774
2.66426
2.7483
2.83352
2.79976
2.78652
2.86446
3.02589
2.78389
2.68954
2.71094
2.75595
2.79453
2.6665
2.7426
2.80997
2.78201
2.78178
2.85148
2.99107
2.77702
2.68854
2.70966
2.744
2.76855
2.67124
2.73865
2.79116
2.76989
2.78039
2.84256
2.95793
2.77355
2.6904
2.71152
2.73679
2.74918
2.6789
2.7362
2.77709
2.76344