/*--------------------------------*- C++ -*----------------------------------*\
| =========                 |                                                 |
| \\      /  F ield         | OpenFOAM: The Open Source CFD Toolbox           |
|  \\    /   O peration     | Version:  v1912                                 |
|   \\  /    A nd           | Website:  www.openfoam.com                      |
|    \\/     M anipulation  |                                                 |
\*---------------------------------------------------------------------------*/
FoamFile
{
    version     2.0;
    format      ascii;
    class       volScalarField;
    location    "8";
    object      pPrime2Mean;
}
// * * * * * * * * * * * * * * * * * * * * * * * * * * * * * * * * * * * * * //

dimensions      [2 -2 -4 0 0 0 0];


internalField   nonuniform List<scalar> 
34128
(
4137.2
4137.24
4137.25
4137.25
4137.24
4137.21
4137.16
4137.08
4136.99
4136.86
4136.71
4136.52
4132.73
4132.77
4132.78
4132.78
4132.76
4132.74
4132.68
4132.61
4132.52
4132.39
4132.25
4132.06
4125.81
4125.84
4125.85
4125.85
4125.84
4125.81
4125.76
4125.69
4125.6
4125.48
4125.34
4125.15
4121.32
4121.35
4121.36
4121.36
4121.34
4121.32
4121.27
4121.2
4121.11
4120.99
4120.85
4120.68
4120.14
4120.18
4120.18
4120.18
4120.17
4120.14
4120.09
4120.03
4119.94
4119.82
4119.68
4119.5
4120.19
4120.22
4120.23
4120.23
4120.21
4120.19
4120.14
4120.07
4119.98
4119.86
4119.72
4119.55
4120.23
4120.27
4120.27
4120.27
4120.26
4120.23
4120.18
4120.12
4120.02
4119.91
4119.77
4119.59
4120.26
4120.3
4120.31
4120.31
4120.29
4120.27
4120.22
4120.15
4120.06
4119.94
4119.8
4119.62
4120.29
4120.33
4120.33
4120.33
4120.32
4120.29
4120.24
4120.18
4120.08
4119.97
4119.82
4119.65
4120.31
4120.34
4120.35
4120.35
4120.34
4120.31
4120.26
4120.19
4120.1
4119.98
4119.84
4119.66
4120.32
4120.35
4120.36
4120.36
4120.35
4120.32
4120.27
4120.2
4120.11
4119.99
4119.85
4119.67
4120.32
4120.36
4120.36
4120.36
4120.35
4120.32
4120.27
4120.21
4120.11
4119.99
4119.85
4119.67
4120.31
4120.35
4120.36
4120.36
4120.35
4120.32
4120.27
4120.2
4120.11
4119.99
4119.84
4119.66
4120.3
4120.34
4120.35
4120.35
4120.34
4120.31
4120.26
4120.19
4120.09
4119.97
4119.83
4119.65
4120.28
4120.32
4120.33
4120.33
4120.32
4120.29
4120.24
4120.17
4120.07
4119.95
4119.81
4119.63
4120.25
4120.3
4120.3
4120.3
4120.29
4120.26
4120.21
4120.14
4120.05
4119.93
4119.78
4119.6
4120.22
4120.26
4120.27
4120.27
4120.26
4120.23
4120.18
4120.11
4120.01
4119.89
4119.74
4119.57
4120.18
4120.22
4120.23
4120.23
4120.22
4120.19
4120.14
4120.07
4119.97
4119.85
4119.7
4119.52
4120.13
4120.18
4120.19
4120.19
4120.18
4120.15
4120.1
4120.02
4119.93
4119.8
4119.65
4119.47
4120.08
4120.12
4120.13
4120.14
4120.12
4120.1
4120.04
4119.97
4119.87
4119.75
4119.6
4119.42
4120.02
4120.06
4120.08
4120.08
4120.06
4120.04
4119.98
4119.91
4119.81
4119.69
4119.54
4119.36
4119.95
4120
4120.01
4120.01
4120
4119.97
4119.92
4119.85
4119.74
4119.62
4119.47
4119.29
4119.88
4119.93
4119.94
4119.94
4119.93
4119.9
4119.85
4119.77
4119.67
4119.54
4119.39
4119.21
4119.8
4119.85
4119.86
4119.86
4119.85
4119.82
4119.77
4119.69
4119.59
4119.46
4119.31
4119.13
4119.71
4119.76
4119.78
4119.78
4119.77
4119.74
4119.69
4119.61
4119.51
4119.38
4119.22
4119.04
4119.62
4119.67
4119.69
4119.69
4119.68
4119.65
4119.6
4119.52
4119.41
4119.28
4119.13
4118.95
4119.53
4119.58
4119.59
4119.6
4119.59
4119.56
4119.5
4119.42
4119.32
4119.19
4119.03
4118.85
4119.42
4119.47
4119.49
4119.5
4119.48
4119.45
4119.4
4119.32
4119.21
4119.08
4118.93
4118.75
4119.31
4119.37
4119.38
4119.39
4119.38
4119.35
4119.29
4119.21
4119.11
4118.97
4118.82
4118.63
4119.2
4119.25
4119.27
4119.28
4119.27
4119.24
4119.18
4119.1
4118.99
4118.86
4118.7
4118.52
4119.08
4119.14
4119.16
4119.16
4119.15
4119.12
4119.06
4118.98
4118.87
4118.74
4118.58
4118.4
4118.96
4119.01
4119.03
4119.04
4119.03
4119
4118.94
4118.86
4118.75
4118.61
4118.45
4118.27
4118.83
4118.88
4118.91
4118.92
4118.91
4118.87
4118.81
4118.73
4118.62
4118.48
4118.32
4118.14
4118.69
4118.75
4118.78
4118.79
4118.77
4118.74
4118.68
4118.6
4118.49
4118.35
4118.19
4118
4118.56
4118.62
4118.64
4118.65
4118.64
4118.61
4118.55
4118.46
4118.35
4118.21
4118.05
4117.86
4118.41
4118.48
4118.5
4118.51
4118.5
4118.47
4118.41
4118.32
4118.21
4118.07
4117.9
4117.72
4118.27
4118.33
4118.36
4118.37
4118.36
4118.33
4118.26
4118.18
4118.06
4117.92
4117.75
4117.57
4118.12
4118.18
4118.21
4118.22
4118.21
4118.18
4118.12
4118.03
4117.91
4117.77
4117.6
4117.42
4117.97
4118.03
4118.06
4118.07
4118.06
4118.03
4117.96
4117.88
4117.76
4117.61
4117.45
4117.26
4117.81
4117.88
4117.91
4117.92
4117.91
4117.88
4117.81
4117.72
4117.6
4117.46
4117.29
4117.1
4117.65
4117.72
4117.75
4117.76
4117.75
4117.72
4117.65
4117.56
4117.44
4117.29
4117.13
4116.94
4117.49
4117.56
4117.59
4117.61
4117.6
4117.56
4117.49
4117.4
4117.28
4117.13
4116.96
4116.78
4117.32
4117.39
4117.43
4117.45
4117.44
4117.4
4117.33
4117.24
4117.12
4116.97
4116.79
4116.61
4117.16
4117.23
4117.27
4117.28
4117.27
4117.24
4117.17
4117.07
4116.95
4116.8
4116.63
4116.44
4116.99
4117.06
4117.1
4117.12
4117.11
4117.07
4117
4116.9
4116.78
4116.63
4116.46
4116.27
4116.82
4116.89
4116.94
4116.95
4116.94
4116.9
4116.83
4116.74
4116.61
4116.46
4116.28
4116.1
4116.65
4116.73
4116.77
4116.79
4116.78
4116.74
4116.67
4116.57
4116.44
4116.28
4116.11
4115.93
4116.48
4116.56
4116.6
4116.62
4116.61
4116.57
4116.5
4116.4
4116.27
4116.11
4115.94
4115.75
4116.3
4116.38
4116.43
4116.45
4116.44
4116.4
4116.33
4116.22
4116.09
4115.94
4115.76
4115.58
4116.13
4116.21
4116.26
4116.28
4116.27
4116.23
4116.16
4116.05
4115.92
4115.76
4115.59
4115.4
4115.96
4116.04
4116.09
4116.11
4116.1
4116.06
4115.99
4115.88
4115.75
4115.59
4115.41
4115.23
4115.79
4115.87
4115.92
4115.95
4115.94
4115.89
4115.82
4115.71
4115.58
4115.42
4115.24
4115.06
4115.62
4115.71
4115.76
4115.78
4115.77
4115.73
4115.65
4115.54
4115.41
4115.25
4115.07
4114.88
4115.45
4115.54
4115.59
4115.61
4115.6
4115.56
4115.48
4115.37
4115.24
4115.07
4114.9
4114.71
4115.29
4115.37
4115.43
4115.45
4115.44
4115.4
4115.32
4115.21
4115.07
4114.91
4114.73
4114.54
4115.12
4115.21
4115.27
4115.29
4115.28
4115.24
4115.15
4115.04
4114.9
4114.74
4114.56
4114.38
4114.96
4115.05
4115.11
4115.13
4115.12
4115.08
4114.99
4114.88
4114.74
4114.58
4114.4
4114.21
4114.8
4114.89
4114.95
4114.98
4114.97
4114.92
4114.84
4114.72
4114.58
4114.42
4114.24
4114.05
4114.65
4114.74
4114.8
4114.82
4114.82
4114.77
4114.68
4114.57
4114.42
4114.26
4114.08
4113.9
4114.5
4114.59
4114.65
4114.68
4114.67
4114.62
4114.53
4114.42
4114.27
4114.11
4113.93
4113.75
4114.35
4114.44
4114.51
4114.53
4114.52
4114.48
4114.39
4114.27
4114.13
4113.96
4113.78
4113.6
4114.21
4114.31
4114.37
4114.4
4114.39
4114.34
4114.25
4114.13
4113.98
4113.82
4113.64
4113.46
4114.08
4114.17
4114.24
4114.27
4114.26
4114.21
4114.12
4114
4113.85
4113.68
4113.5
4113.32
4113.95
4114.05
4114.11
4114.14
4114.13
4114.08
4113.99
4113.87
4113.72
4113.55
4113.37
4113.19
4113.83
4113.93
4114
4114.03
4114.02
4113.97
4113.88
4113.75
4113.6
4113.43
4113.25
4113.08
4113.73
4113.82
4113.89
4113.92
4113.91
4113.86
4113.77
4113.65
4113.49
4113.32
4113.14
4112.97
4113.63
4113.73
4113.8
4113.83
4113.82
4113.77
4113.68
4113.55
4113.4
4113.23
4113.05
4112.87
4113.55
4113.65
4113.72
4113.75
4113.74
4113.69
4113.6
4113.47
4113.32
4113.14
4112.97
4112.79
4113.48
4113.58
4113.65
4113.68
4113.68
4113.62
4113.53
4113.4
4113.25
4113.08
4112.9
4112.73
4113.44
4113.54
4113.61
4113.64
4113.63
4113.58
4113.49
4113.36
4113.21
4113.04
4112.86
4112.69
4113.41
4113.52
4113.59
4113.62
4113.61
4113.56
4113.47
4113.34
4113.19
4113.01
4112.84
4112.67
4113.42
4113.52
4113.6
4113.63
4113.62
4113.57
4113.47
4113.35
4113.19
4113.02
4112.84
4112.67
4113.45
4113.56
4113.63
4113.66
4113.66
4113.6
4113.51
4113.38
4113.23
4113.06
4112.88
4112.71
4113.52
4113.62
4113.7
4113.73
4113.73
4113.67
4113.58
4113.45
4113.3
4113.13
4112.96
4112.79
4113.62
4113.72
4113.8
4113.84
4113.83
4113.78
4113.69
4113.56
4113.41
4113.23
4113.06
4112.89
4113.75
4113.85
4113.93
4113.97
4113.96
4113.91
4113.82
4113.69
4113.54
4113.37
4113.19
4113.02
4113.89
4114
4114.08
4114.12
4114.12
4114.06
4113.97
4113.84
4113.69
4113.52
4113.34
4113.18
4114.05
4114.16
4114.24
4114.28
4114.28
4114.22
4114.13
4114
4113.85
4113.68
4113.5
4113.34
4114.19
4114.3
4114.39
4114.43
4114.43
4114.38
4114.29
4114.16
4114
4113.83
4113.65
4113.48
4589.61
4589.7
4589.74
4589.76
4589.75
4589.71
4589.65
4589.55
4589.42
4589.26
4589.07
4588.83
4584.79
4584.88
4584.92
4584.94
4584.93
4584.89
4584.83
4584.74
4584.61
4584.45
4584.26
4584.03
4577.34
4577.43
4577.46
4577.48
4577.47
4577.43
4577.37
4577.28
4577.16
4577.01
4576.82
4576.59
4572.51
4572.59
4572.63
4572.64
4572.63
4572.6
4572.54
4572.45
4572.33
4572.18
4572
4571.78
4571.24
4571.33
4571.36
4571.38
4571.37
4571.34
4571.27
4571.19
4571.07
4570.92
4570.74
4570.52
4571.29
4571.38
4571.41
4571.43
4571.42
4571.39
4571.32
4571.24
4571.12
4570.97
4570.79
4570.56
4571.34
4571.42
4571.46
4571.47
4571.46
4571.43
4571.37
4571.28
4571.16
4571.01
4570.83
4570.61
4571.38
4571.46
4571.5
4571.51
4571.5
4571.47
4571.41
4571.32
4571.2
4571.05
4570.87
4570.64
4571.4
4571.49
4571.53
4571.54
4571.53
4571.5
4571.43
4571.35
4571.23
4571.08
4570.89
4570.67
4571.42
4571.51
4571.55
4571.56
4571.55
4571.52
4571.45
4571.37
4571.24
4571.09
4570.91
4570.69
4571.43
4571.52
4571.56
4571.57
4571.56
4571.53
4571.46
4571.38
4571.25
4571.1
4570.92
4570.7
4571.44
4571.52
4571.56
4571.57
4571.56
4571.53
4571.47
4571.38
4571.26
4571.11
4570.92
4570.7
4571.43
4571.52
4571.55
4571.57
4571.56
4571.53
4571.46
4571.37
4571.25
4571.1
4570.91
4570.69
4571.42
4571.5
4571.54
4571.56
4571.55
4571.51
4571.45
4571.36
4571.24
4571.08
4570.9
4570.67
4571.4
4571.48
4571.52
4571.54
4571.53
4571.49
4571.43
4571.34
4571.22
4571.06
4570.88
4570.65
4571.37
4571.45
4571.49
4571.51
4571.5
4571.47
4571.4
4571.31
4571.19
4571.03
4570.85
4570.62
4571.33
4571.42
4571.46
4571.47
4571.47
4571.43
4571.37
4571.27
4571.15
4571
4570.81
4570.58
4571.29
4571.38
4571.42
4571.43
4571.42
4571.39
4571.32
4571.23
4571.11
4570.95
4570.76
4570.54
4571.24
4571.33
4571.37
4571.38
4571.38
4571.34
4571.27
4571.18
4571.06
4570.9
4570.71
4570.48
4571.18
4571.27
4571.31
4571.33
4571.32
4571.28
4571.22
4571.12
4571
4570.84
4570.65
4570.42
4571.11
4571.2
4571.25
4571.27
4571.26
4571.22
4571.15
4571.06
4570.93
4570.77
4570.58
4570.36
4571.04
4571.13
4571.18
4571.2
4571.19
4571.15
4571.08
4570.99
4570.86
4570.7
4570.51
4570.28
4570.96
4571.06
4571.1
4571.12
4571.11
4571.08
4571.01
4570.91
4570.78
4570.62
4570.43
4570.2
4570.88
4570.97
4571.02
4571.04
4571.03
4570.99
4570.92
4570.83
4570.7
4570.54
4570.34
4570.12
4570.79
4570.88
4570.93
4570.95
4570.94
4570.9
4570.83
4570.74
4570.61
4570.44
4570.25
4570.02
4570.69
4570.78
4570.83
4570.85
4570.84
4570.81
4570.74
4570.64
4570.51
4570.34
4570.15
4569.92
4570.59
4570.68
4570.73
4570.75
4570.74
4570.71
4570.64
4570.54
4570.4
4570.24
4570.04
4569.82
4570.48
4570.57
4570.62
4570.64
4570.64
4570.6
4570.53
4570.43
4570.29
4570.13
4569.93
4569.71
4570.36
4570.46
4570.51
4570.53
4570.52
4570.48
4570.41
4570.31
4570.18
4570.01
4569.81
4569.59
4570.24
4570.34
4570.39
4570.41
4570.4
4570.37
4570.29
4570.19
4570.06
4569.89
4569.69
4569.46
4570.11
4570.21
4570.26
4570.29
4570.28
4570.24
4570.17
4570.07
4569.93
4569.76
4569.56
4569.33
4569.98
4570.08
4570.13
4570.16
4570.15
4570.11
4570.04
4569.93
4569.8
4569.63
4569.43
4569.2
4569.84
4569.94
4570
4570.02
4570.02
4569.98
4569.9
4569.8
4569.66
4569.49
4569.29
4569.06
4569.7
4569.8
4569.86
4569.88
4569.88
4569.84
4569.76
4569.66
4569.52
4569.34
4569.14
4568.91
4569.55
4569.66
4569.71
4569.74
4569.73
4569.69
4569.62
4569.51
4569.37
4569.2
4568.99
4568.77
4569.4
4569.51
4569.57
4569.59
4569.59
4569.55
4569.47
4569.36
4569.22
4569.04
4568.84
4568.61
4569.25
4569.35
4569.41
4569.44
4569.43
4569.39
4569.32
4569.21
4569.06
4568.89
4568.68
4568.45
4569.09
4569.2
4569.26
4569.28
4569.28
4569.24
4569.16
4569.05
4568.9
4568.73
4568.52
4568.29
4568.92
4569.03
4569.1
4569.13
4569.12
4569.08
4569
4568.89
4568.74
4568.56
4568.35
4568.13
4568.76
4568.87
4568.93
4568.96
4568.96
4568.91
4568.83
4568.72
4568.57
4568.39
4568.19
4567.96
4568.59
4568.7
4568.77
4568.8
4568.79
4568.75
4568.67
4568.55
4568.41
4568.22
4568.01
4567.79
4568.42
4568.53
4568.6
4568.63
4568.62
4568.58
4568.5
4568.38
4568.23
4568.05
4567.84
4567.61
4568.24
4568.36
4568.43
4568.46
4568.45
4568.41
4568.33
4568.21
4568.06
4567.88
4567.66
4567.44
4568.07
4568.18
4568.25
4568.29
4568.28
4568.24
4568.15
4568.03
4567.88
4567.7
4567.48
4567.26
4567.89
4568.01
4568.08
4568.11
4568.11
4568.06
4567.98
4567.86
4567.7
4567.52
4567.3
4567.08
4567.71
4567.83
4567.9
4567.93
4567.93
4567.88
4567.8
4567.68
4567.52
4567.34
4567.12
4566.89
4567.53
4567.65
4567.72
4567.76
4567.75
4567.71
4567.62
4567.5
4567.34
4567.15
4566.94
4566.71
4567.34
4567.47
4567.54
4567.58
4567.57
4567.53
4567.44
4567.32
4567.16
4566.97
4566.75
4566.53
4567.16
4567.29
4567.36
4567.4
4567.4
4567.35
4567.26
4567.14
4566.98
4566.79
4566.57
4566.34
4566.98
4567.11
4567.19
4567.22
4567.22
4567.17
4567.08
4566.95
4566.79
4566.6
4566.39
4566.16
4566.8
4566.93
4567.01
4567.05
4567.04
4566.99
4566.9
4566.77
4566.61
4566.42
4566.2
4565.98
4566.62
4566.75
4566.83
4566.87
4566.86
4566.82
4566.72
4566.59
4566.43
4566.24
4566.02
4565.79
4566.44
4566.57
4566.65
4566.69
4566.69
4566.64
4566.55
4566.42
4566.25
4566.06
4565.84
4565.61
4566.26
4566.39
4566.48
4566.52
4566.51
4566.46
4566.37
4566.24
4566.07
4565.88
4565.66
4565.43
4566.09
4566.22
4566.31
4566.35
4566.34
4566.29
4566.2
4566.06
4565.9
4565.7
4565.48
4565.26
4565.92
4566.05
4566.14
4566.18
4566.17
4566.12
4566.03
4565.89
4565.72
4565.52
4565.31
4565.08
4565.75
4565.88
4565.97
4566.01
4566.01
4565.95
4565.86
4565.72
4565.55
4565.35
4565.13
4564.91
4565.58
4565.71
4565.8
4565.85
4565.84
4565.79
4565.69
4565.55
4565.38
4565.18
4564.96
4564.74
4565.42
4565.55
4565.64
4565.69
4565.68
4565.63
4565.53
4565.39
4565.22
4565.02
4564.8
4564.58
4565.26
4565.39
4565.49
4565.53
4565.53
4565.47
4565.37
4565.23
4565.06
4564.86
4564.64
4564.42
4565.11
4565.24
4565.34
4565.38
4565.37
4565.32
4565.22
4565.08
4564.9
4564.7
4564.48
4564.26
4564.96
4565.1
4565.19
4565.23
4565.23
4565.17
4565.07
4564.93
4564.76
4564.55
4564.33
4564.11
4564.82
4564.96
4565.05
4565.1
4565.09
4565.04
4564.93
4564.79
4564.61
4564.41
4564.19
4563.97
4564.69
4564.82
4564.92
4564.97
4564.96
4564.9
4564.8
4564.66
4564.48
4564.28
4564.06
4563.84
4564.56
4564.7
4564.8
4564.84
4564.84
4564.78
4564.68
4564.53
4564.35
4564.15
4563.93
4563.72
4564.45
4564.59
4564.69
4564.73
4564.73
4564.67
4564.57
4564.42
4564.24
4564.04
4563.82
4563.6
4564.35
4564.49
4564.59
4564.63
4564.63
4564.57
4564.47
4564.32
4564.14
4563.93
4563.72
4563.5
4564.26
4564.4
4564.5
4564.55
4564.55
4564.49
4564.38
4564.23
4564.05
4563.85
4563.63
4563.42
4564.2
4564.33
4564.43
4564.48
4564.48
4564.42
4564.31
4564.16
4563.98
4563.78
4563.56
4563.35
4564.15
4564.29
4564.39
4564.44
4564.43
4564.37
4564.27
4564.12
4563.94
4563.73
4563.52
4563.31
4564.13
4564.27
4564.37
4564.42
4564.41
4564.35
4564.25
4564.1
4563.92
4563.71
4563.5
4563.29
4564.13
4564.27
4564.37
4564.42
4564.42
4564.36
4564.26
4564.11
4563.93
4563.72
4563.51
4563.3
4564.17
4564.31
4564.41
4564.46
4564.46
4564.4
4564.3
4564.15
4563.97
4563.76
4563.55
4563.35
4564.25
4564.39
4564.49
4564.54
4564.54
4564.48
4564.37
4564.23
4564.04
4563.84
4563.63
4563.43
4564.35
4564.49
4564.6
4564.65
4564.65
4564.59
4564.49
4564.34
4564.16
4563.96
4563.74
4563.54
4564.49
4564.63
4564.74
4564.79
4564.79
4564.74
4564.63
4564.48
4564.3
4564.1
4563.89
4563.68
4564.65
4564.79
4564.9
4564.96
4564.96
4564.9
4564.79
4564.65
4564.47
4564.26
4564.05
4563.85
4564.81
4564.96
4565.07
4565.13
4565.13
4565.07
4564.96
4564.82
4564.63
4564.43
4564.22
4564.01
4564.96
4565.11
4565.23
4565.28
4565.28
4565.23
4565.12
4564.97
4564.79
4564.59
4564.37
4564.17
5068.34
5068.34
5068.3
5068.26
5068.21
5068.15
5068.08
5067.99
5067.88
5067.77
5067.63
5067.46
5063.12
5063.12
5063.08
5063.04
5062.99
5062.93
5062.86
5062.77
5062.67
5062.56
5062.43
5062.25
5055.05
5055.04
5055
5054.96
5054.92
5054.86
5054.79
5054.71
5054.61
5054.5
5054.37
5054.21
5049.82
5049.81
5049.77
5049.73
5049.69
5049.63
5049.56
5049.48
5049.39
5049.28
5049.16
5049
5048.45
5048.44
5048.4
5048.36
5048.32
5048.26
5048.19
5048.11
5048.02
5047.91
5047.79
5047.63
5048.5
5048.49
5048.45
5048.42
5048.37
5048.32
5048.25
5048.17
5048.07
5047.96
5047.84
5047.68
5048.55
5048.54
5048.5
5048.46
5048.42
5048.37
5048.3
5048.22
5048.12
5048.01
5047.89
5047.73
5048.59
5048.58
5048.54
5048.5
5048.46
5048.41
5048.33
5048.26
5048.16
5048.05
5047.93
5047.76
5048.62
5048.61
5048.57
5048.53
5048.49
5048.44
5048.36
5048.28
5048.19
5048.08
5047.95
5047.79
5048.64
5048.63
5048.59
5048.55
5048.51
5048.46
5048.39
5048.3
5048.21
5048.1
5047.97
5047.81
5048.65
5048.64
5048.6
5048.57
5048.52
5048.47
5048.4
5048.32
5048.22
5048.11
5047.98
5047.82
5048.65
5048.64
5048.61
5048.57
5048.52
5048.47
5048.4
5048.32
5048.22
5048.11
5047.98
5047.82
5048.64
5048.64
5048.6
5048.56
5048.52
5048.46
5048.39
5048.31
5048.21
5048.1
5047.97
5047.81
5048.63
5048.62
5048.58
5048.55
5048.5
5048.45
5048.38
5048.29
5048.2
5048.08
5047.95
5047.79
5048.6
5048.6
5048.56
5048.53
5048.48
5048.43
5048.35
5048.27
5048.17
5048.06
5047.93
5047.76
5048.57
5048.57
5048.53
5048.49
5048.45
5048.4
5048.32
5048.24
5048.14
5048.02
5047.89
5047.73
5048.53
5048.53
5048.49
5048.46
5048.41
5048.36
5048.28
5048.2
5048.1
5047.98
5047.85
5047.68
5048.48
5048.48
5048.44
5048.41
5048.37
5048.31
5048.24
5048.15
5048.05
5047.93
5047.8
5047.63
5048.42
5048.42
5048.39
5048.35
5048.31
5048.26
5048.18
5048.1
5047.99
5047.87
5047.74
5047.57
5048.36
5048.36
5048.33
5048.29
5048.25
5048.19
5048.12
5048.03
5047.93
5047.81
5047.67
5047.51
5048.29
5048.29
5048.26
5048.22
5048.18
5048.12
5048.05
5047.96
5047.86
5047.74
5047.6
5047.43
5048.21
5048.21
5048.18
5048.15
5048.1
5048.05
5047.97
5047.88
5047.78
5047.66
5047.52
5047.35
5048.12
5048.12
5048.09
5048.06
5048.02
5047.96
5047.89
5047.8
5047.69
5047.57
5047.43
5047.26
5048.02
5048.03
5048
5047.97
5047.93
5047.87
5047.8
5047.71
5047.6
5047.47
5047.33
5047.17
5047.92
5047.93
5047.9
5047.87
5047.83
5047.77
5047.7
5047.61
5047.5
5047.37
5047.23
5047.06
5047.81
5047.82
5047.8
5047.77
5047.73
5047.67
5047.59
5047.5
5047.39
5047.26
5047.12
5046.95
5047.7
5047.71
5047.69
5047.66
5047.62
5047.56
5047.48
5047.39
5047.28
5047.15
5047
5046.84
5047.58
5047.59
5047.57
5047.54
5047.5
5047.44
5047.36
5047.27
5047.15
5047.02
5046.88
5046.71
5047.45
5047.46
5047.44
5047.41
5047.37
5047.32
5047.24
5047.14
5047.03
5046.9
5046.75
5046.58
5047.31
5047.33
5047.31
5047.28
5047.24
5047.19
5047.1
5047.01
5046.89
5046.76
5046.61
5046.44
5047.17
5047.19
5047.17
5047.15
5047.11
5047.05
5046.97
5046.87
5046.75
5046.62
5046.47
5046.3
5047.02
5047.04
5047.03
5047.01
5046.97
5046.91
5046.83
5046.73
5046.61
5046.47
5046.32
5046.15
5046.87
5046.89
5046.88
5046.86
5046.82
5046.76
5046.68
5046.58
5046.46
5046.32
5046.17
5046
5046.71
5046.74
5046.73
5046.71
5046.67
5046.61
5046.52
5046.42
5046.3
5046.16
5046.01
5045.84
5046.55
5046.58
5046.57
5046.55
5046.51
5046.45
5046.37
5046.26
5046.14
5046
5045.85
5045.68
5046.38
5046.41
5046.41
5046.39
5046.35
5046.29
5046.2
5046.1
5045.98
5045.83
5045.68
5045.51
5046.21
5046.24
5046.24
5046.22
5046.18
5046.12
5046.04
5045.93
5045.81
5045.66
5045.5
5045.33
5046.04
5046.07
5046.07
5046.05
5046.01
5045.95
5045.86
5045.76
5045.63
5045.49
5045.33
5045.15
5045.86
5045.89
5045.89
5045.87
5045.84
5045.78
5045.69
5045.58
5045.45
5045.31
5045.15
5044.97
5045.67
5045.71
5045.71
5045.7
5045.66
5045.6
5045.51
5045.4
5045.27
5045.12
5044.96
5044.79
5045.49
5045.53
5045.53
5045.51
5045.48
5045.42
5045.33
5045.22
5045.09
5044.94
5044.77
5044.6
5045.3
5045.34
5045.34
5045.33
5045.29
5045.23
5045.14
5045.03
5044.9
5044.75
5044.58
5044.41
5045.1
5045.15
5045.16
5045.14
5045.11
5045.05
5044.95
5044.84
5044.71
5044.55
5044.39
5044.21
5044.91
5044.96
5044.97
5044.95
5044.92
5044.86
5044.76
5044.65
5044.51
5044.36
5044.19
5044.02
5044.71
5044.76
5044.77
5044.76
5044.73
5044.66
5044.57
5044.46
5044.32
5044.16
5043.99
5043.82
5044.51
5044.56
5044.58
5044.57
5044.54
5044.47
5044.38
5044.26
5044.12
5043.96
5043.79
5043.62
5044.31
5044.37
5044.39
5044.38
5044.34
5044.28
5044.18
5044.06
5043.92
5043.76
5043.59
5043.42
5044.11
5044.17
5044.19
5044.18
5044.15
5044.08
5043.99
5043.87
5043.73
5043.56
5043.39
5043.21
5043.91
5043.97
5044
5043.99
5043.96
5043.89
5043.79
5043.67
5043.53
5043.36
5043.19
5043.01
5043.71
5043.77
5043.8
5043.8
5043.76
5043.7
5043.6
5043.47
5043.33
5043.16
5042.99
5042.81
5043.52
5043.58
5043.6
5043.6
5043.57
5043.5
5043.4
5043.28
5043.13
5042.96
5042.79
5042.61
5043.32
5043.38
5043.41
5043.41
5043.38
5043.31
5043.21
5043.08
5042.93
5042.77
5042.59
5042.41
5043.12
5043.19
5043.22
5043.22
5043.19
5043.12
5043.02
5042.89
5042.74
5042.57
5042.39
5042.21
5042.93
5042.99
5043.03
5043.03
5043
5042.93
5042.83
5042.69
5042.54
5042.37
5042.19
5042.02
5042.73
5042.8
5042.84
5042.84
5042.81
5042.74
5042.64
5042.5
5042.35
5042.18
5042
5041.82
5042.54
5042.62
5042.65
5042.66
5042.63
5042.56
5042.45
5042.32
5042.16
5041.99
5041.81
5041.63
5042.36
5042.43
5042.47
5042.48
5042.44
5042.37
5042.27
5042.13
5041.98
5041.8
5041.62
5041.44
5042.17
5042.25
5042.29
5042.3
5042.27
5042.2
5042.09
5041.95
5041.79
5041.62
5041.44
5041.26
5042
5042.07
5042.12
5042.12
5042.09
5042.02
5041.91
5041.78
5041.62
5041.44
5041.26
5041.08
5041.82
5041.9
5041.95
5041.96
5041.93
5041.85
5041.74
5041.6
5041.44
5041.27
5041.08
5040.91
5041.66
5041.74
5041.78
5041.79
5041.76
5041.69
5041.58
5041.44
5041.28
5041.1
5040.92
5040.74
5041.5
5041.58
5041.63
5041.64
5041.61
5041.53
5041.42
5041.28
5041.11
5040.94
5040.75
5040.58
5041.34
5041.43
5041.48
5041.49
5041.46
5041.38
5041.27
5041.13
5040.96
5040.78
5040.6
5040.42
5041.2
5041.28
5041.33
5041.35
5041.32
5041.24
5041.13
5040.98
5040.82
5040.64
5040.45
5040.28
5041.06
5041.15
5041.2
5041.21
5041.19
5041.11
5041
5040.85
5040.68
5040.5
5040.32
5040.15
5040.94
5041.03
5041.08
5041.09
5041.07
5040.99
5040.88
5040.73
5040.56
5040.38
5040.2
5040.02
5040.83
5040.92
5040.97
5040.99
5040.96
5040.88
5040.77
5040.62
5040.45
5040.27
5040.09
5039.92
5040.74
5040.83
5040.88
5040.9
5040.87
5040.79
5040.68
5040.53
5040.36
5040.18
5039.99
5039.82
5040.66
5040.75
5040.81
5040.83
5040.8
5040.72
5040.61
5040.46
5040.28
5040.1
5039.92
5039.75
5040.61
5040.7
5040.76
5040.78
5040.75
5040.67
5040.56
5040.41
5040.24
5040.05
5039.87
5039.7
5040.59
5040.68
5040.74
5040.76
5040.73
5040.65
5040.54
5040.38
5040.21
5040.03
5039.85
5039.68
5040.59
5040.68
5040.75
5040.77
5040.74
5040.66
5040.55
5040.4
5040.22
5040.04
5039.86
5039.7
5040.64
5040.73
5040.79
5040.81
5040.79
5040.71
5040.59
5040.44
5040.27
5040.09
5039.91
5039.75
5040.72
5040.81
5040.88
5040.9
5040.87
5040.8
5040.68
5040.53
5040.36
5040.17
5040
5039.83
5040.84
5040.93
5041
5041.02
5041
5040.92
5040.8
5040.65
5040.48
5040.3
5040.12
5039.96
5040.99
5041.09
5041.15
5041.18
5041.15
5041.08
5040.96
5040.81
5040.64
5040.46
5040.28
5040.12
5041.16
5041.26
5041.33
5041.36
5041.33
5041.26
5041.14
5040.99
5040.82
5040.63
5040.46
5040.29
5041.34
5041.44
5041.52
5041.54
5041.52
5041.44
5041.33
5041.17
5041
5040.82
5040.64
5040.48
5041.5
5041.61
5041.69
5041.71
5041.69
5041.62
5041.5
5041.34
5041.17
5040.98
5040.81
5040.64
5572.78
5572.64
5572.49
5572.37
5572.28
5572.2
5572.13
5572.07
5572.01
5571.96
5571.91
5571.83
5567.1
5566.96
5566.81
5566.7
5566.6
5566.53
5566.46
5566.39
5566.34
5566.29
5566.24
5566.17
5558.31
5558.17
5558.03
5557.92
5557.83
5557.75
5557.68
5557.62
5557.57
5557.52
5557.48
5557.41
5552.62
5552.48
5552.34
5552.23
5552.14
5552.07
5552
5551.94
5551.89
5551.85
5551.81
5551.74
5551.13
5550.99
5550.85
5550.74
5550.65
5550.58
5550.51
5550.45
5550.4
5550.35
5550.31
5550.25
5551.18
5551.05
5550.91
5550.8
5550.71
5550.64
5550.57
5550.51
5550.46
5550.41
5550.37
5550.3
5551.23
5551.1
5550.96
5550.85
5550.76
5550.69
5550.62
5550.56
5550.51
5550.46
5550.42
5550.35
5551.28
5551.14
5551
5550.89
5550.8
5550.73
5550.66
5550.6
5550.55
5550.5
5550.46
5550.39
5551.31
5551.17
5551.03
5550.92
5550.83
5550.76
5550.69
5550.63
5550.58
5550.53
5550.49
5550.42
5551.33
5551.19
5551.05
5550.94
5550.86
5550.78
5550.71
5550.65
5550.6
5550.55
5550.51
5550.44
5551.34
5551.2
5551.06
5550.95
5550.87
5550.79
5550.72
5550.66
5550.61
5550.56
5550.52
5550.44
5551.33
5551.2
5551.06
5550.95
5550.87
5550.79
5550.72
5550.66
5550.61
5550.56
5550.51
5550.44
5551.32
5551.19
5551.05
5550.95
5550.86
5550.79
5550.72
5550.66
5550.6
5550.55
5550.5
5550.43
5551.3
5551.17
5551.04
5550.93
5550.84
5550.77
5550.7
5550.64
5550.58
5550.53
5550.48
5550.41
5551.28
5551.14
5551.01
5550.9
5550.82
5550.74
5550.67
5550.61
5550.55
5550.5
5550.45
5550.38
5551.24
5551.11
5550.97
5550.87
5550.78
5550.71
5550.63
5550.57
5550.51
5550.46
5550.41
5550.34
5551.19
5551.06
5550.93
5550.82
5550.74
5550.66
5550.59
5550.53
5550.47
5550.41
5550.36
5550.29
5551.13
5551.01
5550.87
5550.77
5550.68
5550.61
5550.54
5550.47
5550.41
5550.36
5550.3
5550.23
5551.07
5550.94
5550.81
5550.71
5550.62
5550.55
5550.47
5550.41
5550.35
5550.29
5550.24
5550.16
5551
5550.87
5550.74
5550.64
5550.55
5550.48
5550.4
5550.34
5550.28
5550.22
5550.16
5550.09
5550.91
5550.79
5550.66
5550.56
5550.47
5550.4
5550.33
5550.26
5550.2
5550.14
5550.08
5550.01
5550.82
5550.7
5550.58
5550.47
5550.39
5550.31
5550.24
5550.17
5550.11
5550.05
5549.99
5549.91
5550.73
5550.61
5550.48
5550.38
5550.29
5550.22
5550.14
5550.08
5550.01
5549.95
5549.89
5549.81
5550.62
5550.5
5550.38
5550.28
5550.19
5550.12
5550.04
5549.97
5549.9
5549.84
5549.78
5549.7
5550.51
5550.39
5550.27
5550.17
5550.08
5550.01
5549.93
5549.86
5549.79
5549.73
5549.67
5549.59
5550.38
5550.27
5550.15
5550.05
5549.97
5549.89
5549.81
5549.74
5549.67
5549.61
5549.54
5549.46
5550.25
5550.14
5550.02
5549.92
5549.84
5549.76
5549.69
5549.61
5549.54
5549.48
5549.41
5549.33
5550.12
5550.01
5549.89
5549.79
5549.71
5549.63
5549.55
5549.48
5549.41
5549.34
5549.27
5549.19
5549.97
5549.86
5549.75
5549.65
5549.57
5549.49
5549.41
5549.34
5549.27
5549.19
5549.13
5549.05
5549.82
5549.72
5549.6
5549.51
5549.43
5549.35
5549.27
5549.19
5549.12
5549.04
5548.97
5548.89
5549.66
5549.56
5549.45
5549.36
5549.27
5549.2
5549.11
5549.04
5548.96
5548.89
5548.82
5548.73
5549.5
5549.4
5549.29
5549.2
5549.12
5549.04
5548.96
5548.88
5548.8
5548.72
5548.65
5548.57
5549.33
5549.23
5549.12
5549.03
5548.95
5548.87
5548.79
5548.71
5548.63
5548.55
5548.48
5548.4
5549.15
5549.06
5548.95
5548.86
5548.78
5548.7
5548.62
5548.54
5548.46
5548.38
5548.3
5548.22
5548.97
5548.88
5548.77
5548.69
5548.61
5548.53
5548.44
5548.36
5548.28
5548.2
5548.12
5548.03
5548.78
5548.69
5548.59
5548.51
5548.43
5548.35
5548.26
5548.18
5548.09
5548.01
5547.93
5547.84
5548.59
5548.5
5548.41
5548.32
5548.24
5548.16
5548.07
5547.99
5547.9
5547.82
5547.74
5547.65
5548.39
5548.31
5548.21
5548.13
5548.05
5547.97
5547.88
5547.8
5547.71
5547.62
5547.54
5547.45
5548.19
5548.11
5548.02
5547.94
5547.86
5547.78
5547.69
5547.6
5547.51
5547.42
5547.33
5547.25
5547.98
5547.91
5547.82
5547.74
5547.66
5547.58
5547.49
5547.4
5547.31
5547.22
5547.13
5547.04
5547.77
5547.7
5547.61
5547.54
5547.46
5547.38
5547.29
5547.19
5547.1
5547.01
5546.92
5546.83
5547.56
5547.49
5547.41
5547.33
5547.25
5547.17
5547.08
5546.98
5546.89
5546.79
5546.7
5546.61
5547.35
5547.28
5547.2
5547.12
5547.04
5546.96
5546.87
5546.77
5546.68
5546.58
5546.49
5546.4
5547.13
5547.06
5546.99
5546.91
5546.83
5546.75
5546.66
5546.56
5546.46
5546.36
5546.27
5546.18
5546.91
5546.85
5546.77
5546.7
5546.62
5546.54
5546.44
5546.34
5546.24
5546.14
5546.05
5545.95
5546.68
5546.63
5546.55
5546.48
5546.41
5546.32
5546.23
5546.13
5546.02
5545.92
5545.82
5545.73
5546.46
5546.41
5546.34
5546.27
5546.19
5546.11
5546.01
5545.91
5545.8
5545.7
5545.6
5545.5
5546.24
5546.18
5546.12
5546.05
5545.98
5545.89
5545.79
5545.69
5545.58
5545.47
5545.37
5545.28
5546.01
5545.96
5545.9
5545.83
5545.76
5545.68
5545.58
5545.47
5545.36
5545.25
5545.15
5545.05
5545.79
5545.74
5545.68
5545.62
5545.55
5545.46
5545.36
5545.25
5545.14
5545.03
5544.92
5544.83
5545.56
5545.52
5545.47
5545.4
5545.33
5545.24
5545.14
5545.03
5544.92
5544.81
5544.7
5544.6
5545.34
5545.3
5545.25
5545.19
5545.12
5545.03
5544.92
5544.81
5544.7
5544.58
5544.48
5544.38
5545.12
5545.08
5545.03
5544.97
5544.9
5544.82
5544.71
5544.6
5544.48
5544.36
5544.25
5544.16
5544.9
5544.87
5544.82
5544.76
5544.69
5544.6
5544.5
5544.38
5544.26
5544.14
5544.03
5543.94
5544.68
5544.65
5544.61
5544.55
5544.48
5544.39
5544.29
5544.17
5544.05
5543.93
5543.82
5543.72
5544.47
5544.44
5544.4
5544.35
5544.28
5544.19
5544.08
5543.96
5543.84
5543.72
5543.6
5543.5
5544.26
5544.24
5544.2
5544.14
5544.08
5543.98
5543.87
5543.75
5543.63
5543.51
5543.39
5543.29
5544.05
5544.03
5544
5543.95
5543.88
5543.79
5543.67
5543.55
5543.42
5543.3
5543.19
5543.09
5543.85
5543.84
5543.8
5543.75
5543.68
5543.59
5543.48
5543.35
5543.23
5543.1
5542.98
5542.89
5543.66
5543.64
5543.61
5543.56
5543.5
5543.4
5543.29
5543.16
5543.03
5542.91
5542.79
5542.69
5543.47
5543.46
5543.43
5543.38
5543.32
5543.22
5543.11
5542.98
5542.85
5542.72
5542.6
5542.5
5543.29
5543.28
5543.25
5543.21
5543.14
5543.05
5542.93
5542.8
5542.67
5542.54
5542.42
5542.32
5543.12
5543.11
5543.09
5543.04
5542.98
5542.88
5542.76
5542.63
5542.5
5542.36
5542.25
5542.15
5542.95
5542.95
5542.93
5542.89
5542.82
5542.72
5542.61
5542.47
5542.33
5542.2
5542.08
5541.99
5542.8
5542.8
5542.78
5542.74
5542.67
5542.58
5542.46
5542.32
5542.18
5542.05
5541.93
5541.83
5542.66
5542.66
5542.65
5542.61
5542.54
5542.44
5542.32
5542.19
5542.05
5541.91
5541.79
5541.7
5542.54
5542.54
5542.53
5542.49
5542.42
5542.33
5542.21
5542.07
5541.93
5541.79
5541.67
5541.58
5542.43
5542.44
5542.43
5542.39
5542.33
5542.23
5542.11
5541.97
5541.82
5541.69
5541.57
5541.47
5542.35
5542.35
5542.35
5542.31
5542.25
5542.15
5542.03
5541.89
5541.74
5541.6
5541.48
5541.39
5542.29
5542.3
5542.29
5542.26
5542.19
5542.1
5541.97
5541.83
5541.69
5541.55
5541.43
5541.34
5542.26
5542.27
5542.27
5542.23
5542.17
5542.07
5541.95
5541.81
5541.66
5541.52
5541.4