/*--------------------------------*- C++ -*----------------------------------*\
| =========                 |                                                 |
| \\      /  F ield         | OpenFOAM: The Open Source CFD Toolbox           |
|  \\    /   O peration     | Version:  v1912                                 |
|   \\  /    A nd           | Website:  www.openfoam.com                      |
|    \\/     M anipulation  |                                                 |
\*---------------------------------------------------------------------------*/
FoamFile
{
    version     2.0;
    format      ascii;
    class       volScalarField;
    location    "10.4";
    object      nut;
}
// * * * * * * * * * * * * * * * * * * * * * * * * * * * * * * * * * * * * * //

dimensions      [0 2 -1 0 0 0 0];


internalField   nonuniform List<scalar> 
34128
(
4.70217e-12
4.45549e-12
4.13777e-12
4.13552e-12
4.31269e-12
4.50655e-12
4.48932e-12
4.27665e-12
4.20819e-12
4.29465e-12
4.31561e-12
4.30201e-12
4.62875e-12
4.37761e-12
4.06337e-12
4.05391e-12
4.22963e-12
4.43491e-12
4.4232e-12
4.21012e-12
4.14221e-12
4.2186e-12
4.22737e-12
4.21877e-12
8.40117e-12
7.79203e-12
7.20104e-12
7.05179e-12
7.3894e-12
8.02525e-12
8.10198e-12
7.64832e-12
7.51726e-12
7.49727e-12
7.29633e-12
7.36765e-12
3.55399e-11
3.24885e-11
2.99752e-11
2.88947e-11
3.03431e-11
3.38848e-11
3.45524e-11
3.24411e-11
3.18708e-11
3.12493e-11
2.96763e-11
3.02638e-11
1.38224e-10
1.26191e-10
1.16708e-10
1.12069e-10
1.17505e-10
1.31837e-10
1.34806e-10
1.26648e-10
1.24484e-10
1.21539e-10
1.14788e-10
1.17316e-10
4.11695e-10
3.76756e-10
3.49826e-10
3.35556e-10
3.50866e-10
3.93172e-10
4.02494e-10
3.79164e-10
3.73031e-10
3.63627e-10
3.43038e-10
3.50774e-10
9.83026e-10
9.03257e-10
8.42849e-10
8.08185e-10
8.4224e-10
9.40557e-10
9.63554e-10
9.11289e-10
8.97638e-10
8.74052e-10
8.24577e-10
8.43319e-10
1.97592e-09
1.82503e-09
1.71239e-09
1.64206e-09
1.70503e-09
1.89493e-09
1.94211e-09
1.84564e-09
1.82049e-09
1.77108e-09
1.67191e-09
1.71001e-09
3.46894e-09
3.22315e-09
3.0415e-09
2.91773e-09
3.01842e-09
3.33495e-09
3.41892e-09
3.26646e-09
3.22643e-09
3.13678e-09
2.96481e-09
3.03223e-09
5.47062e-09
5.11526e-09
4.8535e-09
4.65918e-09
4.80281e-09
5.27219e-09
5.40525e-09
5.19268e-09
5.1356e-09
4.99114e-09
4.72595e-09
4.8326e-09
7.92157e-09
7.45458e-09
7.10841e-09
6.82995e-09
7.01733e-09
7.65129e-09
7.84358e-09
7.57565e-09
7.50046e-09
7.28957e-09
6.91819e-09
7.07207e-09
1.06252e-08
1.01398e-08
9.71682e-09
9.34595e-09
9.574e-09
1.032e-08
1.0558e-08
1.02856e-08
1.01842e-08
9.90787e-09
9.45821e-09
9.66398e-09
1.30931e-08
1.25385e-08
1.20434e-08
1.16069e-08
1.18677e-08
1.27188e-08
1.30109e-08
1.27049e-08
1.25847e-08
1.22576e-08
1.1744e-08
1.19847e-08
1.56682e-08
1.50504e-08
1.44764e-08
1.39565e-08
1.42483e-08
1.52189e-08
1.55671e-08
1.5232e-08
1.50954e-08
1.4722e-08
1.414e-08
1.44212e-08
1.83187e-08
1.76447e-08
1.6992e-08
1.63856e-08
1.67041e-08
1.77877e-08
1.81937e-08
1.78354e-08
1.76852e-08
1.72714e-08
1.66286e-08
1.69491e-08
2.10184e-08
2.0295e-08
1.95635e-08
1.88684e-08
1.92091e-08
2.03971e-08
2.08627e-08
2.04877e-08
2.03269e-08
1.98803e-08
1.91862e-08
1.95435e-08
2.37505e-08
2.29825e-08
2.21704e-08
2.13853e-08
2.17438e-08
2.30273e-08
2.35543e-08
2.31686e-08
2.30003e-08
2.25302e-08
2.17962e-08
2.21865e-08
2.65073e-08
2.56965e-08
2.47997e-08
2.39247e-08
2.42968e-08
2.56679e-08
2.6258e-08
2.58659e-08
2.56934e-08
2.52112e-08
2.44497e-08
2.48682e-08
2.92913e-08
2.84349e-08
2.74476e-08
2.64844e-08
2.68663e-08
2.83186e-08
2.89734e-08
2.85766e-08
2.84036e-08
2.79228e-08
2.71467e-08
2.75876e-08
3.21143e-08
3.12047e-08
3.01215e-08
2.90739e-08
2.94614e-08
3.09895e-08
3.17099e-08
3.13083e-08
3.11393e-08
3.06756e-08
2.98974e-08
3.03531e-08
3.49974e-08
3.4022e-08
3.28409e-08
3.17165e-08
3.21032e-08
3.37007e-08
3.44861e-08
3.40793e-08
3.39205e-08
3.34907e-08
3.27217e-08
3.3183e-08
3.79684e-08
3.6911e-08
3.56355e-08
3.44461e-08
3.48236e-08
3.648e-08
3.7329e-08
3.69174e-08
3.67769e-08
3.63983e-08
3.56487e-08
3.6104e-08
4.10593e-08
3.99011e-08
3.85409e-08
3.73025e-08
3.76598e-08
3.93593e-08
4.02699e-08
3.98559e-08
3.97432e-08
3.94332e-08
3.8712e-08
3.91471e-08
4.43043e-08
4.30231e-08
4.15921e-08
4.03254e-08
4.06492e-08
4.23711e-08
4.33418e-08
4.29283e-08
4.28537e-08
4.263e-08
4.19447e-08
4.23429e-08
4.77395e-08
4.63076e-08
4.48207e-08
4.35506e-08
4.38272e-08
4.55485e-08
4.65783e-08
4.61667e-08
4.61413e-08
4.60216e-08
4.53769e-08
4.57182e-08
5.1407e-08
4.97861e-08
4.82571e-08
4.70133e-08
4.72296e-08
4.89293e-08
5.00177e-08
4.96056e-08
4.96405e-08
4.96428e-08
4.90379e-08
4.92986e-08
5.5361e-08
5.3498e-08
5.1939e-08
5.07588e-08
5.09019e-08
5.25629e-08
5.37097e-08
5.32896e-08
5.33969e-08
5.35392e-08
5.29639e-08
5.31156e-08
5.96757e-08
5.74988e-08
5.59246e-08
5.4859e-08
5.49128e-08
5.65192e-08
5.77249e-08
5.72849e-08
5.74781e-08
5.77786e-08
5.72103e-08
5.72163e-08
6.44536e-08
6.18707e-08
6.03085e-08
5.94303e-08
5.93697e-08
6.09009e-08
6.21657e-08
6.16913e-08
6.19865e-08
6.24646e-08
6.18651e-08
6.1676e-08
6.98367e-08
6.67351e-08
6.52389e-08
6.46535e-08
6.44367e-08
6.58577e-08
6.71816e-08
6.66599e-08
6.70755e-08
6.77505e-08
6.70629e-08
6.66108e-08
7.60063e-08
7.22693e-08
7.09394e-08
7.07928e-08
7.03532e-08
7.15993e-08
7.29676e-08
7.23936e-08
7.29535e-08
7.38514e-08
7.30029e-08
7.21981e-08
8.31703e-08
7.86751e-08
7.76642e-08
7.81549e-08
7.74035e-08
7.83722e-08
7.97543e-08
7.91142e-08
7.9848e-08
8.10087e-08
7.99227e-08
7.86437e-08
9.16058e-08
8.61919e-08
8.57038e-08
8.7097e-08
8.59224e-08
8.64934e-08
8.7846e-08
8.71167e-08
8.80588e-08
8.95339e-08
8.80954e-08
8.61842e-08
1.01753e-07
9.52116e-08
9.55176e-08
9.8174e-08
9.6442e-08
9.64703e-08
9.7725e-08
9.68687e-08
9.80662e-08
9.99337e-08
9.79791e-08
9.52178e-08
1.14269e-07
1.06314e-07
1.07796e-07
1.12223e-07
1.09772e-07
1.09079e-07
1.10123e-07
1.09072e-07
1.10593e-07
1.12977e-07
1.10265e-07
1.06338e-07
1.30141e-07
1.20361e-07
1.23579e-07
1.30514e-07
1.27152e-07
1.25521e-07
1.26161e-07
1.24794e-07
1.26742e-07
1.29841e-07
1.26003e-07
1.20433e-07
1.50861e-07
1.38663e-07
1.44455e-07
1.54985e-07
1.50507e-07
1.4769e-07
1.47598e-07
1.45701e-07
1.48238e-07
1.5238e-07
1.46827e-07
1.38866e-07
1.78528e-07
1.63254e-07
1.72938e-07
1.88656e-07
1.82919e-07
1.78474e-07
1.77086e-07
1.74432e-07
1.77875e-07
1.83642e-07
1.75384e-07
1.63794e-07
2.06268e-07
1.95393e-07
2.13056e-07
2.36455e-07
2.2921e-07
2.12889e-07
2.09644e-07
2.12023e-07
2.18351e-07
2.27404e-07
2.15782e-07
1.97759e-07
2.41205e-07
2.27524e-07
2.63729e-07
3.05752e-07
2.84334e-07
2.5239e-07
2.47236e-07
2.50014e-07
2.5807e-07
2.69741e-07
2.58452e-07
2.31112e-07
2.87519e-07
2.70061e-07
3.19066e-07
3.80389e-07
3.48166e-07
3.05066e-07
2.97296e-07
3.00517e-07
3.1084e-07
3.25773e-07
3.11752e-07
2.75553e-07
3.4633e-07
3.25345e-07
3.8883e-07
4.6908e-07
4.27979e-07
3.71452e-07
3.60559e-07
3.64241e-07
3.76948e-07
3.95332e-07
3.78587e-07
3.33484e-07
4.18375e-07
3.9397e-07
4.74015e-07
5.77101e-07
5.25852e-07
4.5307e-07
4.3831e-07
4.42228e-07
4.57642e-07
4.80012e-07
4.59898e-07
4.05561e-07
5.05567e-07
4.77705e-07
5.76644e-07
7.06044e-07
6.43892e-07
5.52233e-07
5.32853e-07
5.36624e-07
5.55095e-07
5.82034e-07
5.58026e-07
4.93986e-07
6.09687e-07
5.78752e-07
6.98141e-07
8.55936e-07
7.83028e-07
6.70655e-07
6.46021e-07
6.49158e-07
6.71047e-07
7.03129e-07
6.75004e-07
6.01039e-07
7.31801e-07
6.98623e-07
8.39077e-07
1.02482e-06
9.425e-07
8.08963e-07
7.7866e-07
7.80683e-07
8.06346e-07
8.43692e-07
8.11404e-07
7.27453e-07
8.71896e-07
8.37657e-07
9.9924e-07
1.20885e-06
1.1196e-06
9.66273e-07
9.30189e-07
9.3077e-07
9.60255e-07
1.00202e-06
9.66086e-07
8.73115e-07
1.02861e-06
9.94656e-07
1.17737e-06
1.40289e-06
1.30985e-06
1.13997e-06
1.09833e-06
1.09738e-06
1.12985e-06
1.17442e-06
1.13618e-06
1.03613e-06
1.19915e-06
1.16676e-06
1.36702e-06
1.60083e-06
1.50763e-06
1.32579e-06
1.27917e-06
1.27674e-06
1.31042e-06
1.35574e-06
1.31753e-06
1.21273e-06
1.3794e-06
1.34963e-06
1.56103e-06
1.79566e-06
1.70626e-06
1.51832e-06
1.46754e-06
1.46369e-06
1.49625e-06
1.54026e-06
1.50319e-06
1.39759e-06
1.56431e-06
1.53788e-06
1.75313e-06
1.98084e-06
1.89885e-06
1.71186e-06
1.65802e-06
1.65248e-06
1.68163e-06
1.72222e-06
1.68738e-06
1.58449e-06
1.74848e-06
1.72572e-06
1.93768e-06
2.15113e-06
2.07941e-06
1.90086e-06
1.84537e-06
1.83826e-06
1.86116e-06
1.87279e-06
1.86423e-06
1.7674e-06
1.9266e-06
1.90757e-06
2.10996e-06
2.30306e-06
2.24348e-06
2.07999e-06
2.02443e-06
2.01635e-06
2.02935e-06
1.72682e-06
1.83124e-06
1.94115e-06
2.09422e-06
2.07863e-06
2.26638e-06
2.43505e-06
2.38823e-06
2.24445e-06
2.19007e-06
2.18191e-06
1.98229e-06
1.62559e-06
1.70229e-06
2.10112e-06
2.2477e-06
2.23533e-06
2.40516e-06
2.5471e-06
2.51234e-06
2.3906e-06
2.33805e-06
2.22779e-06
1.93096e-06
1.5842e-06
1.61384e-06
2.13556e-06
2.38458e-06
2.37529e-06
2.52564e-06
2.64048e-06
2.61604e-06
2.5166e-06
2.36363e-06
2.21082e-06
1.95008e-06
1.58688e-06
1.56427e-06
2.01745e-06
2.50351e-06
2.49704e-06
2.62765e-06
2.71619e-06
2.70083e-06
2.6226e-06
2.40633e-06
2.25425e-06
2.0351e-06
1.62569e-06
1.54277e-06
1.92675e-06
2.60393e-06
2.60027e-06
2.71189e-06
2.77592e-06
2.76785e-06
2.71006e-06
2.4921e-06
2.37201e-06
2.1836e-06
1.69763e-06
1.5425e-06
1.8682e-06
2.68657e-06
2.68589e-06
2.77996e-06
2.82277e-06
2.81967e-06
2.78087e-06
2.62126e-06
2.56921e-06
2.40286e-06
1.8031e-06
1.55966e-06
1.82888e-06
2.75244e-06
2.75561e-06
2.83418e-06
2.85902e-06
2.86018e-06
2.83714e-06
2.77766e-06
2.77262e-06
2.67762e-06
1.94506e-06
1.59258e-06
1.80245e-06
2.80347e-06
2.81141e-06
2.87668e-06
2.88688e-06
2.89194e-06
2.88106e-06
2.84683e-06
2.80172e-06
2.78847e-06
2.12746e-06
1.64141e-06
1.78593e-06
2.84175e-06
2.8554e-06
2.90933e-06
2.90822e-06
2.91725e-06
2.91378e-06
2.87702e-06
2.82022e-06
2.82076e-06
2.35576e-06
1.70803e-06
1.77807e-06
2.86944e-06
2.88968e-06
2.9339e-06
2.92409e-06
2.93752e-06
2.93888e-06
2.89951e-06
2.83397e-06
2.84514e-06
2.63142e-06
1.79577e-06
1.77908e-06
2.83708e-06
2.90234e-06
2.9522e-06
2.93575e-06
2.95327e-06
2.95833e-06
2.91753e-06
2.84433e-06
2.86253e-06
2.84571e-06
1.9084e-06
1.79036e-06
2.70743e-06
2.89739e-06
2.96569e-06
2.94464e-06
2.96611e-06
2.9737e-06
2.93192e-06
2.85245e-06
2.87491e-06
2.85995e-06
2.04821e-06
1.81421e-06
2.57969e-06
2.90424e-06
2.97601e-06
2.95175e-06
2.97709e-06
2.98615e-06
2.94352e-06
2.85918e-06
2.88372e-06
2.87149e-06
2.21708e-06
1.85361e-06
2.47326e-06
2.92256e-06
2.98428e-06
2.95779e-06
2.98681e-06
2.99646e-06
2.95299e-06
2.86517e-06
2.88996e-06
2.88081e-06
2.41851e-06
1.91254e-06
2.39037e-06
2.95398e-06
2.99116e-06
2.96327e-06
2.99558e-06
3.00495e-06
2.96081e-06
2.87075e-06
2.89439e-06
2.88828e-06
2.65457e-06
1.99657e-06
2.33228e-06
2.98696e-06
2.99703e-06
2.9685e-06
3.00337e-06
3.012e-06
2.96741e-06
2.87616e-06
2.89756e-06
2.89425e-06
2.86235e-06
2.11133e-06
2.30022e-06
2.99539e-06
3.00211e-06
2.97365e-06
3.01005e-06
3.01791e-06
2.97309e-06
2.88148e-06
2.89983e-06
2.89898e-06
2.86646e-06
2.25871e-06
2.29513e-06
3.00306e-06
3.00649e-06
2.97873e-06
3.01567e-06
3.02287e-06
2.97812e-06
2.88673e-06
2.90131e-06
2.90266e-06
2.8692e-06
2.44009e-06
2.31811e-06
3.01015e-06
3.01016e-06
2.98364e-06
3.0202e-06
3.027e-06
2.9827e-06
2.89197e-06
2.90253e-06
2.90551e-06
2.8709e-06
2.6571e-06
2.37067e-06
3.01669e-06
3.01301e-06
2.98818e-06
3.02363e-06
3.03039e-06
2.98703e-06
2.89725e-06
2.9038e-06
2.90785e-06
2.87191e-06
2.83812e-06
2.45403e-06
3.02262e-06
3.0149e-06
2.99207e-06
3.02592e-06
3.03311e-06
2.99125e-06
2.90275e-06
2.90533e-06
2.91004e-06
2.8726e-06
2.84228e-06
2.57004e-06
3.02775e-06
3.01071e-06
2.9949e-06
3.02706e-06
3.03519e-06
2.99554e-06
2.90867e-06
2.90731e-06
2.91248e-06
2.87341e-06
2.84591e-06
2.72749e-06
3.03181e-06
2.95645e-06
2.99623e-06
3.02703e-06
3.03667e-06
3.00002e-06
2.91529e-06
2.9099e-06
2.91561e-06
2.87481e-06
2.84926e-06
2.92085e-06
3.0345e-06
2.8966e-06
2.9959e-06
3.02582e-06
3.03755e-06
3.0049e-06
2.92291e-06
2.91346e-06
2.9198e-06
2.87726e-06
2.85265e-06
2.97414e-06
3.03546e-06
2.83792e-06
2.9937e-06
3.02335e-06
3.03779e-06
3.01022e-06
2.93168e-06
2.91832e-06
2.92533e-06
2.88119e-06
2.85634e-06
2.97999e-06
3.03433e-06
2.78157e-06
2.98936e-06
3.0195e-06
3.03725e-06
3.01581e-06
2.94163e-06
2.9247e-06
2.93233e-06
2.88688e-06
2.86051e-06
5.04302e-12
4.74196e-12
4.41332e-12
4.40568e-12
4.57861e-12
4.80604e-12
4.80071e-12
4.57248e-12
4.51485e-12
4.59765e-12
4.59034e-12
4.57776e-12
4.83897e-12
4.54407e-12
4.22794e-12
4.21599e-12
4.38004e-12
4.60293e-12
4.60094e-12
4.38214e-12
4.32852e-12
4.40697e-12
4.39612e-12
4.38504e-12
6.5933e-12
6.08033e-12
5.64607e-12
5.54524e-12
5.72608e-12
6.11537e-12
6.17476e-12
5.88442e-12
5.84423e-12
5.92821e-12
5.83653e-12
5.84136e-12
1.92448e-11
1.71379e-11
1.58989e-11
1.5183e-11
1.54699e-11
1.70025e-11
1.75086e-11
1.67252e-11
1.67948e-11
1.69056e-11
1.62302e-11
1.6345e-11
6.67692e-11
5.88413e-11
5.48141e-11
5.18565e-11
5.24204e-11
5.804e-11
6.0222e-11
5.7723e-11
5.82325e-11
5.84236e-11
5.55848e-11
5.60932e-11
1.9155e-10
1.68909e-10
1.58379e-10
1.49695e-10
1.50529e-10
1.66187e-10
1.72789e-10
1.66321e-10
1.68116e-10
1.6844e-10
1.59981e-10
1.61486e-10
4.48413e-10
3.97161e-10
3.75318e-10
3.55327e-10
3.55611e-10
3.90001e-10
4.05633e-10
3.92441e-10
3.97189e-10
3.97642e-10
3.7791e-10
3.81372e-10
8.88397e-10
7.9183e-10
7.54675e-10
7.16511e-10
7.13803e-10
7.76062e-10
8.0678e-10
7.8502e-10
7.95311e-10
7.9588e-10
7.57775e-10
7.64351e-10
1.54088e-09
1.38341e-09
1.32977e-09
1.2671e-09
1.25689e-09
1.35323e-09
1.40531e-09
1.37533e-09
1.39437e-09
1.3953e-09
1.33218e-09
1.34308e-09
2.40384e-09
2.17497e-09
2.10798e-09
2.01714e-09
1.99313e-09
2.12351e-09
2.20185e-09
2.16706e-09
2.19793e-09
2.20029e-09
2.1082e-09
2.12406e-09
3.44663e-09
3.14313e-09
3.07006e-09
2.95168e-09
2.90674e-09
3.06349e-09
3.17026e-09
3.13651e-09
3.18133e-09
3.18756e-09
3.06703e-09
3.08759e-09
4.58137e-09
4.2313e-09
4.14918e-09
4.00799e-09
3.94688e-09
4.10708e-09
4.23179e-09
4.20599e-09
4.25914e-09
4.28048e-09
4.15797e-09
4.18356e-09
5.60265e-09
5.20242e-09
5.12953e-09
4.97945e-09
4.89424e-09
5.0499e-09
5.19055e-09
5.17135e-09
5.23442e-09
5.27052e-09
5.14117e-09
5.16761e-09
6.65181e-09
6.20977e-09
6.15856e-09
6.00992e-09
5.89608e-09
6.03131e-09
6.18261e-09
6.17371e-09
6.24622e-09
6.30121e-09
6.17203e-09
6.19718e-09
7.71364e-09
7.23987e-09
7.22417e-09
7.08922e-09
6.94248e-09
7.03952e-09
7.19479e-09
7.19986e-09
7.28076e-09
7.3588e-09
7.23768e-09
7.25903e-09
8.77674e-09
8.28196e-09
8.31619e-09
8.20877e-09
8.02546e-09
8.0657e-09
8.21706e-09
8.23904e-09
8.32662e-09
8.43191e-09
8.32737e-09
8.34209e-09
9.83454e-09
9.32888e-09
9.42731e-09
9.36257e-09
9.13992e-09
9.1051e-09
9.24351e-09
9.28385e-09
9.37574e-09
9.51262e-09
9.43339e-09
9.43836e-09
1.08855e-08
1.03775e-08
1.05538e-08
1.0548e-08
1.02843e-08
1.01575e-08
1.02729e-08
1.03308e-08
1.04242e-08
1.0597e-08
1.05515e-08
1.05434e-08
1.19333e-08
1.1429e-08
1.16962e-08
1.17664e-08
1.14611e-08
1.12274e-08
1.13089e-08
1.13813e-08
1.1473e-08
1.16859e-08
1.16815e-08
1.16568e-08
1.29869e-08
1.24898e-08
1.28602e-08
1.30246e-08
1.26777e-08
1.23244e-08
1.23605e-08
1.24421e-08
1.25293e-08
1.27853e-08
1.28276e-08
1.27827e-08
1.4061e-08
1.35722e-08
1.40574e-08
1.43345e-08
1.39471e-08
1.34634e-08
1.34426e-08
1.35268e-08
1.36065e-08
1.39076e-08
1.39997e-08
1.39312e-08
1.5176e-08
1.46944e-08
1.53059e-08
1.57147e-08
1.52873e-08
1.46645e-08
1.45756e-08
1.46551e-08
1.47241e-08
1.50707e-08
1.52134e-08
1.51178e-08
1.63585e-08
1.58803e-08
1.66286e-08
1.71881e-08
1.67218e-08
1.59535e-08
1.57858e-08
1.58519e-08
1.59069e-08
1.62977e-08
1.6489e-08
1.63631e-08
1.76414e-08
1.71591e-08
1.80528e-08
1.87818e-08
1.82781e-08
1.7361e-08
1.7105e-08
1.71479e-08
1.7185e-08
1.76172e-08
1.78518e-08
1.76929e-08
1.90658e-08
1.85666e-08
1.96111e-08
2.05287e-08
1.99899e-08
1.89245e-08
1.85726e-08
1.85802e-08
1.85954e-08
1.90646e-08
1.93332e-08
1.91386e-08
2.06852e-08
2.01482e-08
2.13465e-08
2.24735e-08
2.19012e-08
2.0692e-08
2.02391e-08
2.01975e-08
2.01869e-08
2.0687e-08
2.09745e-08
2.0741e-08
2.25708e-08
2.1965e-08
2.33193e-08
2.46819e-08
2.40748e-08
2.27283e-08
2.21725e-08
2.20662e-08
2.20263e-08
2.25502e-08
2.2834e-08
2.25563e-08
2.482e-08
2.41016e-08
2.56183e-08
2.72535e-08
2.66035e-08
2.51247e-08
2.44673e-08
2.42792e-08
2.42077e-08
2.47479e-08
2.49955e-08
2.4664e-08
2.75655e-08
2.6677e-08
2.83733e-08
3.03359e-08
2.96243e-08
2.80113e-08
2.72555e-08
2.69679e-08
2.68638e-08
2.74135e-08
2.75801e-08
2.71769e-08
3.09893e-08
2.98574e-08
3.17713e-08
3.41418e-08
3.33353e-08
3.15728e-08
3.07214e-08
3.03165e-08
3.01805e-08
3.07352e-08
3.07601e-08
3.02545e-08
3.53394e-08
3.38752e-08
3.60768e-08
3.89701e-08
3.80174e-08
3.60705e-08
3.51224e-08
3.4582e-08
3.44168e-08
3.49758e-08
3.47774e-08
3.41188e-08
4.09552e-08
3.90531e-08
4.16611e-08
4.5238e-08
4.40652e-08
4.18723e-08
4.08174e-08
4.01223e-08
3.99325e-08
4.05014e-08
3.99677e-08
3.90761e-08
4.81571e-08
4.56758e-08
4.88867e-08
5.33882e-08
5.18859e-08
4.93498e-08
4.81625e-08
4.72835e-08
4.70769e-08
4.76707e-08
4.6635e-08
4.53795e-08
5.74715e-08
5.4226e-08
5.83551e-08
6.41421e-08
6.21521e-08
5.91282e-08
5.77545e-08
5.66419e-08
5.64297e-08
5.70798e-08
5.52888e-08
5.34613e-08
6.97147e-08
6.54613e-08
7.10155e-08
7.8638e-08
7.59325e-08
7.22116e-08
7.05451e-08
6.91116e-08
6.89078e-08
6.96722e-08
6.67282e-08
6.39952e-08
8.61235e-08
8.05553e-08
8.83763e-08
9.86889e-08
9.49413e-08
9.02157e-08
8.80451e-08
8.61338e-08
8.59517e-08
8.69379e-08
8.22082e-08
7.80217e-08
1.0686e-07
1.00556e-07
1.12387e-07
1.27113e-07
1.21872e-07
1.1507e-07
1.1143e-07
1.08894e-07
1.08557e-07
1.09866e-07
1.03638e-07
9.71107e-08
1.30417e-07
1.22626e-07
1.38699e-07
1.60411e-07
1.53643e-07
1.42154e-07
1.37469e-07
1.34352e-07
1.34009e-07
1.3567e-07
1.27136e-07
1.19199e-07
1.6098e-07
1.51533e-07
1.73651e-07
2.02544e-07
1.93641e-07
1.78122e-07
1.7192e-07
1.68076e-07
1.67706e-07
1.69873e-07
1.57355e-07
1.46008e-07
2.0079e-07
1.89684e-07
2.20288e-07
2.5865e-07
2.4711e-07
2.26098e-07
2.17716e-07
2.13e-07
2.12564e-07
2.1543e-07
1.97283e-07
1.8106e-07
2.52659e-07
2.40117e-07
2.82384e-07
3.31568e-07
3.17408e-07
2.89581e-07
2.7838e-07
2.72874e-07
2.72266e-07
2.75942e-07
2.50166e-07
2.2708e-07
3.18204e-07
3.0527e-07
3.61936e-07
4.23739e-07
4.06918e-07
3.70539e-07
3.557e-07
3.49669e-07
3.4875e-07
3.53269e-07
3.18245e-07
2.86962e-07
3.99048e-07
3.86847e-07
4.62133e-07
5.37954e-07
5.18852e-07
4.72153e-07
4.52675e-07
4.46541e-07
4.45062e-07
4.50309e-07
4.03551e-07
3.62025e-07
4.97342e-07
4.87403e-07
5.85609e-07
6.75498e-07
6.55178e-07
5.96865e-07
5.71785e-07
5.66321e-07
5.63858e-07
5.69334e-07
5.08457e-07
4.54704e-07
6.14613e-07
6.08728e-07
7.33166e-07
8.35283e-07
8.15619e-07
7.45522e-07
7.14094e-07
7.10374e-07
7.06253e-07
7.10913e-07
6.34232e-07
5.6708e-07
7.5135e-07
7.51309e-07
9.02714e-07
1.01354e-06
9.97012e-07
9.16741e-07
8.78602e-07
8.77749e-07
8.71027e-07
8.7326e-07
7.80507e-07
7.00218e-07
9.06647e-07
9.13925e-07
1.08876e-06
1.20446e-06
1.19349e-06
1.10667e-06
1.06195e-06
1.06473e-06
1.0543e-06
1.05209e-06
9.44946e-07
8.53603e-07
1.07804e-06
1.09353e-06
1.28327e-06
1.40148e-06
1.39758e-06
1.30928e-06
1.25855e-06
1.26508e-06
1.24992e-06
1.24102e-06
1.12321e-06
1.0248e-06
1.2616e-06
1.2855e-06
1.48251e-06
1.59844e-06
1.60168e-06
1.517e-06
1.46117e-06
1.47087e-06
1.45031e-06
1.43246e-06
1.3093e-06
1.20939e-06
1.45231e-06
1.4841e-06
1.68233e-06
1.79005e-06
1.79915e-06
1.72137e-06
1.66148e-06
1.67356e-06
1.64753e-06
1.54543e-06
1.49622e-06
1.40124e-06
1.64451e-06
1.6831e-06
1.87714e-06
1.97197e-06
1.98458e-06
1.69221e-06
1.65124e-06
1.75287e-06
1.68177e-06
1.42663e-06
1.44846e-06
1.59293e-06
1.83236e-06
1.87631e-06
2.06137e-06
2.14081e-06
2.11259e-06
1.66832e-06
1.58436e-06
1.67142e-06
1.58597e-06
1.33727e-06
1.35018e-06
1.65142e-06
2.00983e-06
2.05809e-06
2.23032e-06
2.29405e-06
2.10953e-06
1.67667e-06
1.54307e-06
1.60759e-06
1.52683e-06
1.29303e-06
1.28696e-06
1.58481e-06
2.02913e-06
2.18975e-06
2.35932e-06
2.42995e-06
2.11811e-06
1.7195e-06
1.54056e-06
1.58609e-06
1.51646e-06
1.28586e-06
1.25678e-06
1.53216e-06
2.05302e-06
2.21209e-06
2.37651e-06
2.54762e-06
2.1475e-06
1.79557e-06
1.57988e-06
1.6125e-06
1.55176e-06
1.30816e-06
1.25124e-06
1.50623e-06
2.09082e-06
2.23755e-06
2.39119e-06
2.64694e-06
2.18838e-06
1.90204e-06
1.66324e-06
1.68765e-06
1.62825e-06
1.35531e-06
1.26368e-06
1.50261e-06
2.14334e-06
2.27965e-06
2.41962e-06
2.72867e-06
2.23432e-06
2.03437e-06
1.78982e-06
1.80816e-06
1.74343e-06
1.42561e-06
1.28956e-06
1.51503e-06
2.20793e-06
2.33894e-06
2.4619e-06
2.72597e-06
2.28214e-06
2.18518e-06
1.95374e-06
1.96856e-06
1.89725e-06
1.52029e-06
1.32621e-06
1.5373e-06
2.28001e-06
2.41375e-06
2.51362e-06
2.71142e-06
2.33049e-06
2.34354e-06
2.14461e-06
2.16143e-06
2.0905e-06
1.64331e-06
1.37282e-06
1.56492e-06
2.35349e-06
2.49972e-06
2.56859e-06
2.69831e-06
2.37845e-06
2.49611e-06
2.34928e-06
2.37525e-06
2.32336e-06
1.80121e-06
1.43032e-06
1.59516e-06
2.42144e-06
2.59058e-06
2.62134e-06
2.68372e-06
2.42535e-06
2.63036e-06
2.55422e-06
2.59049e-06
2.59102e-06
2.0023e-06
1.50131e-06
1.62704e-06
2.47717e-06
2.68053e-06
2.66864e-06
2.66481e-06
2.47171e-06
2.73811e-06
2.74542e-06
2.77789e-06
2.85648e-06
2.2544e-06
1.59008e-06
1.66115e-06
2.51575e-06
2.76568e-06
2.71003e-06
2.64053e-06
2.51985e-06
2.81615e-06
2.89971e-06
2.83423e-06
2.87663e-06
2.56694e-06
1.70272e-06
1.69944e-06
2.53593e-06
2.84423e-06
2.74706e-06
2.61362e-06
2.57343e-06
2.86589e-06
2.93314e-06
2.84343e-06
2.88406e-06
2.88503e-06
1.8469e-06
1.745e-06
2.53933e-06
2.91673e-06
2.78181e-06
2.59047e-06
2.63605e-06
2.89323e-06
2.94447e-06
2.85098e-06
2.88972e-06
2.89969e-06
2.02968e-06
1.80207e-06
2.52773e-06
2.98596e-06
2.81591e-06
2.57707e-06
2.71001e-06
2.90646e-06
2.95359e-06
2.85774e-06
2.89396e-06
2.91154e-06
2.2564e-06
1.87602e-06
2.50414e-06
3.00446e-06
2.85063e-06
2.57711e-06
2.79523e-06
2.91454e-06
2.96103e-06
2.86423e-06
2.89708e-06
2.92092e-06
2.53882e-06
1.97337e-06
2.47441e-06
3.0141e-06
2.88687e-06
2.59235e-06
2.88881e-06
2.92532e-06
2.96719e-06
2.87072e-06
2.89933e-06
2.92827e-06
2.8758e-06
2.1008e-06
2.44614e-06
3.02268e-06
2.9248e-06
2.62251e-06
2.98237e-06
2.9447e-06
2.97239e-06
2.87726e-06
2.90093e-06
2.93492e-06
2.89086e-06
2.26187e-06
2.42742e-06
3.03047e-06
2.96349e-06
2.66575e-06
3.0252e-06
2.97561e-06
2.96729e-06
2.88376e-06
2.90202e-06
2.9405e-06
2.89426e-06
2.45553e-06
2.42574e-06
3.03763e-06
3.0005e-06
2.71923e-06
3.02993e-06
3.01539e-06
2.90699e-06
2.89007e-06
2.9028e-06
2.94376e-06
2.89617e-06
2.68451e-06
2.44772e-06
3.04423e-06
3.03214e-06
2.77949e-06
3.0333e-06
3.03294e-06
2.85428e-06
2.89603e-06
2.90344e-06
2.94505e-06
2.89683e-06
2.8478e-06
2.49879e-06
3.05028e-06
3.04856e-06
2.84261e-06
3.03537e-06
3.03468e-06
2.8182e-06
2.90158e-06
2.90414e-06
2.94496e-06
2.89656e-06
2.85009e-06
2.58226e-06
3.05567e-06
3.05009e-06
2.90461e-06
3.03617e-06
3.03592e-06
2.80148e-06
2.9068e-06
2.90514e-06
2.94408e-06
2.89569e-06
2.85154e-06
2.70053e-06
3.06026e-06
3.05036e-06
2.96053e-06
3.03573e-06
3.03672e-06
2.80492e-06
2.91182e-06
2.90671e-06
2.94304e-06
2.89461e-06
2.8524e-06
2.86223e-06
3.06381e-06
3.04752e-06
3.0064e-06
3.03412e-06
3.03716e-06
2.82702e-06
2.91705e-06
2.90912e-06
2.94249e-06
2.8938e-06
2.85299e-06
2.99251e-06
3.06613e-06
3.02579e-06
3.0059e-06
3.03142e-06
3.03729e-06
2.86397e-06
2.92319e-06
2.9127e-06
2.94297e-06
2.89376e-06
2.8537e-06
2.99944e-06
3.06691e-06
3.00008e-06
3.00366e-06
3.0277e-06
3.03708e-06
2.9098e-06
2.91403e-06
2.91764e-06
2.94494e-06
2.89496e-06
2.85487e-06
3.00529e-06
3.06582e-06
2.97331e-06
2.9994e-06
3.02296e-06
3.03643e-06
2.95676e-06
2.91253e-06
2.92409e-06
2.94865e-06
2.89783e-06
2.85676e-06
5.41907e-12
5.08173e-12
4.77717e-12
4.77507e-12
4.92508e-12
5.16943e-12
5.18592e-12
4.95528e-12
4.89813e-12
4.95788e-12
4.91637e-12
4.91393e-12
5.27992e-12
4.95162e-12
4.66238e-12
4.6585e-12
4.80112e-12
5.04113e-12
5.06188e-12
4.84059e-12
4.78432e-12
4.83443e-12
4.78571e-12
4.78682e-12
8.58626e-12
8.06093e-12
7.74364e-12
7.70865e-12
7.86406e-12
8.27977e-12
8.40183e-12
8.11231e-12
8.01429e-12
7.94716e-12
7.71527e-12
7.77834e-12
3.29116e-11
3.09697e-11
3.03853e-11
3.01517e-11
3.04208e-11
3.20685e-11
3.28638e-11
3.20442e-11
3.16579e-11
3.08507e-11
2.94032e-11
2.98609e-11
1.24546e-10
1.17526e-10
1.16235e-10
1.15292e-10
1.15808e-10
1.21857e-10
1.25158e-10
1.22514e-10
1.21107e-10
1.17524e-10
1.11564e-10
1.1346e-10
3.66719e-10
3.47327e-10
3.45271e-10
3.42593e-10
3.43157e-10
3.59918e-10
3.69723e-10
3.62985e-10
3.59092e-10
3.48119e-10
3.30425e-10
3.36033e-10
8.68393e-10
8.26284e-10
8.252e-10
8.19314e-10
8.18694e-10
8.5514e-10
8.7796e-10
8.64657e-10
8.56096e-10
8.29728e-10
7.88425e-10
8.01556e-10
1.7336e-09
1.65824e-09
1.66306e-09
1.65246e-09
1.64787e-09
1.71324e-09
1.75731e-09
1.73626e-09
1.7204e-09
1.6676e-09
1.58747e-09
1.61333e-09
3.0273e-09
2.91192e-09
2.93114e-09
2.91489e-09
2.90233e-09
3.00251e-09
3.07596e-09
3.04905e-09
3.02305e-09
2.93151e-09
2.79721e-09
2.84127e-09
4.75815e-09
4.60177e-09
4.64486e-09
4.62298e-09
4.59857e-09
4.7346e-09
4.84367e-09
4.81509e-09
4.77593e-09
4.63481e-09
4.43479e-09
4.50215e-09
6.88107e-09
6.68819e-09
6.76211e-09
6.73557e-09
6.69722e-09
6.86568e-09
7.01351e-09
6.98805e-09
6.9325e-09
6.73497e-09
6.4643e-09
6.55875e-09
9.28145e-09
9.08987e-09
9.13653e-09
9.08665e-09
9.07541e-09
9.28649e-09
9.45674e-09
9.418e-09
9.33261e-09
9.09527e-09
8.79721e-09
8.933e-09
1.14656e-08
1.12498e-08
1.13021e-08
1.12432e-08
1.12321e-08
1.14767e-08
1.16756e-08
1.16303e-08
1.15275e-08
1.12494e-08
1.09046e-08
1.10681e-08
1.37562e-08
1.35192e-08
1.35771e-08
1.35102e-08
1.34975e-08
1.3771e-08
1.39981e-08
1.3949e-08
1.38302e-08
1.35134e-08
1.31254e-08
1.33156e-08
1.61291e-08
1.58738e-08
1.59362e-08
1.58626e-08
1.58465e-08
1.61427e-08
1.63973e-08
1.63484e-08
1.62152e-08
1.58631e-08
1.54369e-08
1.56514e-08
1.85667e-08
1.82933e-08
1.83585e-08
1.82807e-08
1.82588e-08
1.8571e-08
1.88527e-08
1.88071e-08
1.86619e-08
1.82797e-08
1.78211e-08
1.80561e-08
2.10596e-08
2.07646e-08
2.08301e-08
2.07525e-08
2.07222e-08
2.10437e-08
2.13518e-08
2.13112e-08
2.1157e-08
2.07518e-08
2.02667e-08
2.05166e-08
2.36066e-08
2.32819e-08
2.33457e-08
2.32755e-08
2.32329e-08
2.35574e-08
2.3891e-08
2.38554e-08
2.36969e-08
2.3277e-08
2.27697e-08
2.3027e-08
2.62144e-08
2.5848e-08
2.59103e-08
2.58575e-08
2.57973e-08
2.61177e-08
2.64762e-08
2.64447e-08
2.62872e-08
2.58615e-08
2.53341e-08
2.55892e-08
2.88982e-08
2.84749e-08
2.854e-08
2.85174e-08
2.8432e-08
2.87396e-08
2.91227e-08
2.90944e-08
2.89446e-08
2.85216e-08
2.79727e-08
2.82139e-08
3.16813e-08
3.11844e-08
3.12615e-08
3.12854e-08
3.1164e-08
3.14477e-08
3.18557e-08
3.18304e-08
3.16951e-08
3.12832e-08
3.07078e-08
3.09212e-08
3.45943e-08
3.40062e-08
3.41107e-08
3.42009e-08
3.40294e-08
3.42751e-08
3.47078e-08
3.46865e-08
3.45738e-08
3.41806e-08
3.35701e-08
3.37396e-08
3.76743e-08
3.69755e-08
3.71287e-08
3.73087e-08
3.70706e-08
3.72614e-08
3.77182e-08
3.77026e-08
3.76213e-08
3.72544e-08
3.65962e-08
3.67039e-08
4.09651e-08
4.01321e-08
4.03605e-08
4.06591e-08
4.03348e-08
4.04521e-08
4.09317e-08
4.0924e-08
4.0883e-08
4.055e-08
3.98269e-08
3.98523e-08
4.45201e-08
4.35215e-08
4.38576e-08
4.43121e-08
4.38777e-08
4.39008e-08
4.44023e-08
4.44027e-08
4.4412e-08
4.41204e-08
4.33083e-08
4.32278e-08
4.84074e-08
4.71999e-08
4.76854e-08
4.83483e-08
4.77725e-08
4.76763e-08
4.81986e-08
4.82052e-08
4.82751e-08
4.80327e-08
4.70973e-08
4.68826e-08
5.27187e-08
5.12434e-08
5.19358e-08
5.28822e-08
5.21222e-08
5.18737e-08
5.24148e-08
5.24218e-08
5.25631e-08
5.23783e-08
5.12717e-08
5.08874e-08
5.75793e-08
5.57584e-08
5.67399e-08
5.80764e-08
5.70749e-08
5.66281e-08
5.71825e-08
5.71789e-08
5.74018e-08
5.72843e-08
5.59418e-08
5.53421e-08
6.31588e-08
6.08942e-08
6.22816e-08
6.41535e-08
6.28365e-08
6.2128e-08
6.26831e-08
6.26504e-08
6.29633e-08
6.29249e-08
6.12622e-08
6.03888e-08
6.96836e-08
6.68551e-08
6.8809e-08
7.14039e-08
6.96825e-08
6.86297e-08
6.91608e-08
6.90697e-08
6.9476e-08
6.95322e-08
6.7444e-08
6.62233e-08
7.74461e-08
7.39115e-08
7.66351e-08
8.01806e-08
7.79567e-08
7.64644e-08
7.69295e-08
7.67344e-08
7.72291e-08
7.74017e-08
7.47641e-08
7.31073e-08
8.68154e-08
8.23993e-08
8.6142e-08
9.09257e-08
8.8086e-08
8.60486e-08
8.63851e-08
8.60154e-08
8.65786e-08
8.68967e-08
8.35611e-08
8.13627e-08
9.83212e-08
9.27759e-08
9.78907e-08
1.04315e-07
1.00714e-07
9.79999e-08
9.81152e-08
9.74596e-08
9.8048e-08
9.85488e-08
9.43023e-08
9.14185e-08
1.12812e-07
1.05781e-07
1.12774e-07
1.214e-07
1.16862e-07
1.13308e-07
1.13061e-07
1.11939e-07
1.12472e-07
1.13211e-07
1.07744e-07
1.0397e-07
1.31614e-07
1.22573e-07
1.32183e-07
1.43798e-07
1.38126e-07
1.33544e-07
1.32707e-07
1.30817e-07
1.31147e-07
1.32221e-07
1.25079e-07
1.20104e-07
1.56748e-07
1.45006e-07
1.58352e-07
1.74061e-07
1.67062e-07
1.61248e-07
1.59454e-07
1.56292e-07
1.56144e-07
1.57741e-07
1.48231e-07
1.41555e-07
1.86035e-07
1.75877e-07
1.94765e-07
2.16199e-07
2.07694e-07
2.00194e-07
1.96693e-07
1.91789e-07
1.90682e-07
1.93036e-07
1.80083e-07
1.70427e-07
2.17155e-07
2.06377e-07
2.35356e-07
2.67477e-07
2.55649e-07
2.37326e-07
2.32176e-07
2.31171e-07
2.307e-07
2.28616e-07
2.09575e-07
1.97359e-07
2.57985e-07
2.44619e-07
2.82479e-07
3.23957e-07
3.0956e-07
2.86622e-07
2.79191e-07
2.77027e-07
2.75618e-07
2.72762e-07
2.48222e-07
2.32657e-07
3.11776e-07
2.95255e-07
3.4362e-07
3.94967e-07
3.7835e-07
3.50702e-07
3.40653e-07
3.37032e-07
3.34379e-07
3.30442e-07
2.99432e-07
2.79549e-07
3.78987e-07
3.59214e-07
4.18825e-07
4.81208e-07
4.6282e-07
4.30466e-07
4.17256e-07
4.11358e-07
4.07013e-07
4.01743e-07
3.6375e-07
3.39607e-07
4.6158e-07
4.37881e-07
5.10032e-07
5.84387e-07
5.65041e-07
5.28433e-07
5.11516e-07
5.021e-07
4.95489e-07
4.88721e-07
4.42794e-07
4.1397e-07
5.6182e-07
5.33517e-07
6.1889e-07
7.05541e-07
6.86343e-07
6.46541e-07
6.25561e-07
6.11098e-07
6.01699e-07
5.93385e-07
5.38895e-07
5.05035e-07
6.81324e-07
6.47884e-07
7.46268e-07
8.44824e-07
8.26938e-07
7.8555e-07
7.60458e-07
7.39264e-07
7.26772e-07
7.17037e-07
6.53899e-07
6.14864e-07
8.20577e-07
7.81797e-07
8.92058e-07
1.00137e-06
9.85713e-07
9.44578e-07
9.15684e-07
8.86222e-07
8.70731e-07
8.59878e-07
7.88675e-07
7.44604e-07
9.78509e-07
9.34713e-07
1.05505e-06
1.17316e-06
1.16018e-06
1.12091e-06
1.08882e-06
1.05011e-06
1.03225e-06
1.02065e-06
9.42609e-07
8.93952e-07
1.15227e-06
1.10444e-06
1.23281e-06