/*--------------------------------*- C++ -*----------------------------------*\
| =========                 |                                                 |
| \\      /  F ield         | OpenFOAM: The Open Source CFD Toolbox           |
|  \\    /   O peration     | Version:  v1912                                 |
|   \\  /    A nd           | Website:  www.openfoam.com                      |
|    \\/     M anipulation  |                                                 |
\*---------------------------------------------------------------------------*/
FoamFile
{
    version     2.0;
    format      ascii;
    class       volScalarField;
    location    "10.4";
    object      pPrime2Mean;
}
// * * * * * * * * * * * * * * * * * * * * * * * * * * * * * * * * * * * * * //

dimensions      [2 -2 -4 0 0 0 0];


internalField   nonuniform List<scalar> 
34128
(
3183.96
3184.06
3184.18
3184.3
3184.4
3184.51
3184.63
3184.78
3184.96
3185.17
3185.38
3185.56
3180.55
3180.65
3180.77
3180.88
3180.99
3181.09
3181.21
3181.36
3181.54
3181.74
3181.95
3182.12
3175.28
3175.37
3175.49
3175.6
3175.7
3175.8
3175.91
3176.06
3176.23
3176.43
3176.63
3176.79
3171.86
3171.95
3172.06
3172.17
3172.27
3172.37
3172.48
3172.62
3172.79
3172.98
3173.18
3173.34
3170.96
3171.06
3171.17
3171.28
3171.37
3171.47
3171.58
3171.72
3171.89
3172.08
3172.28
3172.43
3171
3171.09
3171.2
3171.31
3171.41
3171.51
3171.62
3171.76
3171.93
3172.12
3172.31
3172.47
3171.03
3171.12
3171.24
3171.35
3171.44
3171.54
3171.65
3171.79
3171.96
3172.15
3172.35
3172.5
3171.06
3171.15
3171.26
3171.37
3171.47
3171.57
3171.68
3171.82
3171.99
3172.18
3172.37
3172.53
3171.08
3171.17
3171.29
3171.39
3171.49
3171.59
3171.7
3171.84
3172.01
3172.2
3172.39
3172.55
3171.09
3171.19
3171.3
3171.41
3171.51
3171.61
3171.71
3171.85
3172.02
3172.21
3172.4
3172.56
3171.1
3171.2
3171.31
3171.42
3171.52
3171.62
3171.72
3171.86
3172.03
3172.22
3172.41
3172.57
3171.11
3171.2
3171.31
3171.42
3171.52
3171.62
3171.73
3171.87
3172.04
3172.22
3172.41
3172.57
3171.1
3171.2
3171.31
3171.42
3171.52
3171.62
3171.73
3171.86
3172.03
3172.22
3172.41
3172.56
3171.1
3171.19
3171.3
3171.41
3171.51
3171.61
3171.72
3171.86
3172.02
3172.21
3172.4
3172.55
3171.08
3171.18
3171.29
3171.4
3171.5
3171.6
3171.71
3171.84
3172.01
3172.2
3172.38
3172.54
3171.07
3171.16
3171.27
3171.38
3171.48
3171.58
3171.69
3171.82
3171.99
3172.18
3172.36
3172.52
3171.04
3171.14
3171.25
3171.36
3171.46
3171.56
3171.67
3171.8
3171.97
3172.15
3172.34
3172.49
3171.01
3171.11
3171.22
3171.33
3171.43
3171.53
3171.64
3171.77
3171.94
3172.12
3172.31
3172.46
3170.98
3171.08
3171.19
3171.3
3171.4
3171.5
3171.61
3171.74
3171.91
3172.09
3172.27
3172.42
3170.94
3171.04
3171.15
3171.26
3171.36
3171.46
3171.57
3171.7
3171.87
3172.05
3172.23
3172.38
3170.9
3171
3171.11
3171.22
3171.32
3171.42
3171.53
3171.66
3171.82
3172
3172.18
3172.33
3170.85
3170.95
3171.06
3171.17
3171.27
3171.37
3171.48
3171.61
3171.77
3171.95
3172.13
3172.28
3170.8
3170.9
3171.01
3171.12
3171.22
3171.32
3171.43
3171.56
3171.72
3171.9
3172.08
3172.23
3170.74
3170.84
3170.96
3171.07
3171.17
3171.27
3171.37
3171.5
3171.66
3171.84
3172.02
3172.16
3170.68
3170.78
3170.9
3171.01
3171.11
3171.21
3171.31
3171.44
3171.6
3171.77
3171.95
3172.1
3170.62
3170.72
3170.83
3170.94
3171.04
3171.14
3171.25
3171.38
3171.53
3171.71
3171.88
3172.03
3170.55
3170.65
3170.76
3170.87
3170.97
3171.07
3171.18
3171.31
3171.46
3171.63
3171.81
3171.95
3170.47
3170.57
3170.69
3170.8
3170.9
3171
3171.1
3171.23
3171.39
3171.56
3171.73
3171.87
3170.39
3170.5
3170.61
3170.72
3170.82
3170.92
3171.03
3171.15
3171.31
3171.48
3171.65
3171.79
3170.31
3170.41
3170.53
3170.64
3170.74
3170.84
3170.94
3171.07
3171.22
3171.39
3171.56
3171.7
3170.23
3170.33
3170.44
3170.56
3170.66
3170.76
3170.86
3170.99
3171.14
3171.3
3171.47
3171.61
3170.14
3170.24
3170.36
3170.47
3170.57
3170.67
3170.77
3170.9
3171.05
3171.21
3171.37
3171.51
3170.04
3170.15
3170.26
3170.38
3170.48
3170.58
3170.68
3170.8
3170.95
3171.11
3171.28
3171.41
3169.95
3170.05
3170.17
3170.28
3170.38
3170.48
3170.58
3170.71
3170.85
3171.01
3171.17
3171.31
3169.85
3169.95
3170.07
3170.18
3170.29
3170.38
3170.49
3170.61
3170.75
3170.91
3171.07
3171.21
3169.74
3169.85
3169.97
3170.08
3170.18
3170.28
3170.38
3170.5
3170.65
3170.8
3170.96
3171.1
3169.64
3169.75
3169.87
3169.98
3170.08
3170.18
3170.28
3170.4
3170.54
3170.7
3170.85
3170.98
3169.53
3169.64
3169.76
3169.87
3169.97
3170.07
3170.17
3170.29
3170.43
3170.58
3170.74
3170.87
3169.42
3169.53
3169.65
3169.76
3169.87
3169.96
3170.06
3170.18
3170.32
3170.47
3170.62
3170.75
3169.31
3169.42
3169.54
3169.65
3169.76
3169.85
3169.95
3170.07
3170.21
3170.35
3170.5
3170.63
3169.19
3169.3
3169.43
3169.54
3169.64
3169.74
3169.84
3169.95
3170.09
3170.23
3170.38
3170.51
3169.08
3169.19
3169.31
3169.43
3169.53
3169.62
3169.72
3169.84
3169.97
3170.11
3170.26
3170.38
3168.96
3169.07
3169.19
3169.31
3169.41
3169.51
3169.6
3169.72
3169.85
3169.99
3170.13
3170.26
3168.84
3168.95
3169.08
3169.19
3169.29
3169.39
3169.49
3169.6
3169.73
3169.87
3170.01
3170.13
3168.72
3168.83
3168.96
3169.07
3169.17
3169.27
3169.37
3169.48
3169.6
3169.74
3169.88
3170
3168.6
3168.71
3168.84
3168.95
3169.05
3169.15
3169.24
3169.35
3169.48
3169.62
3169.75
3169.87
3168.47
3168.59
3168.71
3168.83
3168.93
3169.03
3169.12
3169.23
3169.35
3169.49
3169.62
3169.74
3168.35
3168.47
3168.59
3168.71
3168.81
3168.91
3169
3169.11
3169.23
3169.36
3169.49
3169.61
3168.23
3168.35
3168.47
3168.59
3168.69
3168.78
3168.88
3168.98
3169.1
3169.23
3169.36
3169.47
3168.1
3168.22
3168.35
3168.47
3168.57
3168.66
3168.75
3168.86
3168.98
3169.1
3169.23
3169.34
3167.98
3168.1
3168.23
3168.35
3168.45
3168.54
3168.63
3168.73
3168.85
3168.97
3169.1
3169.21
3167.86
3167.98
3168.11
3168.23
3168.33
3168.42
3168.51
3168.61
3168.73
3168.85
3168.97
3169.08
3167.74
3167.86
3167.99
3168.11
3168.21
3168.3
3168.39
3168.49
3168.6
3168.72
3168.84
3168.95
3167.62
3167.74
3167.87
3167.99
3168.09
3168.18
3168.27
3168.37
3168.48
3168.59
3168.71
3168.82
3167.5
3167.62
3167.75
3167.87
3167.97
3168.06
3168.15
3168.25
3168.36
3168.47
3168.59
3168.69
3167.38
3167.51
3167.64
3167.76
3167.86
3167.95
3168.03
3168.13
3168.24
3168.35
3168.46
3168.56
3167.27
3167.39
3167.52
3167.64
3167.74
3167.83
3167.92
3168.01
3168.12
3168.23
3168.34
3168.44
3167.16
3167.28
3167.41
3167.53
3167.63
3167.72
3167.81
3167.9
3168
3168.11
3168.22
3168.32
3167.05
3167.17
3167.31
3167.42
3167.53
3167.61
3167.7
3167.79
3167.89
3167.99
3168.1
3168.2
3166.94
3167.07
3167.2
3167.32
3167.42
3167.51
3167.59
3167.68
3167.78
3167.88
3167.99
3168.08
3166.84
3166.97
3167.1
3167.22
3167.32
3167.41
3167.49
3167.57
3167.67
3167.77
3167.88
3167.97
3166.74
3166.87
3167
3167.12
3167.22
3167.31
3167.39
3167.47
3167.57
3167.67
3167.77
3167.86
3166.65
3166.78
3166.91
3167.03
3167.13
3167.21
3167.29
3167.38
3167.47
3167.57
3167.67
3167.76
3166.56
3166.69
3166.82
3166.94
3167.04
3167.13
3167.2
3167.29
3167.38
3167.47
3167.57
3167.66
3166.48
3166.61
3166.74
3166.86
3166.96
3167.04
3167.12
3167.2
3167.29
3167.39
3167.48
3167.57
3166.41
3166.54
3166.67
3166.79
3166.89
3166.97
3167.05
3167.12
3167.21
3167.31
3167.4
3167.49
3166.34
3166.47
3166.61
3166.72
3166.82
3166.9
3166.98
3167.06
3167.14
3167.23
3167.33
3167.42
3166.29
3166.42
3166.55
3166.67
3166.77
3166.85
3166.92
3167
3167.08
3167.17
3167.27
3167.36
3166.25
3166.38
3166.51
3166.63
3166.72
3166.81
3166.88
3166.95
3167.04
3167.13
3167.22
3167.31
3166.22
3166.35
3166.48
3166.6
3166.7
3166.78
3166.85
3166.92
3167
3167.09
3167.18
3167.27
3166.21
3166.34
3166.47
3166.59
3166.68
3166.76
3166.84
3166.91
3166.99
3167.08
3167.17
3167.25
3166.23
3166.35
3166.48
3166.6
3166.69
3166.77
3166.84
3166.91
3166.99
3167.08
3167.17
3167.26
3166.26
3166.39
3166.51
3166.63
3166.72
3166.8
3166.87
3166.94
3167.02
3167.11
3167.2
3167.28
3166.32
3166.44
3166.57
3166.68
3166.78
3166.85
3166.92
3166.99
3167.07
3167.16
3167.25
3167.33
3166.39
3166.52
3166.65
3166.76
3166.85
3166.93
3167
3167.07
3167.15
3167.23
3167.32
3167.41
3166.49
3166.62
3166.74
3166.85
3166.95
3167.02
3167.09
3167.16
3167.24
3167.32
3167.41
3167.5
3166.6
3166.72
3166.85
3166.96
3167.05
3167.13
3167.2
3167.27
3167.35
3167.43
3167.52
3167.61
3166.71
3166.84
3166.96
3167.07
3167.16
3167.24
3167.31
3167.38
3167.46
3167.54
3167.64
3167.73
3166.82
3166.94
3167.06
3167.17
3167.26
3167.34
3167.41
3167.48
3167.56
3167.65
3167.74
3167.84
3531.63
3531.77
3531.94
3532.11
3532.26
3532.43
3532.59
3532.8
3533.05
3533.33
3533.62
3533.86
3527.98
3528.11
3528.28
3528.44
3528.6
3528.75
3528.92
3529.12
3529.37
3529.64
3529.92
3530.16
3522.32
3522.45
3522.61
3522.77
3522.92
3523.07
3523.23
3523.43
3523.67
3523.93
3524.2
3524.43
3518.65
3518.78
3518.94
3519.1
3519.24
3519.39
3519.55
3519.74
3519.97
3520.23
3520.49
3520.71
3517.69
3517.82
3517.98
3518.14
3518.28
3518.43
3518.58
3518.78
3519
3519.26
3519.52
3519.74
3517.73
3517.86
3518.02
3518.17
3518.32
3518.47
3518.62
3518.81
3519.04
3519.3
3519.56
3519.78
3517.77
3517.9
3518.05
3518.21
3518.35
3518.5
3518.66
3518.85
3519.08
3519.33
3519.59
3519.81
3517.8
3517.93
3518.08
3518.24
3518.38
3518.53
3518.69
3518.88
3519.11
3519.36
3519.62
3519.84
3517.82
3517.95
3518.11
3518.26
3518.41
3518.56
3518.71
3518.9
3519.13
3519.38
3519.64
3519.86
3517.84
3517.97
3518.12
3518.28
3518.42
3518.57
3518.73
3518.92
3519.15
3519.4
3519.66
3519.88
3517.84
3517.98
3518.13
3518.29
3518.43
3518.58
3518.74
3518.93
3519.15
3519.41
3519.66
3519.88
3517.85
3517.98
3518.14
3518.29
3518.44
3518.59
3518.74
3518.93
3519.16
3519.41
3519.67
3519.88
3517.85
3517.98
3518.13
3518.29
3518.44
3518.58
3518.74
3518.93
3519.15
3519.4
3519.66
3519.88
3517.84
3517.97
3518.13
3518.28
3518.43
3518.58
3518.73
3518.92
3519.15
3519.4
3519.65
3519.87
3517.83
3517.96
3518.11
3518.27
3518.42
3518.56
3518.72
3518.91
3519.13
3519.38
3519.63
3519.85
3517.81
3517.94
3518.1
3518.25
3518.4
3518.54
3518.7
3518.89
3519.11
3519.36
3519.61
3519.83
3517.78
3517.91
3518.07
3518.23
3518.37
3518.52
3518.67
3518.86
3519.09
3519.33
3519.59
3519.8
3517.75
3517.89
3518.04
3518.2
3518.35
3518.49
3518.65
3518.83
3519.06
3519.3
3519.55
3519.77
3517.72
3517.85
3518.01
3518.17
3518.31
3518.46
3518.61
3518.8
3519.02
3519.26
3519.51
3519.73
3517.68
3517.81
3517.97
3518.13
3518.27
3518.42
3518.57
3518.76
3518.98
3519.22
3519.47
3519.68
3517.63
3517.77
3517.92
3518.08
3518.23
3518.37
3518.53
3518.71
3518.93
3519.17
3519.42
3519.63
3517.58
3517.72
3517.87
3518.03
3518.18
3518.32
3518.48
3518.66
3518.88
3519.12
3519.37
3519.58
3517.53
3517.66
3517.82
3517.98
3518.12
3518.27
3518.42
3518.61
3518.82
3519.06
3519.31
3519.52
3517.47
3517.6
3517.76
3517.92
3518.06
3518.21
3518.36
3518.54
3518.76
3519
3519.24
3519.45
3517.4
3517.54
3517.7
3517.86
3518
3518.15
3518.3
3518.48
3518.69
3518.93
3519.17
3519.38
3517.34
3517.47
3517.63
3517.79
3517.93
3518.08
3518.23
3518.41
3518.62
3518.86
3519.1
3519.31
3517.26
3517.4
3517.56
3517.71
3517.86
3518
3518.16
3518.34
3518.55
3518.78
3519.02
3519.22
3517.18
3517.32
3517.48
3517.64
3517.78
3517.93
3518.08
3518.26
3518.47
3518.7
3518.93
3519.14
3517.1
3517.24
3517.4
3517.56
3517.7
3517.85
3518
3518.17
3518.38
3518.61
3518.85
3519.05
3517.02
3517.15
3517.31
3517.47
3517.62
3517.76
3517.91
3518.09
3518.3
3518.52
3518.75
3518.96
3516.93
3517.06
3517.22
3517.38
3517.53
3517.67
3517.82
3518
3518.2
3518.43
3518.66
3518.86
3516.83
3516.97
3517.13
3517.29
3517.43
3517.58
3517.73
3517.9
3518.11
3518.33
3518.56
3518.76
3516.74
3516.88
3517.03
3517.19
3517.34
3517.48
3517.63
3517.8
3518.01
3518.23
3518.45
3518.65
3516.64
3516.78
3516.93
3517.09
3517.24
3517.38
3517.53
3517.7
3517.9
3518.12
3518.34
3518.54
3516.53
3516.67
3516.83
3516.99
3517.14
3517.28
3517.43
3517.6
3517.8
3518.01
3518.23
3518.43
3516.42
3516.57
3516.73
3516.89
3517.03
3517.17
3517.32
3517.49
3517.69
3517.9
3518.12
3518.31
3516.31
3516.46
3516.62
3516.78
3516.92
3517.06
3517.21
3517.38
3517.57
3517.79
3518
3518.19
3516.2
3516.34
3516.51
3516.67
3516.81
3516.95
3517.1
3517.26
3517.46
3517.67
3517.88
3518.07
3516.09
3516.23
3516.39
3516.55
3516.7
3516.84
3516.98
3517.15
3517.34
3517.55
3517.76
3517.94
3515.97
3516.11
3516.28
3516.44
3516.58
3516.72
3516.86
3517.03
3517.22
3517.42
3517.63
3517.82
3515.85
3516
3516.16
3516.32
3516.46
3516.6
3516.74
3516.91
3517.1
3517.3
3517.5
3517.69
3515.73
3515.88
3516.04
3516.2
3516.34
3516.48
3516.62
3516.78
3516.97
3517.17
3517.37
3517.55
3515.61
3515.75
3515.92
3516.08
3516.22
3516.36
3516.5
3516.66
3516.84
3517.04
3517.24
3517.42
3515.48
3515.63
3515.79
3515.95
3516.1
3516.24
3516.38
3516.53
3516.72
3516.91
3517.11
3517.29
3515.36
3515.51
3515.67
3515.83
3515.97
3516.11
3516.25
3516.41
3516.59
3516.78
3516.97
3517.15
3515.23
3515.38
3515.54
3515.7
3515.85
3515.99
3516.12
3516.28
3516.46
3516.65
3516.84
3517.01
3515.11
3515.26
3515.42
3515.58
3515.72
3515.86
3516
3516.15
3516.32
3516.51
3516.7
3516.87
3514.98
3515.13
3515.29
3515.45
3515.6
3515.73
3515.87
3516.02
3516.19
3516.38
3516.56
3516.73
3514.85
3515
3515.17
3515.33
3515.47
3515.61
3515.74
3515.89
3516.06
3516.24
3516.42
3516.59
3514.73
3514.88
3515.04
3515.2
3515.35
3515.48
3515.61
3515.76
3515.93
3516.11
3516.29
3516.45
3514.6
3514.75
3514.92
3515.08
3515.22
3515.35
3515.49
3515.63
3515.8
3515.97
3516.15
3516.31
3514.48
3514.63
3514.79
3514.95
3515.1
3515.23
3515.36
3515.5
3515.67
3515.84
3516.02
3516.18
3514.35
3514.51
3514.67
3514.83
3514.97
3515.11
3515.24
3515.38
3515.54
3515.71
3515.88
3516.04
3514.23
3514.38
3514.55
3514.71
3514.85
3514.98
3515.11
3515.25
3515.41
3515.58
3515.75
3515.9
3514.11
3514.26
3514.43
3514.59
3514.73
3514.86
3514.99
3515.13
3515.28
3515.45
3515.61
3515.77
3513.99
3514.15
3514.31
3514.47
3514.61
3514.74
3514.87
3515.01
3515.16
3515.32
3515.48
3515.64
3513.87
3514.03
3514.2
3514.36
3514.5
3514.62
3514.75
3514.89
3515.04
3515.2
3515.36
3515.51
3513.76
3513.92
3514.08
3514.24
3514.38
3514.51
3514.63
3514.77
3514.92
3515.07
3515.23
3515.38
3513.65
3513.81
3513.97
3514.13
3514.27
3514.4
3514.52
3514.65
3514.8
3514.95
3515.11
3515.26
3513.54
3513.7
3513.87
3514.02
3514.16
3514.29
3514.41
3514.54
3514.68
3514.84
3514.99
3515.13
3513.44
3513.6
3513.76
3513.92
3514.06
3514.18
3514.31
3514.43
3514.57
3514.72
3514.87
3515.02
3513.34
3513.5
3513.66
3513.82
3513.96
3514.08
3514.2
3514.33
3514.47
3514.61
3514.76
3514.9
3513.25
3513.4
3513.57
3513.73
3513.86
3513.99
3514.11
3514.23
3514.37
3514.51
3514.66
3514.8
3513.16
3513.32
3513.48
3513.64
3513.78
3513.9
3514.01
3514.14
3514.27
3514.41
3514.56
3514.7
3513.08
3513.23
3513.4
3513.56
3513.69
3513.81
3513.93
3514.05
3514.18
3514.32
3514.46
3514.6
3513.01
3513.16
3513.33
3513.48
3513.62
3513.74
3513.85
3513.97
3514.1
3514.24
3514.38
3514.51
3512.94
3513.1
3513.26
3513.42
3513.55
3513.67
3513.78
3513.9
3514.03
3514.17
3514.3
3514.44
3512.89
3513.04
3513.21
3513.36
3513.5
3513.61
3513.73
3513.84
3513.97
3514.1
3514.24
3514.37
3512.85
3513
3513.17
3513.32
3513.45
3513.57
3513.68
3513.79
3513.92
3514.05
3514.19
3514.32
3512.82
3512.98
3513.14
3513.29
3513.43
3513.54
3513.65
3513.76
3513.89
3514.02
3514.15
3514.28
3512.82
3512.97
3513.13
3513.29
3513.42
3513.53
3513.64
3513.75
3513.87
3514
3514.14
3514.27
3512.83
3512.99
3513.15
3513.3
3513.43
3513.54
3513.65
3513.76
3513.88
3514.01
3514.14
3514.27
3512.87
3513.02
3513.18
3513.33
3513.46
3513.57
3513.68
3513.79
3513.91
3514.04
3514.17
3514.3
3512.94
3513.08
3513.24
3513.39
3513.52
3513.63
3513.74
3513.85
3513.96
3514.09
3514.23
3514.36
3513.02
3513.17
3513.32
3513.47
3513.6
3513.71
3513.82
3513.93
3514.04
3514.17
3514.31
3514.44
3513.13
3513.27
3513.43
3513.57
3513.7
3513.81
3513.92
3514.03
3514.15
3514.27
3514.41
3514.54
3513.24
3513.39
3513.54
3513.68
3513.81
3513.92
3514.03
3514.14
3514.26
3514.39
3514.53
3514.66
3513.36
3513.5
3513.65
3513.8
3513.92
3514.03
3514.14
3514.25
3514.37
3514.51
3514.65
3514.78
3513.46
3513.6
3513.76
3513.9
3514.02
3514.14
3514.24
3514.35
3514.48
3514.61
3514.75
3514.9
3900.57
3900.7
3900.87
3901.05
3901.23
3901.41
3901.58
3901.78
3901.99
3902.21
3902.41
3902.58
3896.6
3896.73
3896.89
3897.07
3897.25
3897.42
3897.59
3897.78
3897.99
3898.2
3898.41
3898.57
3890.46
3890.58
3890.75
3890.92
3891.09
3891.26
3891.42
3891.61
3891.81
3892.01
3892.2
3892.36
3886.48
3886.61
3886.76
3886.93
3887.1
3887.27
3887.43
3887.61
3887.8
3888
3888.19
3888.34
3885.44
3885.56
3885.72
3885.89
3886.05
3886.22
3886.38
3886.56
3886.75
3886.95
3887.13
3887.28
3885.48
3885.6
3885.76
3885.93
3886.1
3886.26
3886.42
3886.6
3886.79
3886.99
3887.17
3887.32
3885.52
3885.64
3885.8
3885.97
3886.13
3886.3
3886.46
3886.64
3886.83
3887.02
3887.21
3887.36
3885.55
3885.67
3885.83
3886
3886.16
3886.33
3886.49
3886.67
3886.86
3887.05
3887.24
3887.38
3885.57
3885.69
3885.85
3886.02
3886.19
3886.35
3886.51
3886.69
3886.88
3887.08
3887.26
3887.41
3885.59
3885.71
3885.87
3886.04
3886.2
3886.37
3886.53
3886.7
3886.89
3887.09
3887.28
3887.42
3885.6
3885.72
3885.88
3886.05
3886.21
3886.38
3886.54
3886.71
3886.9
3887.1
3887.28
3887.43
3885.6
3885.72
3885.88
3886.05
3886.22
3886.38
3886.54
3886.71
3886.9
3887.1
3887.28
3887.43
3885.59
3885.72
3885.88
3886.05
3886.21
3886.37
3886.53
3886.71
3886.9
3887.09
3887.28
3887.42
3885.58
3885.71
3885.87
3886.04
3886.2
3886.36
3886.52
3886.7
3886.89
3887.08
3887.26
3887.41
3885.57
3885.69
3885.85
3886.02
3886.18
3886.35
3886.51
3886.68
3886.87
3887.06
3887.24
3887.39
3885.54
3885.67
3885.83
3886
3886.16
3886.32
3886.48
3886.66
3886.84
3887.04
3887.22
3887.36
3885.51
3885.64
3885.8
3885.97
3886.13
3886.3
3886.45
3886.63
3886.81
3887.01
3887.18
3887.33
3885.48
3885.6
3885.76
3885.93
3886.1
3886.26
3886.42
3886.59
3886.78
3886.97
3887.15
3887.29
3885.44
3885.56
3885.72
3885.89
3886.06
3886.22
3886.38
3886.55
3886.73
3886.92
3887.1
3887.24
3885.39
3885.52
3885.68
3885.85
3886.01
3886.17
3886.33
3886.5
3886.69
3886.88
3887.05
3887.19
3885.34
3885.47
3885.63
3885.8
3885.96
3886.12
3886.28
3886.45
3886.63
3886.82
3887
3887.14
3885.28
3885.41
3885.57
3885.74
3885.9
3886.06
3886.22
3886.39
3886.57
3886.76
3886.93
3887.07
3885.22
3885.35
3885.5
3885.68
3885.84
3886
3886.16
3886.33
3886.51
3886.69
3886.87
3887.01
3885.15
3885.28
3885.44
3885.61
3885.77
3885.93
3886.09
3886.26
3886.44
3886.62
3886.79
3886.93
3885.08
3885.2
3885.36
3885.53
3885.7
3885.86
3886.01
3886.18
3886.36
3886.54
3886.71
3886.85
3885
3885.13
3885.29
3885.46
3885.62
3885.78
3885.93
3886.1
3886.28
3886.46
3886.63
3886.77
3884.91
3885.04
3885.2
3885.37
3885.54
3885.7
3885.85
3886.02
3886.19
3886.37
3886.54
3886.68
3884.82
3884.95
3885.11
3885.28
3885.45
3885.61
3885.76
3885.93
3886.1
3886.28
3886.45
3886.58
3884.73
3884.86
3885.02
3885.19
3885.36
3885.51
3885.67
3885.83
3886.01
3886.18
3886.35
3886.48
3884.63
3884.76
3884.92
3885.1
3885.26
3885.42
3885.57
3885.73
3885.9
3886.08
3886.24
3886.38
3884.53
3884.66
3884.82
3884.99
3885.16
3885.31
3885.47
3885.63
3885.8
3885.97
3886.14
3886.27
3884.42
3884.56
3884.72
3884.89
3885.05
3885.21
3885.36
3885.52
3885.69
3885.86
3886.02
3886.16
3884.31
3884.45
3884.61
3884.78
3884.94
3885.1
3885.25
3885.41
3885.58
3885.75
3885.91
3886.04
3884.2
3884.33
3884.49
3884.67
3884.83
3884.98
3885.13
3885.29
3885.46
3885.63
3885.78
3885.92
3884.08
3884.22
3884.38
3884.55
3884.71
3884.86
3885.01
3885.17
3885.34
3885.5
3885.66
3885.79
3883.96
3884.09
3884.26
3884.43
3884.59
3884.74
3884.89
3885.05
3885.21
3885.38
3885.53
3885.66
3883.83
3883.97
3884.13
3884.3
3884.47
3884.62
3884.77
3884.92
3885.08
3885.25
3885.4
3885.53
3883.71
3883.84
3884.01
3884.18
3884.34
3884.49
3884.64
3884.79
3884.95
3885.11
3885.26
3885.39
3883.58
3883.72
3883.88
3884.05
3884.21
3884.36
3884.51
3884.66
3884.82
3884.98
3885.13
3885.25
3883.44
3883.58
3883.75
3883.92
3884.08
3884.23
3884.37
3884.52
3884.68
3884.84
3884.99
3885.11
3883.31
3883.45
3883.61
3883.78
3883.94
3884.09
3884.24
3884.39
3884.54
3884.7
3884.84
3884.97
3883.17
3883.31
3883.48
3883.65
3883.81
3883.96
3884.1
3884.25
3884.4
3884.55
3884.7
3884.82
3883.03
3883.17
3883.34
3883.51
3883.67
3883.82
3883.96
3884.1
3884.26
3884.41
3884.55
3884.67
3882.89
3883.03
3883.2
3883.37
3883.53
3883.68
3883.82
3883.96
3884.11
3884.26
3884.4
3884.52
3882.75
3882.89
3883.06
3883.23
3883.39
3883.54
3883.67
3883.82
3883.97
3884.11
3884.25
3884.37
3882.61
3882.75
3882.92
3883.09
3883.25
3883.39
3883.53
3883.67
3883.82
3883.96
3884.1
3884.21
3882.46
3882.61
3882.78
3882.95
3883.1
3883.25
3883.39
3883.52
3883.67
3883.81
3883.95
3884.06
3882.32
3882.47
3882.64
3882.81
3882.96
3883.11
3883.24
3883.38
3883.52
3883.66
3883.79
3883.91
3882.18
3882.33
3882.49
3882.66
3882.82
3882.96
3883.1
3883.23
3883.37
3883.51
3883.64
3883.75
3882.03
3882.18
3882.35
3882.52
3882.68
3882.82
3882.95
3883.08
3883.22
3883.36
3883.49
3883.6
3881.89
3882.04
3882.21
3882.38
3882.53
3882.68
3882.81
3882.94
3883.07
3883.21
3883.33
3883.44
3881.75
3881.9
3882.07
3882.24
3882.39
3882.53
3882.66
3882.79
3882.93
3883.06
3883.18
3883.29
3881.61
3881.76
3881.93
3882.1
3882.25
3882.39
3882.52
3882.65
3882.78
3882.91
3883.03
3883.14
3881.47
3881.63
3881.79
3881.96
3882.12
3882.25
3882.38
3882.51
3882.64
3882.76
3882.88
3882.99
3881.34
3881.49
3881.66
3881.83
3881.98
3882.12
3882.24
3882.37
3882.49
3882.62
3882.74
3882.84
3881.2
3881.36
3881.53
3881.69
3881.85
3881.98
3882.11
3882.23
3882.35
3882.47
3882.59
3882.69
3881.07
3881.23
3881.4
3881.56
3881.71
3881.85
3881.97
3882.09
3882.21
3882.33
3882.45
3882.55
3880.94
3881.1
3881.27
3881.44
3881.59
3881.72
3881.84
3881.96
3882.08
3882.2
3882.31
3882.41
3880.82
3880.97
3881.15
3881.31
3881.46
3881.59
3881.71
3881.83
3881.95
3882.06
3882.17
3882.27
3880.7
3880.85
3881.03
3881.19
3881.34
3881.47
3881.59
3881.7
3881.82
3881.93
3882.04
3882.14
3880.58
3880.74
3880.91
3881.07
3881.22
3881.35
3881.47
3881.58
3881.69
3881.81
3881.91
3882.01
3880.47
3880.63
3880.8
3880.96
3881.11
3881.24
3881.35
3881.46
3881.58
3881.68
3881.79
3881.89
3880.37
3880.52
3880.69
3880.86
3881
3881.13
3881.24
3881.35
3881.46
3881.57
3881.67
3881.77
3880.27
3880.42
3880.59
3880.76
3880.9
3881.03
3881.14
3881.25
3881.35
3881.46
3881.56
3881.66
3880.18
3880.33
3880.5
3880.67
3880.81
3880.93
3881.04
3881.15
3881.25
3881.36
3881.46
3881.55
3880.09
3880.25
3880.42
3880.58
3880.72
3880.85
3880.96
3881.06
3881.16
3881.26
3881.36
3881.46
3880.02
3880.18
3880.35
3880.51
3880.65
3880.77
3880.88
3880.98
3881.08
3881.18
3881.28
3881.37
3879.96
3880.12
3880.28
3880.44
3880.59
3880.71
3880.81
3880.91
3881.01
3881.11
3881.21
3881.3
3879.91
3880.07
3880.24
3880.4
3880.54
3880.65
3880.76
3880.86
3880.96
3881.05
3881.15
3881.24
3879.88
3880.04
3880.2
3880.36
3880.5
3880.62
3880.72
3880.82
3880.92
3881.01
3881.11
3881.2
3879.87
3880.03
3880.19
3880.35
3880.49
3880.6
3880.71
3880.8
3880.9
3880.99
3881.09
3881.18
3879.89
3880.04
3880.2
3880.36
3880.49
3880.61
3880.71
3880.81
3880.9
3881
3881.09
3881.19
3879.93
3880.08
3880.24
3880.39
3880.53
3880.64
3880.74
3880.84
3880.93
3881.03
3881.12
3881.22
3879.99
3880.14
3880.3
3880.45
3880.59
3880.7
3880.8
3880.89
3880.99
3881.08
3881.18
3881.28
3880.08
3880.23
3880.39
3880.54
3880.67
3880.79
3880.89
3880.98
3881.07
3881.17
3881.27
3881.37
3880.2
3880.34
3880.5
3880.65
3880.78
3880.89
3880.99
3881.09
3881.18
3881.28
3881.38
3881.48
3880.32
3880.47
3880.63
3880.77
3880.9
3881.02
3881.12
3881.21
3881.31
3881.41
3881.51
3881.61
3880.45
3880.59
3880.75
3880.9
3881.03
3881.14
3881.24
3881.33
3881.43
3881.53
3881.64
3881.75
3880.56
3880.7
3880.86
3881.01
3881.14
3881.25
3881.35
3881.44
3881.54
3881.65
3881.76
3881.87
4289.62
4289.73
4289.89
4290.06
4290.23
4290.4
4290.55
4290.7
4290.84
4290.97
4291.07
4291.12
4285.28
4285.39
4285.55
4285.72
4285.89
4286.05
4286.2
4286.34
4286.48
4286.6
4286.7
4286.75
4278.57
4278.68
4278.83
4279
4279.16
4279.32
4279.46
4279.6
4279.73
4279.85
4279.94
4279.98
4274.23
4274.34
4274.48
4274.65
4274.8
4274.96
4275.1
4275.23
4275.36
4275.47
4275.56
4275.6
4273.09
4273.2
4273.34
4273.5
4273.66
4273.81
4273.95
4274.09
4274.21
4274.32
4274.41
4274.45
4273.13
4273.24
4273.39
4273.55
4273.7
4273.86
4274
4274.13
4274.26
4274.37
4274.46
4274.49
4273.17
4273.28
4273.43
4273.59
4273.75
4273.9
4274.04
4274.17
4274.3
4274.41
4274.49
4274.53
4273.21
4273.31
4273.46
4273.62
4273.78
4273.93
4274.07
4274.2
4274.33
4274.44
4274.52
4274.56
4273.23
4273.34
4273.48
4273.64
4273.8
4273.96
4274.09
4274.22
4274.35
4274.46
4274.55
4274.59
4273.25
4273.35
4273.5
4273.66
4273.82
4273.97
4274.11
4274.24
4274.36
4274.47
4274.56
4274.6
4273.25
4273.36
4273.51
4273.67
4273.83
4273.98
4274.11
4274.25
4274.37
4274.48
4274.57
4274.61
4273.25
4273.36
4273.51
4273.67
4273.83
4273.98
4274.11
4274.25
4274.37
4274.48
4274.57
4274.6
4273.25
4273.35
4273.5
4273.66
4273.82
4273.97
4274.11
4274.24
4274.36
4274.47
4274.56
4274.59
4273.23
4273.34
4273.49
4273.65
4273.81
4273.96
4274.09
4274.23
4274.35
4274.46
4274.54
4274.58
4273.21
4273.32
4273.47
4273.63
4273.79
4273.94
4274.07
4274.2
4274.33
4274.43
4274.52
4274.55
4273.19
4273.29
4273.44
4273.6
4273.76
4273.91
4274.04
4274.18
4274.3
4274.4
4274.49
4274.52
4273.15
4273.26
4273.4
4273.57
4273.72
4273.88
4274.01
4274.14
4274.26
4274.37
4274.45
4274.49
4273.11
4273.22
4273.36
4273.53
4273.68
4273.83
4273.97
4274.1
4274.22
4274.32
4274.41
4274.44
4273.06
4273.17
4273.32
4273.48
4273.64
4273.79
4273.92
4274.05
4274.17
4274.27
4274.35
4274.39
4273.01
4273.12
4273.26
4273.43
4273.58
4273.73
4273.87
4273.99
4274.11
4274.22
4274.3
4274.33
4272.95
4273.06
4273.2
4273.37
4273.52
4273.67
4273.8
4273.93
4274.05
4274.15
4274.23
4274.27
4272.88
4272.99
4273.14
4273.3
4273.46
4273.61
4273.74
4273.86
4273.98
4274.08
4274.16
4274.2
4272.81
4272.92
4273.06
4273.23
4273.38
4273.53
4273.66
4273.79
4273.91
4274.01
4274.09
4274.12
4272.73
4272.84
4272.99
4273.15
4273.3
4273.45
4273.58
4273.71
4273.83
4273.93
4274
4274.04
4272.64
4272.76
4272.9
4273.07
4273.22
4273.37
4273.5
4273.62
4273.74
4273.84
4273.91
4273.95
4272.55
4272.67
4272.81
4272.98
4273.13
4273.28
4273.41
4273.53
4273.65
4273.74
4273.82
4273.85
4272.46
4272.57
4272.72
4272.88
4273.04
4273.18
4273.31
4273.43
4273.55
4273.64
4273.72
4273.75
4272.35
4272.47
4272.62
4272.78
4272.93
4273.08
4273.21
4273.33
4273.44
4273.54
4273.61
4273.65
4272.25
4272.36
4272.51
4272.67
4272.83
4272.97
4273.1
4273.22
4273.33
4273.43
4273.5
4273.53
4272.14
4272.25
4272.4
4272.56
4272.72
4272.86
4272.99
4273.11
4273.22
4273.31
4273.38
4273.42
4272.02
4272.14
4272.28
4272.45
4272.6
4272.74
4272.87
4272.99
4273.1
4273.19
4273.26
4273.29
4271.9
4272.01
4272.16
4272.33
4272.48
4272.62
4272.75
4272.87
4272.97
4273.06
4273.13
4273.17
4271.77
4271.89
4272.04
4272.2
4272.35
4272.5
4272.62
4272.74
4272.84
4272.93
4273
4273.03
4271.64
4271.76
4271.91
4272.07
4272.22
4272.37
4272.49
4272.6
4272.71
4272.8
4272.86
4272.9
4271.5
4271.63
4271.77
4271.94
4272.09
4272.23
4272.35
4272.47
4272.57
4272.66
4272.72
4272.75
4271.36
4271.49
4271.64
4271.8
4271.95
4272.09
4272.21
4272.33
4272.43
4272.51
4272.58
4272.61
4271.22
4271.35
4271.5
4271.66
4271.81
4271.95
4272.07
4272.18
4272.28
4272.36
4272.43
4272.46
4271.08
4271.2
4271.35
4271.51
4271.66
4271.8
4271.92
4272.03
4272.13
4272.21
4272.27
4272.3
4270.93
4271.05
4271.2
4271.37
4271.52
4271.65
4271.77
4271.88
4271.98
4272.06
4272.12
4272.15
4270.77
4270.9
4271.05
4271.21
4271.36
4271.5
4271.62
4271.73
4271.82
4271.9
4271.96
4271.99
4270.62
4270.75
4270.9
4271.06
4271.21
4271.35
4271.46
4271.57
4271.66
4271.74
4271.8
4271.83
4270.46
4270.59
4270.74
4270.91
4271.05
4271.19
4271.31
4271.41
4271.5
4271.58
4271.63
4271.66
4270.3
4270.43
4270.59
4270.75
4270.9
4271.03
4271.15
4271.25
4271.34
4271.41
4271.46
4271.49
4270.14
4270.27
4270.43
4270.59
4270.74
4270.87
4270.98
4271.08
4271.17
4271.24
4271.3
4271.32
4269.98
4270.11
4270.27
4270.43
4270.57
4270.71
4270.82
4270.92
4271
4271.07
4271.12
4271.15
4269.81
4269.95
4270.1
4270.26
4270.41
4270.54
4270.65
4270.75
4270.84
4270.9
4270.95
4270.98
4269.65
4269.79
4269.94
4270.1
4270.25
4270.38
4270.49
4270.58
4270.67
4270.73
4270.78
4270.81
4269.48
4269.62
4269.78
4269.94
4270.08
4270.21
4270.32
4270.41
4270.5
4270.56
4270.61
4270.63
4269.32
4269.46
4269.61
4269.77
4269.92
4270.05
4270.15
4270.25
4270.33
4270.39
4270.43
4270.46
4269.16
4269.29
4269.45
4269.61
4269.76
4269.88
4269.99
4270.08
4270.16
4270.22
4270.26
4270.28
4268.99
4269.13
4269.29
4269.45
4269.59
4269.72
4269.82
4269.91
4269.99
4270.04
4270.09
4270.11
4268.83
4268.97
4269.13
4269.29
4269.43
4269.55
4269.66
4269.74
4269.82
4269.87
4269.92
4269.94
4268.67
4268.81
4268.97
4269.13
4269.27
4269.39
4269.49
4269.58
4269.65
4269.7
4269.74
4269.77
4268.51
4268.65
4268.81
4268.97
4269.11
4269.23
4269.33
4269.41
4269.48
4269.54
4269.58
4269.6
4268.35
4268.49
4268.65
4268.81
4268.95
4269.07
4269.17
4269.25
4269.32
4269.37
4269.41
4269.43
4268.19
4268.34
4268.5
4268.66
4268.8
4268.92
4269.01
4269.09
4269.16
4269.21
4269.24
4269.26
4268.04
4268.19
4268.35
4268.51
4268.64
4268.76
4268.86
4268.93
4269
4269.05
4269.08
4269.1
4267.89
4268.04
4268.2
4268.36
4268.49
4268.61
4268.7
4268.78
4268.84
4268.89
4268.92
4268.94
4267.75
4267.89
4268.06
4268.21
4268.35
4268.46
4268.55
4268.63
4268.69
4268.73
4268.77
4268.79
4267.61
4267.75
4267.92
4268.07
4268.21
4268.32
4268.41
4268.48
4268.54
4268.58
4268.61
4268.63
4267.47
4267.62
4267.78
4267.94
4268.07
4268.18
4268.27
4268.34
4268.4
4268.44
4268.47
4268.49
4267.34
4267.49
4267.65
4267.81
4267.94
4268.05
4268.14
4268.2
4268.26
4268.3
4268.33
4268.35
4267.22
4267.37
4267.53
4267.68
4267.82
4267.92
4268.01
4268.07
4268.13
4268.17
4268.19
4268.21
4267.1
4267.25
4267.41
4267.57
4267.7
4267.81
4267.89
4267.95
4268
4268.04
4268.07
4268.09
4266.99
4267.14
4267.31
4267.46
4267.59
4267.69
4267.78
4267.84
4267.89
4267.92
4267.95
4267.97
4266.9
4267.05
4267.21
4267.36
4267.49
4267.59
4267.67
4267.73
4267.78
4267.81
4267.84
4267.86
4266.81
4266.96
4267.12
4267.27
4267.4
4267.5
4267.58
4267.64
4267.68
4267.72
4267.74
4267.76
4266.74
4266.89
4267.05
4267.2
4267.32
4267.43
4267.5
4267.56
4267.6
4267.64
4267.66
4267.68
4266.68
4266.83
4266.99
4267.14
4267.26
4267.36
4267.44
4267.49
4267.54
4267.57
4267.59
4267.62
4266.64
4266.79
4266.95
4267.1
4267.22
4267.32
4267.39
4267.45
4267.49
4267.52
4267.55
4267.57
4266.63
4266.78
4266.93
4267.08
4267.2
4267.3
4267.37
4267.42
4267.47
4267.5
4267.52
4267.55
4266.64
4266.79