-0.0075 	0 	0 	0
-0.0075 	-2.73885e-34 	-8.92634e-37 	-7.27136e-33
-0.00745622 	-0.000359966 	-1.17319e-06 	-0.00955676
-0.00745622 	-0.000359966 	-1.17319e-06 	-0.00955676
-0.00741165 	-0.000529632 	-1.23837e-06 	-0.0195365
-0.00741165 	-0.000529632 	-1.23837e-06 	-0.0195365
-0.00736628 	-0.000620153 	-3.95331e-07 	-0.029694
-0.00736628 	-0.000620153 	-3.95331e-07 	-0.029694
-0.0073201 	-0.000726825 	1.77182e-06 	-0.0398713
-0.0073201 	-0.000726825 	1.77182e-06 	-0.0398713
-0.00727309 	-0.000852448 	4.38439e-06 	-0.0499909
-0.00727309 	-0.000852448 	4.38439e-06 	-0.0499909
-0.00722524 	-0.000975176 	7.63508e-06 	-0.0599939
-0.00722524 	-0.000975176 	7.63508e-06 	-0.0599939
-0.00717653 	-0.00108445 	1.14759e-05 	-0.0698099
-0.00717653 	-0.00108445 	1.14759e-05 	-0.0698099
-0.00712695 	-0.00117455 	1.591e-05 	-0.0793606
-0.00712695 	-0.00117455 	1.591e-05 	-0.0793606
-0.00707647 	-0.00124249 	2.09876e-05 	-0.0885703
-0.00707647 	-0.00124249 	2.09876e-05 	-0.0885703
-0.0070251 	-0.00128745 	2.67349e-05 	-0.0973764
-0.0070251 	-0.00128745 	2.67349e-05 	-0.0973764
-0.0069728 	-0.00131072 	3.31741e-05 	-0.105739
-0.0069728 	-0.00131072 	3.31741e-05 	-0.105739
-0.00691956 	-0.00131501 	4.0383e-05 	-0.113648
-0.00691956 	-0.00131501 	4.0383e-05 	-0.113648
-0.00686537 	-0.00130319 	4.83284e-05 	-0.121128
-0.00686537 	-0.00130319 	4.83284e-05 	-0.121128
-0.00681021 	-0.00127759 	5.69723e-05 	-0.128216
-0.00681021 	-0.00127759 	5.69723e-05 	-0.128216
-0.00675406 	-0.00124016 	6.63401e-05 	-0.13494
-0.00675406 	-0.00124016 	6.63401e-05 	-0.13494
-0.0066969 	-0.00119277 	7.64141e-05 	-0.141325
-0.0066969 	-0.00119277 	7.64141e-05 	-0.141325
-0.00663871 	-0.00113742 	8.71873e-05 	-0.147394
-0.00663871 	-0.00113742 	8.71873e-05 	-0.147394
-0.00657949 	-0.00107595 	9.8639e-05 	-0.15317
-0.00657949 	-0.00107595 	9.8639e-05 	-0.15317
-0.0065192 	-0.00100983 	0.000110723 	-0.15867
-0.0065192 	-0.00100983 	0.000110723 	-0.15867
-0.00645783 	-0.000940212 	0.000123397 	-0.163912
-0.00645783 	-0.000940212 	0.000123397 	-0.163912
-0.00639535 	-0.000867986 	0.000136623 	-0.168913
-0.00639535 	-0.000867986 	0.000136623 	-0.168913
-0.00633176 	-0.000793851 	0.000150358 	-0.173688
-0.00633176 	-0.000793851 	0.000150358 	-0.173688
-0.00626703 	-0.000718382 	0.000164563 	-0.17825
-0.00626703 	-0.000718382 	0.000164563 	-0.17825
-0.00620114 	-0.000642087 	0.000179207 	-0.182613
-0.00620114 	-0.000642087 	0.000179207 	-0.182613
-0.00613406 	-0.00056538 	0.000194264 	-0.186786
-0.00613406 	-0.00056538 	0.000194264 	-0.186786
-0.00606579 	-0.000488523 	0.000209688 	-0.190783
-0.00606579 	-0.000488523 	0.000209688 	-0.190783
-0.00599629 	-0.000411626 	0.000225408 	-0.194614
-0.00599629 	-0.000411626 	0.000225408 	-0.194614
-0.00592554 	-0.000334703 	0.00024135 	-0.19829
-0.00592554 	-0.000334703 	0.00024135 	-0.19829
-0.00585352 	-0.000257749 	0.000257527 	-0.201819
-0.00585352 	-0.000257749 	0.000257527 	-0.201819
-0.00578022 	-0.000180861 	0.000274102 	-0.205207
-0.00578022 	-0.000180861 	0.000274102 	-0.205207
-0.00570559 	-0.000104339 	0.000291112 	-0.208458
-0.00570559 	-0.000104339 	0.000291112 	-0.208458
-0.00562963 	-2.84874e-05 	0.000308278 	-0.211574
-0.00562963 	-2.84874e-05 	0.000308278 	-0.211574
-0.00555231 	4.66504e-05 	0.000325388 	-0.214562
-0.00555231 	4.66504e-05 	0.000325388 	-0.214562
-0.0054736 	0.000121267 	0.000342527 	-0.217433
-0.0054736 	0.000121267 	0.000342527 	-0.217433
-0.00539348 	0.000195541 	0.000359813 	-0.220197
-0.00539348 	0.000195541 	0.000359813 	-0.220197
-0.00531193 	0.000268998 	0.000377096 	-0.22286
-0.00531193 	0.000268998 	0.000377096 	-0.22286
-0.00522891 	0.000340181 	0.000394275 	-0.225421
-0.00522891 	0.000340181 	0.000394275 	-0.225421
-0.0051444 	0.000407745 	0.00041168 	-0.227885
-0.0051444 	0.000407745 	0.00041168 	-0.227885
-0.00505838 	0.000471944 	0.000429556 	-0.230259
-0.00505838 	0.000471944 	0.000429556 	-0.230259
-0.00497081 	0.000534477 	0.000447706 	-0.232555
-0.00497081 	0.000534477 	0.000447706 	-0.232555
-0.00488168 	0.000597157 	0.00046581 	-0.23478
-0.00488168 	0.000597157 	0.00046581 	-0.23478
-0.00479094 	0.000661047 	0.000483833 	-0.236935
-0.00479094 	0.000661047 	0.000483833 	-0.236935
-0.00469858 	0.000726418 	0.000501985 	-0.239021
-0.00469858 	0.000726418 	0.000501985 	-0.239021
-0.00460456 	0.000793166 	0.000520356 	-0.241034
-0.00460456 	0.000793166 	0.000520356 	-0.241034
-0.00450886 	0.000861107 	0.000538914 	-0.242975
-0.00450886 	0.000861107 	0.000538914 	-0.242975
-0.00441144 	0.00093019 	0.000557645 	-0.244851
-0.00441144 	0.00093019 	0.000557645 	-0.244851
-0.00431227 	0.00100068 	0.000576405 	-0.246672
-0.00431227 	0.00100068 	0.000576405 	-0.246672
-0.00421133 	0.00107277 	0.000594831 	-0.248454
-0.00421133 	0.00107277 	0.000594831 	-0.248454
-0.00410857 	0.00114567 	0.000612639 	-0.250206
-0.00410857 	0.00114567 	0.000612639 	-0.250206
-0.00400397 	0.00121763 	0.000629877 	-0.25193
-0.00400397 	0.00121763 	0.000629877 	-0.25193
-0.0038975 	0.00128689 	0.000646952 	-0.25362
-0.0038975 	0.00128689 	0.000646952 	-0.25362
-0.00378912 	0.00135212 	0.000664336 	-0.255266
-0.00378912 	0.00135212 	0.000664336 	-0.255266
-0.00367879 	0.0014125 	0.000682099 	-0.256869
-0.00367879 	0.0014125 	0.000682099 	-0.256869
-0.00356649 	0.0014678 	0.000700027 	-0.258441
-0.00356649 	0.0014678 	0.000700027 	-0.258441
-0.00345217 	0.00151814 	0.000717999 	-0.259997
-0.00345217 	0.00151814 	0.000717999 	-0.259997
-0.0033358 	0.00156371 	0.000735992 	-0.26155
-0.0033358 	0.00156371 	0.000735992 	-0.26155
-0.00321735 	0.00160479 	0.000754069 	-0.263104
-0.00321735 	0.00160479 	0.000754069 	-0.263104
-0.00309677 	0.00164186 	0.000772384 	-0.26465
-0.00309677 	0.00164186 	0.000772384 	-0.26465
-0.00297403 	0.00167544 	0.000791102 	-0.266168
-0.00297403 	0.00167544 	0.000791102 	-0.266168
-0.00284909 	0.00170555 	0.000810438 	-0.267631
-0.00284909 	0.00170555 	0.000810438 	-0.267631
-0.0027219 	0.00173113 	0.000830549 	-0.269017
-0.0027219 	0.00173113 	0.000830549 	-0.269017
-0.00259244 	0.00175021 	0.000851167 	-0.270327
-0.00259244 	0.00175021 	0.000851167 	-0.270327
-0.00246065 	0.00176096 	0.000871764 	-0.271574
-0.00246065 	0.00176096 	0.000871764 	-0.271574
-0.00232651 	0.00176257 	0.000892173 	-0.272767
-0.00232651 	0.00176257 	0.000892173 	-0.272767
-0.00218995 	0.00175557 	0.000912526 	-0.273908
-0.00218995 	0.00175557 	0.000912526 	-0.273908
-0.00205095 	0.00174247 	0.000932629 	-0.275013
-0.00205095 	0.00174247 	0.000932629 	-0.275013
-0.00190946 	0.00172784 	0.000952115 	-0.276102
-0.00190946 	0.00172784 	0.000952115 	-0.276102
-0.00176543 	0.00171593 	0.000970896 	-0.277192
-0.00176543 	0.00171593 	0.000970896 	-0.277192
-0.00161881 	0.00170568 	0.000989158 	-0.278261
-0.00161881 	0.00170568 	0.000989158 	-0.278261
-0.00146957 	0.00168695 	0.0010072 	-0.279241
-0.00146957 	0.00168695 	0.0010072 	-0.279241
-0.00131765 	0.00164676 	0.0010249 	-0.280063
-0.00131765 	0.00164676 	0.0010249 	-0.280063
-0.001163 	0.00158189 	0.00104139 	-0.280727
-0.001163 	0.00158189 	0.00104139 	-0.280727
-0.00100559 	0.00149963 	0.0010559 	-0.281288
-0.00100559 	0.00149963 	0.0010559 	-0.281288
-0.000845345 	0.00140715 	0.00107032 	-0.281784
-0.000845345 	0.00140715 	0.00107032 	-0.281784
-0.000682232 	0.00130651 	0.00108437 	-0.282212
-0.000682232 	0.00130651 	0.00108437 	-0.282212
-0.000516194 	0.001198 	0.00109659 	-0.28256
-0.000516194 	0.001198 	0.00109659 	-0.28256
-0.000347178 	0.00108263 	0.0011088 	-0.282822
-0.000347178 	0.00108263 	0.0011088 	-0.282822
-0.000175132 	0.000961062 	0.00111611 	-0.282993
-0.000175132 	0.000961062 	0.00111611 	-0.282993
0 	0.000834581 	0.00112072 	-0.283071
0 	0.000834581 	0.00112072 	-0.283071
0 	0.000834581 	0.00112072 	-0.283071
0 	0.000834581 	0.00112072 	-0.283071
0.000175132 	0.000704096 	0.00112746 	-0.283052
0.000175132 	0.00805161 	0.000183145 	-0.272329
0.000347178 	0.000568513 	0.00113172 	-0.282941
0.000347178 	0.00686168 	0.000252208 	-0.271458
0.000516194 	0.000429622 	0.00113532 	-0.282757
0.000516194 	0.00570806 	0.000314975 	-0.270994
0.000682232 	0.000292566 	0.00113671 	-0.282522
0.000682232 	0.00455484 	0.000345711 	-0.270481
0.000845345 	0.000160643 	0.00113362 	-0.282246
0.000845345 	0.00337212 	0.000352336 	-0.26955
0.00100559 	3.48919e-05 	0.00112899 	-0.281923
0.00100559 	0.00218416 	0.000355776 	-0.268349
0.001163 	-8.45929e-05 	0.0011232 	-0.281549
0.001163 	0.00102128 	0.000375976 	-0.267119
0.00131765 	-0.000198151 	0.00111626 	-0.281121
0.00131765 	-0.000109302 	0.000407348 	-0.265948
0.00146957 	-0.000306231 	0.00110825 	-0.280642
0.00146957 	-0.00121221 	0.000433591 	-0.264827
0.00161881 	-0.000408143 	0.00109953 	-0.280106
0.00161881 	-0.00229084 	0.00045509 	-0.26376
0.00176543 	-0.000501255 	0.0010902 	-0.279499
0.00176543 	-0.00334477 	0.000484744 	-0.262795
0.00190946 	-0.000583481 	0.00107967 	-0.278809
0.00190946 	-0.00437683 	0.000518864 	-0.261948
0.00205095 	-0.000655032 	0.00106762 	-0.278042
0.00205095 	-0.00540001 	0.000537465 	-0.26109
0.00218995 	-0.000717133 	0.00105463 	-0.277215
0.00218995 	-0.00642028 	0.000540485 	-0.260117
0.00232651 	-0.000771447 	0.00104166 	-0.276336
0.00232651 	-0.00742529 	0.000547 	-0.25908
0.00246065 	-0.000822826 	0.00102936 	-0.275402
0.00246065 	-0.00840657 	0.000561762 	-0.258048
0.00259244 	-0.000877344 	0.00101776 	-0.274406
0.00259244 	-0.00936629 	0.000575433 	-0.257031
0.0027219 	-0.000936824 	0.0010062 	-0.273343
0.0027219 	-0.0103035 	0.000582511 	-0.256034
0.00284909 	-0.000999999 	0.000994117 	-0.272212
0.00284909 	-0.0112116 	0.000588531 	-0.255098
0.00297403 	-0.00106564 	0.000982076 	-0.271016
0.00297403 	-0.0120858 	0.000603151 	-0.254278
0.00309677 	-0.00113329 	0.000969234 	-0.269754
0.00309677 	-0.0129312 	0.000615285 	-0.253563
0.00321735 	-0.00120166 	0.000953289 	-0.268422
0.00321735 	-0.0137555 	0.000597922 	-0.252767
0.0033358 	-0.00126753 	0.000936871 	-0.266986
0.0033358 	-0.0145542 	0.000565486 	-0.251551
0.00345217 	-0.00133525 	0.000925239 	-0.26537
0.00345217 	-0.015373 	0.00056694 	-0.249448
0.00356649 	-0.00141737 	0.000917009 	-0.263494
0.00356649 	-0.0163063 	0.000612966 	-0.246084
0.00367879 	-0.00151225 	0.000903235 	-0.261439
0.00367879 	-0.0173277 	0.000643199 	-0.242085
0.00378912 	-0.0182969 	0.00061334 	-0.238804
0.00378912 	-0.00160575 	0.000881196 	-0.259442
0.0038975 	-0.00168963 	0.000857843 	-0.257622
0.0038975 	-0.0191275 	0.000558723 	-0.236724
0.00400397 	-0.00176193 	0.000837149 	-0.255899
0.00400397 	-0.0198261 	0.000524091 	-0.235336
0.00410857 	-0.00182384 	0.000818618 	-0.254156
0.00410857 	-0.0204373 	0.000516895 	-0.23406
0.00421133 	-0.00187801 	0.000801103 	-0.252344
0.00421133 	-0.0209963 	0.000520907 	-0.232657
0.00431227 	-0.00192634 	0.000783157 	-0.250463
0.00431227 	-0.0215196 	0.000517628 	-0.231142
0.00441144 	-0.00196875 	0.000763747 	-0.248513
0.00441144 	-0.0220144 	0.000502546 	-0.229555
0.00450886 	-0.00200384 	0.000743108 	-0.246479
0.00450886 	-0.0224804 	0.000484039 	-0.227883
0.00460456 	-0.00203133 	0.000722065 	-0.244342
0.00460456 	-0.0229143 	0.000468329 	-0.226075
0.00469858 	-0.00205354 	0.000701532 	-0.242104
0.00469858 	-0.0233173 	0.000456414 	-0.224067
0.00479094 	-0.00207324 	0.000681532 	-0.239775
0.00479094 	-0.0236924 	0.000446142 	-0.221839
0.00488168 	-0.0020913 	0.000660924 	-0.237374
0.00488168 	-0.0240403 	0.000432647 	-0.219453
0.00497081 	-0.00210695 	0.000639106 	-0.234913
0.00497081 	-0.02436 	0.000414339 	-0.216997
0.00505838 	-0.00211906 	0.000616461 	-0.232394
0.00505838 	-0.0246494 	0.000393972 	-0.214524
0.0051444 	-0.00212682 	0.000593444 	-0.229812
0.0051444 	-0.0249057 	0.000373819 	-0.212038
0.00522891 	-0.00212996 	0.000570242 	-0.227159
0.00522891 	-0.0251265 	0.000354249 	-0.20952
0.00531193 	-0.0253106 	0.000334852 	-0.206946
0.00531193 	-0.00212853 	0.00054686 	-0.224428
0.00539348 	-0.00212269 	0.000523234 	-0.221612
0.00539348 	-0.0254572 	0.000315037 	-0.204301
0.0054736 	-0.00211258 	0.000499341 	-0.218706
0.0054736 	-0.0255656 	0.000294521 	-0.201578
0.00555231 	-0.0020983 	0.000475217 	-0.215701
0.00555231 	-0.025635 	0.000273382 	-0.198775
0.00562963 	-0.00207998 	0.000450946 	-0.21259
0.00562963 	-0.0256643 	0.000251821 	-0.195891
0.00570559 	-0.00205774 	0.000426615 	-0.209365
0.00570559 	-0.0256522 	0.000230008 	-0.192922
0.00578022 	-0.00203169 	0.000402304 	-0.206013
0.00578022 	-0.0255974 	0.00020805 	-0.189861
0.00585352 	-0.00200195 	0.000378082 	-0.202524
0.00585352 	-0.0254978 	0.000186055 	-0.186697
0.00592554 	-0.00196858 	0.000354013 	-0.198883
0.00592554 	-0.0253513 	0.000164159 	-0.183419
0.00599629 	-0.0019316 	0.000330169 	-0.195076
0.00599629 	-0.0251554 	0.000142505 	-0.180011
0.00606579 	-0.0249069 	0.000121284 	-0.176457
0.00606579 	-0.001891 	0.00030663 	-0.191085
0.00613406 	-0.00184666 	0.000283478 	-0.186891
0.00613406 	-0.0246024 	0.000100695 	-0.172738
0.00620114 	-0.00179852 	0.000260788 	-0.182472
0.00620114 	-0.024238 	8.08835e-05 	-0.168829
0.00626703 	-0.00174654 	0.00023864 	-0.177805
0.00626703 	-0.0238094 	6.19393e-05 	-0.164705
0.00633176 	-0.00169075 	0.00021712 	-0.172866
0.00633176 	-0.0233127 	4.39939e-05 	-0.160342
0.00639535 	-0.00163115 	0.000196315 	-0.16763
0.00639535 	-0.0227436 	2.72537e-05 	-0.155715
0.00645783 	-0.0015677 	0.000176292 	-0.162071
0.00645783 	-0.0220978 	1.18248e-05 	-0.150797
0.0065192 	-0.0015003 	0.000157115 	-0.156161
0.0065192 	-0.0213705 	-2.24336e-06 	-0.145557
0.00657949 	-0.00142884 	0.000138871 	-0.149872
0.00657949 	-0.0205574 	-1.47397e-05 	-0.139962
0.00663871 	-0.00135306 	0.000121646 	-0.143177
0.00663871 	-0.0196542 	-2.54403e-05 	-0.133972
0.0066969 	-0.00127253 	0.000105521 	-0.136048
0.0066969 	-0.0186573 	-3.42731e-05 	-0.127546
0.00675406 	-0.0011871 	9.04809e-05 	-0.128458
0.00675406 	-0.017565 	-4.13808e-05 	-0.120659
0.00681021 	-0.00109719 	7.65238e-05 	-0.120381
0.00681021 	-0.01638 	-4.68997e-05 	-0.113307
0.00686537 	-0.00100389 	6.37188e-05 	-0.111815
0.00686537 	-0.0151104 	-5.08379e-05 	-0.105517
0.00691956 	-0.000909064 	5.20764e-05 	-0.102788
0.00691956 	-0.0137727 	-5.33214e-05 	-0.0973555
0.0069728 	-0.000814878 	4.16334e-05 	-0.0933819
0.0069728 	-0.0123915 	-5.44823e-05 	-0.0889271
0.0070251 	-0.0007235 	3.24225e-05 	-0.0837269
0.0070251 	-0.0109979 	-5.44247e-05 	-0.0803692
0.00707647 	-0.000636806 	2.44714e-05 	-0.0739914
0.00707647 	-0.00962441 	-5.31864e-05 	-0.0718239
0.00712695 	-0.000555718 	1.78204e-05 	-0.0643548
0.00712695 	-0.00829874 	-5.0706e-05 	-0.0634048
0.00717653 	-0.000479781 	1.24668e-05 	-0.0549726
0.00717653 	-0.00703802 	-4.69141e-05 	-0.0551712
0.00722524 	-0.000407191 	8.37508e-06 	-0.0459492
0.00722524 	-0.00584655 	-4.15826e-05 	-0.0471239
0.00727309 	-0.000334911 	5.45129e-06 	-0.0373312
0.00727309 	-0.00471621 	-3.4839e-05 	-0.0392144
0.0073201 	-0.000258203 	3.42328e-06 	-0.0291166
0.0073201 	-0.00362631 	-2.76147e-05 	-0.0313503
0.00736628 	-0.000169053 	2.45707e-06 	-0.0212789
0.00736628 	-0.00253896 	-1.68781e-05 	-0.0233896
0.00741165 	-7.47643e-05 	1.37499e-06 	-0.0138002
0.00741165 	-0.00148103 	-1.0251e-05 	-0.015288
0.00745622 	-1.11281e-05 	5.54281e-07 	-0.00669923
0.00745622 	-0.000603522 	-4.64497e-06 	-0.00733786
0.0075 	0 	0 	0
0.0075 	0 	0 	0
