-0.0075 	0 	0 	0
-0.0075 	-3.83577e-36 	-2.56969e-36 	1.85879e-31
-0.00745622 	-3.15084e-07 	-2.11084e-07 	0.0152688
-0.00745622 	-3.15084e-07 	-2.11084e-07 	0.0152688
-0.00741165 	-9.97848e-07 	-7.08645e-07 	0.0297165
-0.00741165 	-9.97848e-07 	-7.08645e-07 	0.0297165
-0.00736628 	-1.75332e-06 	-1.56719e-06 	0.0434434
-0.00736628 	-1.75332e-06 	-1.56719e-06 	0.0434434
-0.0073201 	-2.42603e-06 	-2.79486e-06 	0.0564797
-0.0073201 	-2.42603e-06 	-2.79486e-06 	0.0564797
-0.00727309 	-3.0291e-06 	-4.42103e-06 	0.0688516
-0.00727309 	-3.0291e-06 	-4.42103e-06 	0.0688516
-0.00722524 	-3.59233e-06 	-6.45186e-06 	0.0805825
-0.00722524 	-3.59233e-06 	-6.45186e-06 	0.0805825
-0.00717653 	-4.12337e-06 	-8.90129e-06 	0.0916851
-0.00717653 	-4.12337e-06 	-8.90129e-06 	0.0916851
-0.00712695 	-4.62394e-06 	-1.1788e-05 	0.102151
-0.00712695 	-4.62394e-06 	-1.1788e-05 	0.102151
-0.00707647 	-5.09307e-06 	-1.51454e-05 	0.111954
-0.00707647 	-5.09307e-06 	-1.51454e-05 	0.111954
-0.0070251 	-5.5279e-06 	-1.90285e-05 	0.121069
-0.0070251 	-5.5279e-06 	-1.90285e-05 	0.121069
-0.0069728 	-5.92476e-06 	-2.35093e-05 	0.12949
-0.0069728 	-5.92476e-06 	-2.35093e-05 	0.12949
-0.00691956 	-6.28031e-06 	-2.86622e-05 	0.137235
-0.00691956 	-6.28031e-06 	-2.86622e-05 	0.137235
-0.00686537 	-6.59228e-06 	-3.45525e-05 	0.144342
-0.00686537 	-6.59228e-06 	-3.45525e-05 	0.144342
-0.00681021 	-6.86014e-06 	-4.12433e-05 	0.150865
-0.00681021 	-6.86014e-06 	-4.12433e-05 	0.150865
-0.00675406 	-7.08479e-06 	-4.88028e-05 	0.156864
-0.00675406 	-7.08479e-06 	-4.88028e-05 	0.156864
-0.0066969 	-7.26778e-06 	-5.72936e-05 	0.162394
-0.0066969 	-7.26778e-06 	-5.72936e-05 	0.162394
-0.00663871 	-7.41105e-06 	-6.67597e-05 	0.167501
-0.00663871 	-7.41105e-06 	-6.67597e-05 	0.167501
-0.00657949 	-7.51675e-06 	-7.72082e-05 	0.172227
-0.00657949 	-7.51675e-06 	-7.72082e-05 	0.172227
-0.0065192 	-7.58721e-06 	-8.8606e-05 	0.176615
-0.0065192 	-7.58721e-06 	-8.8606e-05 	0.176615
-0.00645783 	-7.62503e-06 	-0.000100905 	0.180705
-0.00645783 	-7.62503e-06 	-0.000100905 	0.180705
-0.00639535 	-7.63284e-06 	-0.000114053 	0.184537
-0.00639535 	-7.63284e-06 	-0.000114053 	0.184537
-0.00633176 	-7.61318e-06 	-0.000127997 	0.188143
-0.00633176 	-7.61318e-06 	-0.000127997 	0.188143
-0.00626703 	-7.56842e-06 	-0.000142684 	0.191548
-0.00626703 	-7.56842e-06 	-0.000142684 	0.191548
-0.00620114 	-7.50068e-06 	-0.000158058 	0.194778
-0.00620114 	-7.50068e-06 	-0.000158058 	0.194778
-0.00613406 	-7.41182e-06 	-0.000174059 	0.197852
-0.00613406 	-7.41182e-06 	-0.000174059 	0.197852
-0.00606579 	-7.30336e-06 	-0.000190628 	0.200787
-0.00606579 	-7.30336e-06 	-0.000190628 	0.200787
-0.00599629 	-7.17642e-06 	-0.000207699 	0.203602
-0.00599629 	-7.17642e-06 	-0.000207699 	0.203602
-0.00592554 	-7.03186e-06 	-0.000225205 	0.20631
-0.00592554 	-7.03186e-06 	-0.000225205 	0.20631
-0.00585352 	-6.87058e-06 	-0.000243072 	0.208927
-0.00585352 	-6.87058e-06 	-0.000243072 	0.208927
-0.00578022 	-6.69362e-06 	-0.000261212 	0.211466
-0.00578022 	-6.69362e-06 	-0.000261212 	0.211466
-0.00570559 	-6.50199e-06 	-0.000279528 	0.213936
-0.00570559 	-6.50199e-06 	-0.000279528 	0.213936
-0.00562963 	-6.29644e-06 	-0.00029792 	0.216345
-0.00562963 	-6.29644e-06 	-0.00029792 	0.216345
-0.00555231 	-6.07753e-06 	-0.000316287 	0.218701
-0.00555231 	-6.07753e-06 	-0.000316287 	0.218701
-0.0054736 	-5.84572e-06 	-0.000334528 	0.221008
-0.0054736 	-5.84572e-06 	-0.000334528 	0.221008
-0.00539348 	-5.60138e-06 	-0.00035254 	0.223273
-0.00539348 	-5.60138e-06 	-0.00035254 	0.223273
-0.00531193 	-5.34486e-06 	-0.000370218 	0.225497
-0.00531193 	-5.34486e-06 	-0.000370218 	0.225497
-0.00522891 	-5.07644e-06 	-0.000387459 	0.227685
-0.00522891 	-5.07644e-06 	-0.000387459 	0.227685
-0.0051444 	-4.79637e-06 	-0.000404164 	0.229838
-0.0051444 	-4.79637e-06 	-0.000404164 	0.229838
-0.00505838 	-4.50487e-06 	-0.000420234 	0.231958
-0.00505838 	-4.50487e-06 	-0.000420234 	0.231958
-0.00497081 	-4.20214e-06 	-0.000435579 	0.234045
-0.00497081 	-4.20214e-06 	-0.000435579 	0.234045
-0.00488168 	-3.88832e-06 	-0.000450111 	0.236099
-0.00488168 	-3.88832e-06 	-0.000450111 	0.236099
-0.00479094 	-3.56349e-06 	-0.000463749 	0.23812
-0.00479094 	-3.56349e-06 	-0.000463749 	0.23812
-0.00469858 	-3.22762e-06 	-0.000476414 	0.240106
-0.00469858 	-3.22762e-06 	-0.000476414 	0.240106
-0.00460456 	-2.88049e-06 	-0.000488036 	0.242055
-0.00460456 	-2.88049e-06 	-0.000488036 	0.242055
-0.00450886 	-2.52177e-06 	-0.00049856 	0.243967
-0.00450886 	-2.52177e-06 	-0.00049856 	0.243967
-0.00441144 	-2.15104e-06 	-0.000507963 	0.245839
-0.00441144 	-2.15104e-06 	-0.000507963 	0.245839
-0.00431227 	-1.76796e-06 	-0.000516253 	0.24767
-0.00431227 	-1.76796e-06 	-0.000516253 	0.24767
-0.00421133 	-1.37229e-06 	-0.000523469 	0.249457
-0.00421133 	-1.37229e-06 	-0.000523469 	0.249457
-0.00410857 	-9.63561e-07 	-0.000529674 	0.251199
-0.00410857 	-9.63561e-07 	-0.000529674 	0.251199
-0.00400397 	-5.40503e-07 	-0.00053495 	0.252892
-0.00400397 	-5.40503e-07 	-0.00053495 	0.252892
-0.0038975 	-1.01097e-07 	-0.00053939 	0.254537
-0.0038975 	-1.01097e-07 	-0.00053939 	0.254537
-0.00378912 	3.56056e-07 	-0.000543082 	0.256135
-0.00378912 	3.56056e-07 	-0.000543082 	0.256135
-0.00367879 	8.30708e-07 	-0.0005461 	0.257689
-0.00367879 	8.30708e-07 	-0.0005461 	0.257689
-0.00356649 	1.32149e-06 	-0.000548506 	0.259199
-0.00356649 	1.32149e-06 	-0.000548506 	0.259199
-0.00345217 	1.82704e-06 	-0.000550356 	0.260663
-0.00345217 	1.82704e-06 	-0.000550356 	0.260663
-0.0033358 	2.34639e-06 	-0.000551711 	0.262078
-0.0033358 	2.34639e-06 	-0.000551711 	0.262078
-0.00321735 	2.87853e-06 	-0.000552639 	0.263442
-0.00321735 	2.87853e-06 	-0.000552639 	0.263442
-0.00309677 	3.42219e-06 	-0.000553211 	0.264753
-0.00309677 	3.42219e-06 	-0.000553211 	0.264753
-0.00297403 	3.97582e-06 	-0.000553502 	0.266007
-0.00297403 	3.97582e-06 	-0.000553502 	0.266007
-0.00284909 	4.53756e-06 	-0.000553594 	0.267203
-0.00284909 	4.53756e-06 	-0.000553594 	0.267203
-0.0027219 	5.10524e-06 	-0.000553565 	0.268337
-0.0027219 	5.10524e-06 	-0.000553565 	0.268337
-0.00259244 	5.6765e-06 	-0.000553495 	0.269407
-0.00259244 	5.6765e-06 	-0.000553495 	0.269407
-0.00246065 	6.24883e-06 	-0.000553456 	0.270411
-0.00246065 	6.24883e-06 	-0.000553456 	0.270411
-0.00232651 	6.81946e-06 	-0.000553514 	0.271346
-0.00232651 	6.81946e-06 	-0.000553514 	0.271346
-0.00218995 	7.38536e-06 	-0.00055372 	0.27221
-0.00218995 	7.38536e-06 	-0.00055372 	0.27221
-0.00205095 	7.94332e-06 	-0.000554118 	0.273001
-0.00205095 	7.94332e-06 	-0.000554118 	0.273001
-0.00190946 	8.48999e-06 	-0.000554731 	0.273718
-0.00190946 	8.48999e-06 	-0.000554731 	0.273718
-0.00176543 	9.02162e-06 	-0.000555569 	0.274359
-0.00176543 	9.02162e-06 	-0.000555569 	0.274359
-0.00161881 	9.53372e-06 	-0.000556623 	0.274924
-0.00161881 	9.53372e-06 	-0.000556623 	0.274924
-0.00146957 	1.00208e-05 	-0.000557865 	0.275414
-0.00146957 	1.00208e-05 	-0.000557865 	0.275414
-0.00131765 	1.04768e-05 	-0.000559248 	0.275828
-0.00131765 	1.04768e-05 	-0.000559248 	0.275828
-0.001163 	1.08953e-05 	-0.000560716 	0.276166
-0.001163 	1.08953e-05 	-0.000560716 	0.276166
-0.00100559 	1.12695e-05 	-0.000562209 	0.276428
-0.00100559 	1.12695e-05 	-0.000562209 	0.276428
-0.000845345 	1.15915e-05 	-0.000563627 	0.276614
-0.000845345 	1.15915e-05 	-0.000563627 	0.276614
-0.000682232 	1.18525e-05 	-0.000564936 	0.276722
-0.000682232 	1.18525e-05 	-0.000564936 	0.276722
-0.000516194 	1.20423e-05 	-0.000566121 	0.276752
-0.000516194 	1.20423e-05 	-0.000566121 	0.276752
-0.000347178 	1.21507e-05 	-0.000567061 	0.2767
-0.000347178 	1.21507e-05 	-0.000567061 	0.2767
-0.000175132 	1.21643e-05 	-0.00056781 	0.276565
-0.000175132 	1.21643e-05 	-0.00056781 	0.276565
0 	1.20695e-05 	-0.000568241 	0.276344
0 	1.20695e-05 	-0.000568241 	0.276344
0 	1.20695e-05 	-0.000568241 	0.276344
0 	1.20695e-05 	-0.000568241 	0.276344
0.000175132 	1.18653e-05 	-0.000568192 	0.27604
0.000175132 	1.55664e-05 	-0.000464101 	0.272468
0.000347178 	1.15619e-05 	-0.000567764 	0.275658
0.000347178 	1.69592e-05 	-0.000466302 	0.272159
0.000516194 	1.11767e-05 	-0.000566855 	0.275205
0.000516194 	1.81738e-05 	-0.000467924 	0.271771
0.000682232 	1.0727e-05 	-0.000565489 	0.274683
0.000682232 	1.92269e-05 	-0.000468981 	0.271309
0.000845345 	1.02251e-05 	-0.000563777 	0.274096
0.000845345 	2.01333e-05 	-0.000469772 	0.270776
0.00100559 	9.68252e-06 	-0.000561688 	0.273448
0.00100559 	2.09084e-05 	-0.000470155 	0.270176
0.001163 	9.10994e-06 	-0.000559238 	0.27274
0.001163 	2.15666e-05 	-0.000470127 	0.269514
0.00131765 	8.51671e-06 	-0.000556447 	0.271976
0.00131765 	2.21213e-05 	-0.000469693 	0.268791
0.00146957 	7.91099e-06 	-0.000553327 	0.271156
0.00146957 	2.2584e-05 	-0.000468861 	0.26801
0.00161881 	7.29982e-06 	-0.000549895 	0.270284
0.00161881 	2.29653e-05 	-0.000467641 	0.267174
0.00176543 	6.68915e-06 	-0.000546163 	0.269361
0.00176543 	2.32741e-05 	-0.00046604 	0.266285
0.00190946 	6.08395e-06 	-0.00054214 	0.268388
0.00190946 	2.35186e-05 	-0.00046407 	0.265343
0.00205095 	5.4883e-06 	-0.000537837 	0.267366
0.00205095 	2.37057e-05 	-0.000461735 	0.264352
0.00218995 	4.90558e-06 	-0.000533259 	0.266297
0.00218995 	2.38415e-05 	-0.000459044 	0.263311
0.00232651 	4.33853e-06 	-0.000528411 	0.265182
0.00232651 	2.39314e-05 	-0.000455998 	0.262222
0.00246065 	3.78938e-06 	-0.000523296 	0.264021
0.00246065 	2.39801e-05 	-0.0004526 	0.261086
0.00259244 	3.25983e-06 	-0.000517916 	0.262815
0.00259244 	2.39913e-05 	-0.000448853 	0.259904
0.0027219 	2.75123e-06 	-0.000512268 	0.261564
0.0027219 	2.39684e-05 	-0.000444753 	0.258677
0.00284909 	2.26457e-06 	-0.000506352 	0.260269
0.00284909 	2.3914e-05 	-0.000440297 	0.257404
0.00297403 	1.80056e-06 	-0.000500163 	0.258929
0.00297403 	2.38303e-05 	-0.00043548 	0.256086
0.00309677 	1.35971e-06 	-0.000493696 	0.257545
0.00309677 	2.37192e-05 	-0.000430293 	0.254724
0.00321735 	9.42298e-07 	-0.000486944 	0.256117
0.00321735 	2.35825e-05 	-0.000424728 	0.253317
0.0033358 	5.48438e-07 	-0.000479904 	0.254644
0.0033358 	2.34216e-05 	-0.000418778 	0.251864
0.00345217 	2.32377e-05 	-0.00041244 	0.250365
0.00345217 	1.78094e-07 	-0.000472569 	0.253125
0.00356649 	-1.68865e-07 	-0.000464934 	0.25156
0.00356649 	2.30326e-05 	-0.000405709 	0.248819
0.00367879 	-4.92556e-07 	-0.000456985 	0.249947
0.00367879 	2.28089e-05 	-0.000398574 	0.247227
0.00378912 	-7.92989e-07 	-0.000448703 	0.248286
0.00378912 	2.257e-05 	-0.000391014 	0.245588
0.0038975 	-1.07021e-06 	-0.000440062 	0.246575
0.0038975 	2.23176e-05 	-0.000383001 	0.243902
0.00400397 	-1.32432e-06 	-0.000431016 	0.24481
0.00400397 	2.20534e-05 	-0.000374473 	0.24216
0.00410857 	2.17795e-05 	-0.000365331 	0.24035
0.00410857 	-1.55525e-06 	-0.0004215 	0.242985
0.00421133 	-1.76301e-06 	-0.00041144 	0.241094
0.00421133 	2.14971e-05 	-0.000355485 	0.238462
0.00431227 	-1.9483e-06 	-0.000400756 	0.23913
0.00431227 	2.1205e-05 	-0.000344872 	0.236489
0.00441144 	-2.1124e-06 	-0.000389388 	0.237087
0.00441144 	2.0901e-05 	-0.000333461 	0.234428
0.00450886 	-2.25674e-06 	-0.000377312 	0.234958
0.00450886 	2.0583e-05 	-0.000321266 	0.232275
0.00460456 	-2.38245e-06 	-0.000364531 	0.232739
0.00460456 	2.02488e-05 	-0.000308328 	0.230027
0.00469858 	-2.49036e-06 	-0.000351063 	0.230424
0.00469858 	1.98967e-05 	-0.000294701 	0.227678
0.00479094 	-2.58118e-06 	-0.000336935 	0.228009
0.00479094 	1.95247e-05 	-0.000280442 	0.225226
0.00488168 	-2.65565e-06 	-0.000322179 	0.225489
0.00488168 	1.91309e-05 	-0.000265609 	0.222666
0.00497081 	-2.71457e-06 	-0.000306835 	0.222861
0.00497081 	1.87132e-05 	-0.000250271 	0.219993
0.00505838 	-2.75881e-06 	-0.000290958 	0.220119
0.00505838 	1.82695e-05 	-0.000234507 	0.217205
0.0051444 	-2.78926e-06 	-0.000274617 	0.217261
0.0051444 	1.77978e-05 	-0.000218409 	0.214297
0.00522891 	-2.80681e-06 	-0.000257898 	0.214282
0.00522891 	1.72959e-05 	-0.000202085 	0.211267
0.00531193 	-2.81236e-06 	-0.000240902 	0.21118
0.00531193 	1.67622e-05 	-0.000185658 	0.208113
0.00539348 	-2.80676e-06 	-0.000223745 	0.207951
0.00539348 	1.6195e-05 	-0.000169266 	0.204833
0.0054736 	-2.79084e-06 	-0.000206554 	0.204593
0.0054736 	1.55929e-05 	-0.000153054 	0.201425
0.00555231 	-2.76539e-06 	-0.000189462 	0.201101
0.00555231 	1.49549e-05 	-0.000137168 	0.197887
0.00562963 	-2.73116e-06 	-0.000172605 	0.197471
0.00562963 	1.42801e-05 	-0.000121751 	0.194216
0.00570559 	-2.68886e-06 	-0.000156114 	0.193701
0.00570559 	1.35678e-05 	-0.000106938 	0.19041
0.00578022 	-2.63914e-06 	-0.000140114 	0.189784
0.00578022 	1.28175e-05 	-9.28468e-05 	0.186465
0.00585352 	-2.58266e-06 	-0.00012472 	0.185715
0.00585352 	1.20291e-05 	-7.95804e-05 	0.182376
0.00592554 	-2.52001e-06 	-0.000110034 	0.181487
0.00592554 	1.12025e-05 	-6.72211e-05 	0.178138
0.00599629 	-2.45171e-06 	-9.61434e-05 	0.177093
0.00599629 	1.03383e-05 	-5.58303e-05 	0.173743
0.00606579 	-2.37816e-06 	-8.312e-05 	0.172524
0.00606579 	9.43746e-06 	-4.54498e-05 	0.169184
0.00613406 	-2.29965e-06 	-7.10246e-05 	0.167768
0.00613406 	8.50103e-06 	-3.61018e-05 	0.164448
0.00620114 	7.53047e-06 	-2.77915e-05 	0.159518
0.00620114 	-2.21651e-06 	-5.99035e-05 	0.162809
0.00626703 	-2.12929e-06 	-4.97926e-05 	0.15763
0.00626703 	6.52799e-06 	-2.05148e-05 	0.154378
0.00633176 	5.4972e-06 	-1.42567e-05 	0.149013
0.00633176 	-2.03875e-06 	-4.07194e-05 	0.152214
0.00639535 	4.44328e-06 	-8.98484e-06 	0.143408
0.00639535 	-1.94564e-06 	-3.26929e-05 	0.146547
0.00645783 	-1.85057e-06 	-2.57017e-05 	0.140613
0.00645783 	3.37302e-06 	-4.65038e-06 	0.137546
0.0065192 	-1.75413e-06 	-1.97187e-05 	0.134395
0.0065192 	2.2951e-06 	-1.19205e-06 	0.131411
0.00657949 	-1.65694e-06 	-1.47038e-05 	0.127876
0.00657949 	1.22049e-06 	1.46038e-06 	0.124984
0.00663871 	-1.55929e-06 	-1.06037e-05 	0.121039
0.00663871 	1.62925e-07 	3.38396e-06 	0.118251
0.0066969 	-1.46109e-06 	-7.3385e-06 	0.113867
0.0066969 	-8.62005e-07 	4.6666e-06 	0.111188
0.00675406 	-1.83796e-06 	5.40039e-06 	0.10376
0.00675406 	-1.36241e-06 	-4.81393e-06 	0.106327
0.00681021 	-2.74529e-06 	5.67635e-06 	0.0959448
0.00681021 	-1.2643e-06 	-2.92956e-06 	0.0983874
0.00686537 	-3.55793e-06 	5.58549e-06 	0.0877596
0.00686537 	-1.16937e-06 	-1.5891e-06 	0.0900597
0.00691956 	-4.24517e-06 	5.21777e-06 	0.0792731
0.00691956 	-1.08048e-06 	-7.06876e-07 	0.0814097
0.0069728 	-4.77586e-06 	4.66231e-06 	0.070603
0.0069728 	-9.99397e-07 	-1.88244e-07 	0.072555
0.0070251 	-9.26519e-07 	6.44788e-08 	0.0636624
0.0070251 	-5.1237e-06 	4.00243e-06 	0.0619128
0.00707647 	-8.60648e-07 	1.44273e-07 	0.054929
0.00707647 	-5.27297e-06 	3.31048e-06 	0.0533922
0.00712695 	-7.9896e-07 	1.30834e-07 	0.0465478
0.00712695 	-5.22192e-06 	2.64311e-06 	0.0452246
0.00717653 	-7.37442e-07 	8.30493e-08 	0.0386705
0.00717653 	-4.98201e-06 	2.0383e-06 	0.0375534
0.00722524 	-6.71344e-07 	3.70222e-08 	0.0313869
0.00722524 	-4.57311e-06 	1.51644e-06 	0.030463
0.00727309 	-4.01738e-06 	1.08359e-06 	0.0239829
0.00727309 	-5.94566e-07 	8.88025e-09 	0.0247281
0.0073201 	-3.33353e-06 	7.34149e-07 	0.0181056
0.0073201 	-4.96209e-07 	-4.60797e-10 	0.0186858
0.00736628 	-2.53079e-06 	4.63125e-07 	0.0128042
0.00736628 	-3.51725e-07 	7.89059e-09 	0.0132317
0.00741165 	-1.59644e-07 	1.12396e-08 	0.00832903
0.00741165 	-1.64775e-06 	2.49226e-07 	0.00804317
0.00745622 	-5.75665e-09 	1.10079e-08 	0.00393723
0.00745622 	-7.82628e-07 	9.78535e-08 	0.0037826
0.0075 	0 	0 	0
0.0075 	0 	0 	0
