/*--------------------------------*- C++ -*----------------------------------*\
| =========                 |                                                 |
| \\      /  F ield         | OpenFOAM: The Open Source CFD Toolbox           |
|  \\    /   O peration     | Version:  v1906                                 |
|   \\  /    A nd           | Web:      www.OpenFOAM.com                      |
|    \\/     M anipulation  |                                                 |
\*---------------------------------------------------------------------------*/
FoamFile
{
    version     2.0;
    format      ascii;
    class       volScalarField;
    location    "98";
    object      k;
}
// * * * * * * * * * * * * * * * * * * * * * * * * * * * * * * * * * * * * * //

dimensions      [0 2 -2 0 0 0 0];


internalField   nonuniform List<scalar> 
630
(
0.000298348
0.000416966
0.000176327
0.000489874
0.000309873
0.000435108
0.000178326
0.000481344
0.000321764
0.000453231
0.000182132
0.000466007
0.000334094
0.000453377
0.000187804
0.000453356
0.000346981
0.000430713
0.000195341
0.000443938
0.000360558
0.000409679
0.000204933
0.000437323
0.000374996
0.00039114
0.000216914
0.000432852
0.000390508
0.000373079
0.000231659
0.000430036
0.00040734
0.000356108
0.000249589
0.000428556
0.00042577
0.000340334
0.000271097
0.000428209
0.000446084
0.000325628
0.000296435
0.0004289
0.000468538
0.000311989
0.00032539
0.000430641
0.000493271
0.00029957
0.00036159
0.000433532
0.000520192
0.000288416
0.000408758
0.000437717
0.000548982
0.000278521
0.000444911
0.000443341
0.000581595
0.000269894
0.000448718
0.000450606
0.000623758
0.00026253
0.000438397
0.000459959
0.000671222
0.000256445
0.000429249
0.000472762
0.000690545
0.000251689
0.000424045
0.000487305
0.000681518
0.000248332
0.000422776
0.0004903
0.000665375
0.000246453
0.000424749
0.000482579
0.000650635
0.000246172
0.000429255
0.000472812
0.000638844
0.000247647
0.000435638
0.00046499
0.000629788
0.000251077
0.000443308
0.000459632
0.000623129
0.000256605
0.000451776
0.000456129
0.000618674
0.000264138
0.000460687
0.000453876
0.000616266
0.000273631
0.000469835
0.000452457
0.000615758
0.000285179
0.000479146
0.000451548
0.000617018
0.000300928
0.000488588
0.000450902
0.000619923
0.000324276
0.000498111
0.000450341
0.000624368
0.000347974
0.000507626
0.000449747
0.000630256
0.000359191
0.000517026
0.000449044
0.00063748
0.000362135
0.000526194
0.000448191
0.000645876
0.000364936
0.000535015
0.000447161
0.000655221
0.000369288
0.00054338
0.000445928
0.00066544
0.000375276
0.000551197
0.000444466
0.000677087
0.00038264
0.000558406
0.000442753
0.000690465
0.00039139
0.000564974
0.000440777
0.000701803
0.000401434
0.000570887
0.000438491
0.000704622
0.000411226
0.000576134
0.000435755
0.000699567
0.000419384
0.000580706
0.000432407
0.000690845
0.000426459
0.000584585
0.000428386
0.000681811
0.000433581
0.000587737
0.000423708
0.000673287
0.000440912
0.000590128
0.000418483
0.000665105
0.000448327
0.000591716
0.000412734
0.000656946
0.000455665
0.000592461
0.000406417
0.000648596
0.000462827
0.000592323
0.000399478
0.000639892
0.0004697
0.000591261
0.000391866
0.000630683
0.00047607
0.000589239
0.000383531
0.000620819
0.000481635
0.000586214
0.000374418
0.000610151
0.000486094
0.000582147
0.000364467
0.000598529
0.000489212
0.00057699
0.000353612
0.000585772
0.000490822
0.000570686
0.000341774
0.000571693
0.000490765
0.00056316
0.000328864
0.000556065
0.000488838
0.000554327
0.000314789
0.000538622
0.00048478
0.000544049
0.000299448
0.000519064
0.000478281
0.00053215
0.000282746
0.00049707
0.000468996
0.000518377
0.000264607
0.000472307
0.000456567
0.000502386
0.000244993
0.000444467
0.000440629
0.000483745
0.000223945
0.000413298
0.000420829
0.000461952
0.000201549
0.000378675
0.000396857
0.000436464
0.00017804
0.000340686
0.000368488
0.000406755
0.000153835
0.000299679
0.000335645
0.000372418
0.000129519
0.00025626
0.000298477
0.000333319
0.000105824
0.000211728
0.000257379
0.000289796
8.3574e-05
0.000167924
0.000213295
0.000242537
6.3562e-05
0.000127002
0.000168307
0.000193506
4.64078e-05
9.10491e-05
0.00012527
0.000145643
3.24358e-05
6.15628e-05
8.72103e-05
0.000102342
2.16348e-05
3.9075e-05
5.64353e-05
6.65389e-05
1.37089e-05
2.31324e-05
3.37974e-05
3.97199e-05
8.18969e-06
1.26247e-05
1.86295e-05
2.15716e-05
4.55349e-06
6.21665e-06
9.33839e-06
1.04823e-05
2.30604e-06
2.65955e-06
4.143e-06
4.40824e-06
1.02587e-06
9.26621e-07
1.53683e-06
1.50556e-06
3.77304e-07
2.41076e-07
4.31104e-07
3.7718e-07
1.08052e-07
8.08004e-08
1.23995e-07
1.0433e-07
4.95552e-08
3.62633e-07
4.18394e-07
4.23278e-07
2.40588e-07
0.000168548
0.00016919
4.99384e-05
8.40318e-05
0.000168303
0.000172838
4.97645e-05
7.93236e-05
0.000169248
0.000177021
4.99012e-05
8.0961e-05
0.000171277
0.000181694
5.0286e-05
8.87626e-05
0.000174293
0.000186885
5.08601e-05
0.000102148
0.000178212
0.000192656
5.15683e-05
0.000116966
0.000182978
0.000199065
5.23606e-05
0.000129219
0.000188574
0.000206144
5.31921e-05
0.000139638
0.000194983
0.000213896
5.40168e-05
0.000150944
0.00020223
0.000222302
5.47725e-05
0.000163694
0.000210473
0.000231324
5.53616e-05
0.000177581
0.000219967
0.000240907
5.56281e-05
0.000191968
0.000231047
0.000250986
5.53463e-05
0.000206461
0.000244164
0.000261491
5.42239e-05
0.000221043
0.00025985
0.000272342
5.22041e-05
0.000235665
0.000278319
0.000283451
5.03016e-05
0.000250285
0.000299213
0.000294733
5.04471e-05
0.000264866
0.000321888
0.000306373
5.41468e-05
0.000279387
0.000346731
0.000318685
6.12601e-05
0.000293837
0.000375985
0.000331208
7.0711e-05
0.000308217
0.000409613
0.000342706
8.14658e-05
0.000322537
0.000441198
0.000352267
9.27474e-05
0.000336818
0.000465062
0.000359988
0.000104076
0.000351086
0.000480954
0.000366562
0.000115213
0.000365379
0.000492814
0.000372697
0.000126077
0.000379743
0.000504066
0.00037887
0.000136679
0.000394236
0.000515828
0.000385318
0.000147067
0.000408923
0.000528282
0.000392098
0.000157279
0.000423867
0.000541416
0.000399176
0.000167349
0.000439127
0.000555167
0.00040648
0.000177308
0.000454793
0.000569457
0.000413929
0.000187186
0.000471131
0.000584452
0.000421437
0.000197016
0.000488446
0.000600559
0.000428921
0.00020684
0.000506514
0.000617435
0.000436307
0.000216703
0.000524656
0.000633481
0.000443531
0.000226664
0.000542355
0.000646668
0.000450514
0.000236801
0.000559244
0.000655969
0.000457171
0.000247215
0.000575069
0.00066184
0.000463408
0.000258024
0.000589673
0.000665514
0.000469107
0.000269286
0.000602839
0.000668125
0.000474138
0.00028093
0.000614381
0.000670363
0.000478375
0.000292803
0.000624248
0.000672479
0.000481736
0.000304851
0.000632498
0.00067443
0.000484176
0.000317014
0.000639215
0.000676013
0.000485667
0.000328537
0.000644439
0.000676892
0.000486171
0.00033848
0.000648156
0.000676676
0.000485634
0.000346433
0.000650302
0.000675013
0.000483984
0.000352628
0.000650777
0.000671663
0.000481134
0.000357534
0.000649469
0.000666517
0.000476981
0.000361468
0.000646264
0.00065956
0.000471413
0.000364469
0.000641063
0.000650794
0.000464311
0.000366348
0.000633771
0.000640184
0.00045555
0.000366794
0.000624281
0.000627633
0.000444991
0.000365449
0.000612464
0.000612983
0.000432511
0.000361986
0.000598165
0.000596022
0.000417994
0.000356134
0.000581184
0.000576519
0.000401336
0.000347675
0.000561317
0.00055425
0.000382451
0.000336431
0.000538362
0.000529008
0.000361273
0.000322256
0.000512128
0.00050062
0.00033778
0.000305051
0.000482453
0.000468957
0.000312003
0.000284778
0.000449225
0.000433957
0.000284053
0.000261494
0.000412417
0.000395648
0.000254085
0.000235381
0.000372124
0.0003542
0.000222307
0.000206765
0.000328549
0.000309897
0.000189355
0.000176131
0.000282092
0.000263476
0.000156245
0.000144595
0.000233937
0.000216347
0.00012428
0.000113685
0.00018601
0.000170481
9.48724e-05
8.51002e-05
0.000140778
0.000128145
6.92667e-05
6.03597e-05
0.000100786
9.14311e-05
4.82481e-05
4.04204e-05
6.79519e-05
6.17005e-05
3.19924e-05
2.54725e-05
4.30092e-05
3.92549e-05
2.01248e-05
1.50277e-05
2.54471e-05
2.34242e-05
1.19292e-05
8.21299e-06
1.39452e-05
1.29718e-05
6.58e-06
4.07518e-06
6.94336e-06
6.53164e-06
3.30381e-06
1.76972e-06
3.02903e-06
2.88164e-06
1.45364e-06
6.28969e-07
1.08226e-06
1.0412e-06
5.23261e-07
1.61996e-07
2.79215e-07
2.72562e-07
1.34962e-07
3.34864e-08
5.2779e-08
5.617e-08
2.17812e-08
8.96622e-08
1.1691e-07
1.44969e-07
2.88968e-08
)
;

boundaryField
{
    leftWall
    {
        type            kqRWallFunction;
        value           nonuniform 0();
    }
    rightWall
    {
        type            kqRWallFunction;
        value           nonuniform List<scalar> 8(3.62633e-07 8.96622e-08 4.18394e-07 1.1691e-07 4.23278e-07 1.44969e-07 2.40588e-07 2.88968e-08);
    }
    leftSides_periodic0
    {
        type            cyclic;
    }
    leftSides_periodic1
    {
        type            cyclic;
    }
    rightSides_periodic0
    {
        type            cyclic;
    }
    rightSides_periodic1
    {
        type            cyclic;
    }
    leftInOut_periodic0
    {
        type            cyclic;
    }
    leftInOut_periodic1
    {
        type            cyclic;
    }
    rightInOut_periodic0
    {
        type            cyclic;
    }
    rightInOut_periodic1
    {
        type            cyclic;
    }
    procBoundary3to1
    {
        type            processor;
        value           nonuniform List<scalar> 
316
(
0.000148855
0.000196344
0.000268323
0.00011114
0.000152183
0.000200529
0.000271658
0.000124793
0.000156386
0.000204675
0.000276593
0.000138892
0.0001614
0.000208296
0.000283064
0.00015309
0.000167167
0.000211438
0.000290967
0.000167126
0.00017363
0.000214663
0.000300078
0.000180782
0.000180709
0.000218401
0.000310222
0.000193891
0.000188345
0.000222892
0.000321321
0.000206342
0.000196528
0.000228244
0.000333233
0.000218073
0.000205256
0.000234468
0.000345788
0.000229065
0.000214541
0.000241513
0.000358769
0.000239334
0.000224413
0.000249294
0.000371962
0.000248926
0.000234918
0.000257709
0.00038491
0.00025791
0.000246112
0.000266643
0.000396928
0.000266375
0.000258055
0.000275984
0.000407412
0.000274422
0.000270733
0.000285623
0.000416125
0.000282159
0.000283655
0.00029547
0.000423353
0.000289685
0.000295837
0.000305448
0.000429541
0.000297098
0.000306452
0.000315494
0.000435072
0.000304496
0.000315303
0.000325559
0.000440244
0.000311985
0.000322667
0.000335608
0.000445282
0.000319675
0.000328911
0.000345618
0.000450365
0.000327551
0.00033433
0.00035558
0.000455639
0.000335504
0.000339149
0.000365495
0.000461172
0.000343404
0.00034353
0.000375382
0.0004669
0.000351126
0.000347581
0.00038527
0.000472672
0.000358564
0.000351376
0.000395157
0.000478347
0.000365633
0.000354961
0.000405128
0.000483815
0.000372274
0.00035836
0.000415204
0.000488998
0.000378441
0.000361579
0.0004248
0.000493851
0.000384105
0.00036461
0.000433051
0.000498355
0.000389253
0.000367429
0.000439631
0.000502519
0.000393877
0.000370004
0.000444923
0.000506372
0.000397985
0.000372288
0.000449459
0.00050996
0.000401586
0.000374216
0.000453559
0.000513352
0.000404688
0.000375708
0.000457356
0.000516628
0.000407305
0.000376653
0.000460882
0.000519857
0.000409458
0.00037692
0.000464182
0.000523052
0.000411176
0.000376398
0.000467315
0.000526158
0.000412496
0.000375058
0.000470326
0.000529103
0.000413458
0.000372975
0.000473222
0.000531821
0.000414086
0.000370248
0.000475962
0.000534257
0.000414367
0.000366956
0.000478474
0.000536371
0.000414263
0.000363164
0.000480679
0.00053813
0.000413722
0.000358928
0.000482507
0.00053951
0.000412691
0.00035429
0.000483891
0.000540493
0.000411118
0.000349278
0.000484768
0.000541068
0.000408952
0.000343911
0.000485056
0.000541214
0.000406141
0.000338195
0.000484655
0.000540888
0.000402623
0.000332123
0.000483434
0.00054001
0.000398326
0.000325646
0.000481226
0.000538443
0.00039315
0.000318629
0.000477842
0.000535932
0.000386936
0.000310831
0.000473069
0.000532142
0.000379524
0.000301996
0.000466678
0.000526702
0.000370746
0.000291897
0.00045843
0.000519249
0.000360428
0.000280359
0.000448079
0.000509454
0.000348399
0.000267262
0.000435374
0.000497009
0.000334495
0.000252528
0.000420063
0.000481609
0.000318571
0.000236123
0.000401901
0.000462954
0.000300514
0.000218067
0.000380674
0.000440768
0.000280259
0.000198447
0.000356226
0.000414823
0.000257815
0.000177434
0.000328493
0.000384989
0.000233286
0.000155254
0.000297551
0.000351281
0.000206889
0.000132272
0.000263659
0.000313918
0.000178902
0.000109199
0.000227193
0.000273329
0.000150057
8.69412e-05
0.000189062
0.00023014
0.000121424
6.64617e-05
0.00015087
0.000185965
9.4284e-05
4.85986e-05
0.000114654
0.000143113
6.99189e-05
3.38896e-05
8.24691e-05
0.000104163
4.93323e-05
2.24744e-05
5.58705e-05
7.13143e-05
3.30168e-05
1.41198e-05
3.54986e-05
4.57579e-05
2.08893e-05
8.34733e-06
2.10323e-05
2.74212e-05
1.24198e-05
4.58714e-06
1.14955e-05
1.52486e-05
6.86074e-06
2.29412e-06
5.67865e-06
7.75654e-06
3.44948e-06
1.00709e-06
2.44406e-06
3.504e-06
1.52288e-06
3.65082e-07
8.60246e-07
1.32599e-06
5.55215e-07
1.02593e-07
2.28156e-07
3.80805e-07
1.562e-07
4.55388e-08
8.15254e-08
1.14618e-07
6.67188e-08
2.20753e-07
3.70055e-07
3.95239e-07
3.17402e-07
)
;
    }
    procBoundary3to1throughrightSides_periodic1
    {
        type            processorCyclic;
        value           nonuniform List<scalar> 
314
(
0.00035283
0.000364502
0.000377195
0.000391042
0.000406164
0.00042268
0.000440689
0.000460268
0.000481494
0.000504488
0.000529477
0.000556443
0.000585997
0.000614781
0.000628025
0.000621185
0.00061306
0.000606284
0.000600357
0.000595335
0.000591325
0.00058836
0.000586359
0.000585197
0.000584738
0.000584845
0.000585397
0.00058628
0.000587396
0.000588658
0.000589989
0.000591324
0.000592608
0.000593794
0.000594844
0.000595726
0.000596419
0.000596916
0.000597222
0.000597355
0.000597344
0.000597226
0.00059705
0.000596892
0.000596852
0.000596965
0.00059696
0.000595969
0.000593151
0.000588043
0.000580877
0.000572089
0.00056179
0.000549657
0.000535188
0.000517935
0.000497591
0.00047395
0.000446855
0.000416205
0.000382002
0.000344415
0.000303823
0.000260686
0.000215997
0.000171616
0.000129895
9.31441e-05
6.30213e-05
4.00996e-05
2.38773e-05
1.31721e-05
6.59975e-06
2.89551e-06
1.04021e-06
2.71171e-07
5.75529e-08
1.58165e-07
0.000329876
0.000331902
0.000332724
0.000332445
0.000331026
0.000328522
0.00032508
0.000320872
0.000316059
0.000310793
0.00030522
0.000299473
0.000293669
0.00028791
0.000282296
0.000276916
0.000271855
0.000267188
0.000263001
0.000259375
0.000256389
0.000254121
0.000252648
0.000252033
0.000252329
0.000253582
0.000255841
0.000259154
0.000263571
0.000269159
0.000275975
0.00028405
0.000293466
0.000304427
0.000317213
0.000331787
0.000347606
0.000363261
0.000376611
0.000384928
0.000391059
0.000397757
0.00040594
0.000415555
0.000426351
0.000437957
0.000449608
0.000460492
0.000469598
0.000476648
0.000481857
0.000485387
0.000487095
0.000486525
0.000483177
0.000476576
0.000466348
0.000452187
0.000433839
0.00041111
0.000383896
0.00035224
0.000316393
0.000276866
0.000234328
0.000190077
0.000146511
0.00010649
7.25567e-05
4.61531e-05
2.72935e-05
1.48802e-05
7.3451e-06
3.16864e-06
1.11771e-06
2.85312e-07
5.77632e-08
1.52052e-07
0.000194874
0.000198342
0.00020186
0.000205416
0.000209003
0.000212606
0.000216209
0.000219802
0.000223376
0.00022693
0.000230471
0.000234021
0.000237618
0.000241336
0.000245287
0.000249634
0.000254586
0.000260364
0.000267185
0.000275277
0.000284752
0.000294929
0.000301825
0.000301189
0.000295873
0.000292033
0.00029037
0.000291028
0.000294051
0.000299427
0.000307104
0.000317023
0.000329194
0.000343391
0.000358675
0.000373363
0.000385128
0.000391494
0.000396348
0.000402195
0.000409794
0.000418821
0.000429101
0.000440571
0.000453114
0.000466208
0.000478676
0.000489312
0.000496864
0.000501838
0.000505482
0.000508573
0.000511041
0.000512284
0.0005115
0.000507838
0.000500671
0.000489563
0.000474224
0.00045442
0.000429958
0.000400738
0.000366824
0.000328509
0.00028637
0.000241082
0.000194231
0.000148473
0.000106893
7.21115e-05
4.54508e-05
2.66796e-05
1.44701e-05
7.12041e-06
3.06716e-06
1.08119e-06
2.74554e-07
4.94881e-08
1.01952e-07
0.000422428
0.00038881
0.000365227
0.000346152
0.000329944
0.000316523
0.000305912
0.000298007
0.00029255
0.000289336
0.000288223
0.000289123
0.000292004
0.000296871
0.00030377
0.000312752
0.000323855
0.000336553
0.000348336
0.000349641
0.000334294
0.000315832
0.000301676
0.000290424
0.000281295
0.000274268
0.000269163
0.000265777
0.000263891
0.000263295
0.000263803
0.000265263
0.00026756
0.000270626
0.000274446
0.000279098
0.000284719
0.000291128
0.000297235
0.000301157
0.000301871
0.000300335
0.000298401
0.000296956
0.000296073
0.000295497
0.000294983
0.000294202
0.000292565
0.000289592
0.000284962
0.000278602
0.000270541
0.000260815
0.000249444
0.000236453
0.000221891
0.000205849
0.000188464
0.000169936
0.000150526
0.000130528
0.000110304
9.05215e-05
7.19341e-05
5.52283e-05
4.0902e-05
2.91851e-05
2.00328e-05
1.3188e-05
8.27869e-06
4.90563e-06
2.69917e-06
1.34352e-06
5.80309e-07
2.03077e-07
5.20583e-08
1.50112e-08
6.34606e-08
)
;
    }
    procBoundary3to2
    {
        type            processor;
        value           nonuniform List<scalar> 
11
(
0.000287335
0.000402546
0.000176019
0.000475877
0.000170082
0.000165911
5.04862e-05
9.42408e-05
5.04862e-05
9.42408e-05
9.42408e-05
)
;
    }
    procBoundary3to2throughrightInOut_periodic0
    {
        type            processorCyclic;
        value           uniform 5.04862e-05;
    }
}


// ************************************************************************* //
