/*--------------------------------*- C++ -*----------------------------------*\
| =========                 |                                                 |
| \\      /  F ield         | OpenFOAM: The Open Source CFD Toolbox           |
|  \\    /   O peration     | Version:  v1906                                 |
|   \\  /    A nd           | Web:      www.OpenFOAM.com                      |
|    \\/     M anipulation  |                                                 |
\*---------------------------------------------------------------------------*/
FoamFile
{
    version     2.0;
    format      ascii;
    class       surfaceScalarField;
    location    "98";
    object      phi;
}
// * * * * * * * * * * * * * * * * * * * * * * * * * * * * * * * * * * * * * //

dimensions      [1 0 -1 0 0 0 0];
oriented        oriented;


internalField   nonuniform List<scalar> 
1408
(
1.14386e-05
-0.000957084
9.9132e-07
0.00274479
-9.71572e-06
-0.00087596
-0.000616244
0.00064553
-0.000523409
1.10821e-05
-0.000966983
-0.000552841
3.15953e-06
0.0027729
-0.000555585
-7.5481e-06
-0.000863089
-0.000605227
0.000639713
-0.000506508
1.18885e-05
-0.000976717
-0.000541959
6.23552e-06
0.00279765
-0.000550255
-6.57318e-06
-0.000848491
-0.000594093
0.000632506
-0.000493086
1.44328e-05
-0.000988805
-0.000531148
1.0647e-05
0.00281884
-0.000547294
-6.49091e-06
-0.000829894
-0.000582951
0.000624113
-0.000481531
1.53398e-05
-0.00100193
-0.000520438
1.32984e-05
0.00283477
-0.000538549
-6.94149e-06
-0.000808477
-0.000571837
0.000614513
-0.000470746
1.47176e-05
-0.00101457
-0.000509851
1.44448e-05
0.00284447
-0.00052564
-7.27346e-06
-0.000785814
-0.000560778
0.000604031
-0.000460112
1.36876e-05
-0.00102625
-0.000499406
1.53343e-05
0.00284768
-0.00051193
-7.43343e-06
-0.000762279
-0.000549799
0.00059292
-0.000449563
1.27141e-05
-0.00103695
-0.000489115
1.63584e-05
0.00284583
-0.000499867
-7.50297e-06
-0.000737763
-0.000538911
0.000581337
-0.000439146
1.17685e-05
-0.00104665
-0.000478981
1.73834e-05
0.0028405
-0.000489352
-7.48005e-06
-0.00071229
-0.000528113
0.000569417
-0.000428881
1.07827e-05
-0.00105525
-0.000468995
1.83659e-05
0.00283247
-0.000479512
-7.34107e-06
-0.000685939
-0.00051737
0.000557293
-0.000418784
9.77915e-06
-0.00106273
-0.000459138
1.93063e-05
0.00282203
-0.000469909
-7.11186e-06
-0.000658752
-0.000506764
0.000545065
-0.000408863
8.76212e-06
-0.00106909
-0.000449375
2.04038e-05
0.00280911
-0.000460435
-6.99898e-06
-0.000630242
-0.000496492
0.000532623
-0.000399126
7.7199e-06
-0.00107436
-0.000439655
2.23144e-05
0.00279297
-0.000451098
-6.72467e-06
-0.000599414
-0.000486046
0.000520143
-0.000389572
6.64154e-06
-0.0010786
-0.000429977
2.55471e-05
0.00277229
-0.000441906
-4.82537e-06
-0.000566544
-0.000473419
0.00050925
-0.000380193
5.56801e-06
-0.0010817
-0.000420525
2.88955e-05
0.00274702
-0.000432861
-1.94021e-07
-0.000534953
-0.000457211
0.000502538
-0.000371003
4.22989e-06
-0.00108291
-0.000411422
3.05986e-05
0.00271858
-0.00042396
3.3108e-06
-0.000505307
-0.000442895
0.000498594
-0.000362169
2.00637e-06
-0.00108091
-0.000401945
3.16969e-05
0.00268671
-0.000415199
4.58626e-06
-0.000475853
-0.00043117
0.000495225
-0.000353824
-1.33745e-06
-0.00107611
-0.000389934
3.23783e-05
0.00265073
-0.000406574
4.23385e-06
-0.000445394
-0.000420897
0.00049237
-0.000345306
-4.08171e-06
-0.00107174
-0.000375985
3.26453e-05
0.00261166
-0.000398081
3.72336e-06
-0.000414306
-0.000411198
0.000491907
-0.000334769
-5.24148e-06
-0.00106907
-0.000364633
3.27179e-05
0.0025713
-0.000389719
4.67369e-06
-0.000384651
-0.000401329
0.000494659
-0.000322426
-6.09651e-06
-0.00106694
-0.000355143
3.2712e-05
0.00253003
-0.000381484
5.57484e-06
-0.000357305
-0.000390758
0.000498889
-0.000311787
-6.71789e-06
-0.00106432
-0.000346516
3.26858e-05
0.00248812
-0.000373374
5.69728e-06
-0.000332191
-0.000379645
0.000502411
-0.000302632
-7.12437e-06
-0.00106105
-0.000338189
3.26843e-05
0.00244575
-0.000365383
5.5784e-06
-0.00030899
-0.000368719
0.000504661
-0.000294399
-7.48056e-06
-0.00105718
-0.000330007
3.27277e-05
0.00240294
-0.000357502
5.57111e-06
-0.000287107
-0.000358581
0.000505957
-0.000286626
-7.80237e-06
-0.00105271
-0.000322008
3.28108e-05
0.00235967
-0.000349713
5.63888e-06
-0.000265963
-0.000349171
0.000506528
-0.000279093
-8.08038e-06
-0.00104762
-0.000314201
3.29269e-05
0.00231598
-0.000341985
5.7752e-06
-0.0002453
-0.000340189
0.000506516
-0.000271742
-8.39978e-06
-0.0010418
-0.000306573
3.29716e-05
0.0022719
-0.000334381
5.96907e-06
-0.000225149
-0.000331458
0.000505997
-0.000264521
-9.08866e-06
-0.00103486
-0.000299102
3.31632e-05
0.002227
-0.000327075
6.21548e-06
-0.00020538
-0.000322926
0.000505011
-0.000257405
-1.02273e-05
-0.00102629
-0.000291773
3.41877e-05
0.00218012
-0.000319821
6.52013e-06
-0.000185201
-0.000314572
0.000503599
-0.000250384
-1.06594e-05
-0.00101679
-0.000284574
3.60102e-05
0.0021312
-0.000311529
6.89124e-06
-0.000163871
-0.000306379
0.000501812
-0.000243462
-8.67497e-06
-0.00100875
-0.000277495
3.65383e-05
0.00208393
-0.00030166
7.3328e-06
-0.000142727
-0.000298354
0.000499713
-0.00023664
-6.77435e-06
-0.0010021
-0.000270527
3.59739e-05
0.00203928
-0.000292644
7.83525e-06
-0.000122911
-0.000290478
0.00049736
-0.000229921
-6.18138e-06
-0.00099552
-0.00026366
3.59174e-05
0.00199523
-0.000284726
8.37752e-06
-0.000104044
-0.000282646
0.000494792
-0.000223305
-6.53457e-06
-0.000988068
-0.000256882
3.58501e-05
0.00195063
-0.000277352
8.93938e-06
-8.63647e-05
-0.000274733
0.000492036
-0.000216793
-7.14035e-06
-0.000979463
-0.00025021
3.55607e-05
0.00190532
-0.000270139
9.50013e-06
-7.03361e-05
-0.000266708
0.000489066
-0.000210383
-7.79138e-06
-0.000969433
-0.000243727
3.52436e-05
0.00185924
-0.000262971
1.0038e-05
-5.60985e-05
-0.000258675
0.000485672
-0.000204072
-8.84564e-06
-0.000957176
-0.000237396
3.49851e-05
0.00181191
-0.000255895
1.05451e-05
-4.35143e-05
-0.000250811
0.000481494
-0.000197857
-1.04586e-05
-0.000942134
-0.000230853
3.49089e-05
0.00176257
-0.000248837
1.10175e-05
-3.2169e-05
-0.000243256
0.000476504
-0.000191738
-1.19254e-05
-0.000925582
-0.000223613
3.48156e-05
0.00171135
-0.000241623
1.14448e-05
-2.18002e-05
-0.000236041
0.000471637
-0.000185703
-1.22395e-05
-0.000909945
-0.000216024
3.4419e-05
0.00165968
-0.000234313
1.18586e-05
-1.25154e-05
-0.000229112
0.000467998
-0.000179723
-1.21506e-05
-0.000895404
-0.000209013
3.39043e-05
0.00160811
-0.000227182
1.23129e-05
-4.36765e-06
-0.000222386
0.000465431
-0.000173799
-1.25188e-05
-0.000880693
-0.000202632
3.34383e-05
0.00155616
-0.000220311
1.27726e-05
2.73727e-06
-0.000215805
0.000463203
-0.000167972
-1.30916e-05
-0.000865117
-0.000196551
3.29146e-05
0.0015037
-0.000213624
1.31754e-05
8.81329e-06
-0.000209327
0.000460762
-0.000162263
-1.36036e-05
-0.000848712
-0.000190502
3.23111e-05
0.0014509
-0.000207052
1.3536e-05
1.38108e-05
-0.000202922
0.00045794
-0.000156659
-1.41084e-05
-0.000831595
-0.000184393
3.16779e-05
0.00139784
-0.000200567
1.38688e-05
1.77016e-05
-0.000196571
0.000454699
-0.000151143
-1.46224e-05
-0.000813794
-0.00017829
3.10189e-05
0.00134454
-0.000194163
1.41635e-05
2.04733e-05
-0.000190269
0.000450988
-0.000145707
-1.51503e-05
-0.000795221
-0.000172292
3.03382e-05
0.00129104
-0.000187826
1.44195e-05
2.21323e-05
-0.000184027
0.000446749
-0.000140343
-1.56749e-05
-0.000775753
-0.000166445
2.96345e-05
0.00123739
-0.000181536
1.46344e-05
2.27073e-05
-0.000177858
0.00044192
-0.000135048
-1.61673e-05
-0.000755301
-0.000160731
2.89037e-05
0.00118366
-0.000175277
1.48035e-05
2.22469e-05
-0.000171773
0.000436435
-0.000129816
-1.66091e-05
-0.000733835
-0.000155102
2.81456e-05
0.00112997
-0.000169048
1.49215e-05
2.08192e-05
-0.000165776
0.000430224
-0.00012464
-1.70037e-05
-0.000711361
-0.000149512
2.73681e-05
0.00107643
-0.000162858
1.49852e-05
1.85103e-05
-0.000159861
0.000423222
-0.000119515
-1.73713e-05
-0.000687887
-0.000143928
2.65851e-05
0.0010231
-0.00015671
1.49906e-05
1.54303e-05
-0.000154016
0.000415376
-0.000114433
-1.77311e-05
-0.000663407
-0.000138331
2.57843e-05
0.000970053
-0.000150605
1.4932e-05
1.16891e-05
-0.000148227
0.000406635
-0.000109387
-1.80867e-05
-0.000637913
-0.000132711
2.48833e-05
0.000917432
-0.000144533
1.48033e-05
7.32042e-06
-0.000142479
0.00039696
-0.000104367
-1.84348e-05
-0.000611411
-0.000127067
2.39748e-05
0.000865293
-0.00013848
1.45957e-05
2.4532e-06
-0.000136761
0.00038632
-9.93693e-05
-1.87707e-05
-0.000583922
-0.000121399
2.30641e-05
0.00081369
-0.000132429
1.43011e-05
-2.77797e-06
-0.000131056
0.000374693
-9.43872e-05
-1.90889e-05
-0.000555486
-0.000115704
2.21527e-05
0.000762677
-0.000126368
1.39194e-05
-8.24233e-06
-0.000125348
0.000362072
-8.94153e-05
-1.9387e-05
-0.000526162
-0.000109975
2.12432e-05
0.000712313
-0.000120286
1.34553e-05
-1.38128e-05
-0.000119618
0.000348468
-8.44486e-05
-1.96626e-05
-0.000496018
-0.000104205
2.03413e-05
0.000662649
-0.000114173
1.29152e-05
-1.93623e-05
-0.000113851
0.00033391
-7.94842e-05
-1.99111e-05
-0.000465135
-9.83872e-05
1.94515e-05
0.000613739
-0.000108019
1.23006e-05
-2.47611e-05
-0.00010803
0.000318434
-7.45229e-05
-2.01245e-05
-0.000433599
-9.25151e-05
1.85776e-05
0.000565643
-0.000101814
1.16086e-05
-2.98736e-05
-0.000102136
0.000302068
-6.95638e-05
-2.02899e-05
-0.000401525
-8.65857e-05
1.77222e-05
0.000518426
-9.55475e-05
1.08437e-05
-3.45689e-05
-9.61527e-05
0.000284855
-6.46021e-05
-2.03914e-05
-0.000369053
-8.06024e-05
1.68866e-05
0.000472169
-8.92111e-05
1.00121e-05
-3.87232e-05
-9.00663e-05
0.000266852
-5.9629e-05
-2.04188e-05
-0.000336337
-7.45724e-05
1.60696e-05
0.000426958
-8.27958e-05
9.1138e-06
-4.22223e-05
-8.38611e-05
0.000248126
-5.46435e-05
-2.0362e-05
-0.000303559
-6.84878e-05
1.52663e-05
0.000382884
-7.62891e-05
8.14626e-06
-4.49651e-05
-7.75249e-05
0.000228763
-4.96633e-05
-2.01961e-05
-0.000270985
-6.23416e-05
1.44837e-05
0.000340056
-6.96824e-05
7.10124e-06
-4.68261e-05
-7.10626e-05
0.000208883
-4.47206e-05
-1.98837e-05
-0.000238958
-5.6157e-05
1.37216e-05
0.000298623
-6.29811e-05
5.97759e-06
-4.76694e-05
-6.44849e-05
0.000188645
-3.98605e-05
-1.93749e-05
-0.000207886
-4.99848e-05
1.29453e-05
0.000258812
-5.62187e-05
4.80543e-06
-4.74341e-05
-5.7815e-05
0.000168263
-3.51381e-05
-1.86238e-05
-0.000178216
-4.39008e-05
1.21279e-05
0.00022093
-4.94694e-05
3.6347e-06
-4.61397e-05
-5.11133e-05
0.000148006
-3.06111e-05
-1.76126e-05
-0.000150377
-3.7997e-05
1.12632e-05
0.000185311
-4.28391e-05
2.51229e-06
-4.3867e-05
-4.44728e-05
0.000128169
-2.63296e-05
-1.63591e-05
-0.000124742
-3.23658e-05
1.03532e-05
0.000152281
-3.64504e-05
1.47818e-06
-4.0751e-05
-3.80101e-05
0.00010906
-2.23286e-05
-1.49176e-05
-0.000101549
-2.70823e-05
9.41733e-06
0.000122111
-3.04162e-05
5.5722e-07
-3.69516e-05
-3.18436e-05
9.09324e-05
-1.86246e-05
-1.33667e-05
-8.08662e-05
-2.21939e-05
8.48703e-06
9.49752e-05
-2.48172e-05
-2.47697e-07
-3.26123e-05
-2.60721e-05
7.3964e-05
-1.52187e-05
-1.17861e-05
-6.26035e-05
-1.77234e-05
7.58626e-06
7.09455e-05
-1.96955e-05
-9.51907e-07
-2.78282e-05
-2.07627e-05
5.82461e-05
-1.21047e-05
-1.02391e-05
-4.65237e-05
-1.3684e-05
6.70887e-06
5.00285e-05
-1.50675e-05
-1.57711e-06
-2.26462e-05
-1.59573e-05
4.3782e-05
-9.27761e-06
-8.76783e-06
-3.22425e-05
-1.00995e-05
5.80222e-06
3.22357e-05
-1.09444e-05
-2.1412e-06
-1.70976e-05
-1.16954e-05
3.04788e-05
-6.74393e-06
-7.39867e-06
-1.92135e-05
-7.03125e-06
4.75212e-06
1.76761e-05
-7.35714e-06
-2.65461e-06
-1.12433e-05
-8.04512e-06
1.81502e-05
-4.5355e-06
-6.06604e-06
-7.27387e-06
-4.40981e-06
3.85907e-06
6.2395e-06
-4.27593e-06
-3.18448e-06
-4.81675e-06
-4.92188e-06
6.86487e-06
-2.6556e-06
-3.35886e-06
-1.73893e-06
2.34025e-06
-1.4559e-06
-2.42736e-06
-1.84416e-06
-9.27235e-07
8.23926e-06
0.000899496
-0.000541942
-1.28438e-05
-0.000406449
-7.24056e-06
0.000317682
8.72213e-06
0.000860376
-0.000542695
-1.37976e-05
-0.000393998
-7.41362e-06
0.00029973
9.24178e-06
0.000820777
-0.000539528
-1.49829e-05
-0.000379989
-7.90769e-06
0.00027423
9.74491e-06
0.000780499
-0.000534021
-1.63279e-05
-0.000364283
-8.65455e-06
0.00024626
1.01908e-05
0.00073941
-0.000527006
-1.78321e-05
-0.000346762
-9.63739e-06
0.000219321
1.05532e-05
0.000697396
-0.000518589
-1.91682e-05
-0.000327656
-1.05145e-05
0.000194505
1.08172e-05
0.000654676
-0.000508782
-1.99198e-05
-0.000307618
-1.09258e-05
0.000171627
1.0975e-05
0.00061183
-0.000497687
-2.0203e-05
-0.000287196
-1.10163e-05
0.000150112
1.10238e-05
0.000569309
-0.000485441
-2.02202e-05
-0.000266731
-1.09607e-05
0.000129815
1.09622e-05
0.000527438
-0.000472202
-2.01023e-05
-0.000246414
-1.08754e-05
0.000110825
1.07892e-05
0.000486362
-0.000458142
-1.9913e-05
-0.000226421
-1.08285e-05
9.31902e-05
1.05068e-05
0.000445976
-0.000443441
-1.9666e-05
-0.000207273
-1.08339e-05
7.6917e-05
1.01216e-05
0.000406675
-0.000428272
-1.93626e-05
-0.000190106
-1.08864e-05
6.20009e-05
9.64859e-06
0.000370855
-0.000412787
-1.89963e-05
-0.000176905
-1.09621e-05
4.84246e-05
9.12111e-06
0.000342272
-0.000397135
-1.8538e-05
-0.000168692
-1.10079e-05
3.61574e-05
8.59724e-06
0.000319121
-0.000381572
-1.79506e-05
-0.0001618
-1.09987e-05
2.51927e-05
8.10128e-06
0.000298868
-0.000366726
-1.72539e-05
-0.000151702
-1.09366e-05
1.5513e-05
7.61791e-06
0.000280131
-0.000353136
-1.6549e-05
-0.000136162
-1.08362e-05
7.01906e-06
7.12568e-06
0.000262308
-0.000340041
-1.59566e-05
-0.000118015
-1.07098e-05
-4.9407e-07
6.63906e-06
0.000245262
-0.000327044
-1.54926e-05
-9.92128e-05
-1.05513e-05
-7.24922e-06
6.20424e-06
0.000228978
-0.000314991
-1.51251e-05
-8.06071e-05
-1.03635e-05
-1.34295e-05
5.83274e-06
0.000213159
-0.000302716
-1.48205e-05
-6.24043e-05
-1.01784e-05
-1.91474e-05
5.47616e-06
0.000197051
-0.000289756
-1.45521e-05
-4.46392e-05
-1.00228e-05
-2.44543e-05
5.07674e-06
0.000180273
-0.000276209
-1.42991e-05
-2.73896e-05
-9.90304e-06
-2.93579e-05
4.61601e-06
0.000164278
-0.000262272
-1.40481e-05
-1.06733e-05
-9.81277e-06
-3.38289e-05
4.10527e-06
0.000149858
-0.00024811
-1.3793e-05
5.41422e-06
-9.74006e-06
-3.79072e-05
3.56161e-06
0.000137008
-0.000233731
-1.35307e-05
2.08198e-05
-9.67673e-06
-4.18147e-05
2.99548e-06
0.000125538
-0.000219176
-1.32583e-05
3.55066e-05
-9.61864e-06
-4.55287e-05
2.41335e-06
0.000115352
-0.000204498
-1.29728e-05
4.94466e-05
-9.56243e-06
-4.79372e-05
1.82272e-06
0.000106396
-0.000189754
-1.26679e-05
6.2614e-05
-9.50577e-06
-4.73908e-05
1.24043e-06
9.85692e-05
-0.000174993
-1.23278e-05
7.49762e-05
-9.44047e-06
-4.46978e-05
6.05493e-07
9.18052e-05
-0.000160325
-1.19496e-05
8.65082e-05
-9.35996e-06
-4.09549e-05
-2.24221e-08
8.5991e-05
-0.000145806
-1.15441e-05
9.72078e-05
-9.25791e-06
-3.67194e-05
-6.43571e-07
8.09689e-05
-0.000131492
-1.11179e-05
0.000107064
-9.12874e-06
-3.21412e-05
-1.24873e-06
7.6414e-05
-0.00011743
-1.067e-05
0.000115983
-8.9706e-06
-2.7249e-05
-1.83674e-06
7.18208e-05
-0.000103664
-1.02004e-05
0.000123905
-8.78717e-06
-2.22266e-05
-2.4034e-06
6.69797e-05
-9.02619e-05
-9.71301e-06
0.000131137
-8.58574e-06
-1.73722e-05
-2.94701e-06
6.26226e-05
-7.73904e-05
-9.21366e-06
0.000138472
-8.37207e-06
-1.29859e-05
-3.4673e-06
5.92695e-05
-6.53402e-05
-8.70651e-06
0.000146338
-8.14484e-06
-9.13041e-06
-3.96555e-06
5.69077e-05
-5.44056e-05
-8.19416e-06
0.000154223
-7.89844e-06
-5.35918e-06
-4.44307e-06
5.53555e-05
-4.45643e-05
-7.67401e-06
0.000161537
-7.63165e-06
-1.34635e-06
-4.89896e-06
5.45098e-05
-3.54623e-05
-7.14077e-06
0.000167966
-7.34618e-06
2.93699e-06
-5.33067e-06
5.43141e-05
-2.6826e-05
-6.60444e-06
0.000173445
-7.04378e-06
7.38494e-06
-5.73582e-06
5.47132e-05
-1.86023e-05
-6.08342e-06
0.000178055
-6.72541e-06
1.1894e-05
-6.1123e-06
5.56286e-05
-1.08463e-05
-5.5842e-06
0.000181874
-6.39238e-06
1.63737e-05
-6.45792e-06
5.69236e-05
-3.59977e-06
-5.10178e-06
0.000184911
-6.04709e-06
2.07188e-05
-6.7705e-06
5.83714e-05
3.11318e-06
-4.62814e-06
0.000187088
-5.69281e-06
2.47943e-05
-7.0481e-06
5.9752e-05
9.25231e-06
-4.15972e-06
0.000188272
-5.33265e-06
2.84803e-05
-7.28914e-06
6.10598e-05
1.47465e-05
-3.69821e-06
0.000188344
-4.96929e-06
3.1755e-05
-7.49237e-06
6.24298e-05
1.95229e-05
-3.24732e-06
0.000187289
-4.60508e-06
3.46605e-05
-7.65678e-06
6.39463e-05
2.35513e-05
-2.81054e-06
0.000185182
-4.24206e-06
3.72328e-05
-7.7816e-06
6.5584e-05
2.6838e-05
-2.39073e-06
0.000182127
-3.88223e-06
3.94691e-05
-7.86634e-06
6.72445e-05
2.9405e-05
-1.98956e-06
0.000178199
-3.52777e-06
4.13341e-05
-7.91036e-06
6.87962e-05
3.12783e-05
-1.60738e-06
0.000173438
-3.18124e-06
4.27793e-05
-7.91266e-06
7.01004e-05
3.24866e-05
-1.24216e-06
0.000167864
-2.8462e-06
4.37658e-05
-7.87239e-06
7.10315e-05
3.30626e-05
-8.93333e-07
0.000161502
-2.52953e-06
4.42792e-05
-7.78887e-06
7.14893e-05
3.30456e-05
-5.62568e-07
0.000154397
-2.22633e-06
4.43143e-05
-7.6616e-06
7.14119e-05
3.24811e-05
-2.49641e-07
0.00014661
-1.91512e-06
4.38542e-05
-7.49025e-06
7.07808e-05
3.142e-05
4.62097e-08
0.000138209
-1.61911e-06
4.2914e-05
-7.27471e-06
6.95678e-05
2.99159e-05
3.18504e-07
0.000129275
-1.34048e-06
4.1511e-05
-7.01506e-06
6.77551e-05
2.80269e-05
5.39619e-07
0.00011992
-1.08155e-06
3.96449e-05
-6.71164e-06
6.53359e-05
2.58157e-05
7.33608e-07
0.000110234
-8.1739e-07
3.73216e-05
-6.36469e-06
6.23454e-05
2.33453e-05
9.01289e-07
0.000100307
-5.88205e-07
3.45965e-05
-5.97477e-06
5.87946e-05
2.06853e-05
1.04235e-06
9.02339e-05
-3.9023e-07
3.15292e-05
-5.54433e-06
5.47098e-05
1.7917e-05
1.15169e-06
8.01247e-05
-2.21771e-07
2.81801e-05
-5.07843e-06
5.01252e-05
1.5127e-05
1.2234e-06
7.01138e-05
-8.31481e-08
2.46199e-05
-4.58493e-06
4.50992e-05
1.24023e-05
1.2539e-06
6.03548e-05
2.47155e-08
2.09404e-05
-4.07447e-06
3.97441e-05
9.8241e-06
1.24185e-06
5.10119e-05
1.01423e-07
1.72571e-05
-3.55959e-06
3.42254e-05
7.46246e-06
1.1896e-06
4.22483e-05
1.47654e-07
1.37007e-05
-3.05286e-06
2.87477e-05
5.3726e-06
1.10385e-06
3.42108e-05
1.65303e-07
1.04041e-05
-2.56486e-06
2.35246e-05
3.59582e-06
9.94557e-07
2.7015e-05
1.57249e-07
7.48609e-06
-2.10294e-06
1.87419e-05
2.16269e-06
8.72548e-07
2.07354e-05
1.27044e-07
5.0405e-06
-1.67134e-06
1.45277e-05
1.09473e-06
7.47439e-07
1.54005e-05
7.87497e-08
3.12776e-06
-1.27244e-06
1.09399e-05
3.99885e-07
6.27461e-07
1.09835e-05
1.68604e-08
1.76435e-06
-9.08644e-07
7.96336e-06
5.84859e-08
5.21129e-07
7.37705e-06
-5.37107e-08
9.02389e-07
-5.82702e-07
5.49601e-06
-2.7713e-09
4.39969e-07
4.3375e-06
-1.27525e-07
3.91997e-07
-3.03059e-07
3.3147e-06
4.10774e-08
3.9443e-07
1.64891e-06
-1.89742e-07
9.295e-08
-7.74702e-08
1.27652e-06
2.73889e-08
2.52037e-07
-1.51661e-07
4.77156e-08
)
;

boundaryField
{
    leftWall
    {
        type            calculated;
        value           nonuniform 0();
    }
    rightWall
    {
        type            calculated;
        value           uniform 0;
    }
    leftSides_periodic0
    {
        type            cyclic;
        value           nonuniform 0();
    }
    leftSides_periodic1
    {
        type            cyclic;
        value           nonuniform 0();
    }
    rightSides_periodic0
    {
        type            cyclic;
        value           nonuniform 0();
    }
    rightSides_periodic1
    {
        type            cyclic;
        value           nonuniform 0();
    }
    leftInOut_periodic0
    {
        type            cyclic;
        value           nonuniform 0();
    }
    leftInOut_periodic1
    {
        type            cyclic;
        value           nonuniform 0();
    }
    rightInOut_periodic0
    {
        type            cyclic;
        value           nonuniform List<scalar> 
157
(
-3.17043e-06
-1.11093e-06
-2.93101e-07
-2.23648e-07
-4.5453e-07
-7.07299e-07
-8.80215e-07
-9.9887e-07
-1.07114e-06
-1.1033e-06
-1.10539e-06
-1.09278e-06
-1.08742e-06
-1.0821e-06
-9.50865e-07
-5.26423e-07
-5.82305e-08
-1.10845e-06
-4.4287e-06
-7.4872e-06
-9.00683e-06
-9.09513e-06
-8.67705e-06
-8.22004e-06
-7.72564e-06
-7.19524e-06
-6.63656e-06
-6.05397e-06
-5.4543e-06
-4.84678e-06
-4.2414e-06
-3.64263e-06
-3.05264e-06
-2.47802e-06
-1.88834e-06
-1.11858e-06
-2.84544e-08
1.04589e-06
1.12519e-06
7.25699e-08
-7.79334e-07
-8.7963e-07
-4.74469e-07
6.88902e-08
6.37818e-07
1.23509e-06
1.86415e-06
2.52645e-06
3.22293e-06
3.95144e-06
4.70623e-06
5.4832e-06
6.27769e-06
7.07715e-06
7.86616e-06
8.63157e-06
9.36062e-06
1.00413e-05
1.06652e-05
1.12317e-05
1.17426e-05
1.21874e-05
1.25498e-05
1.28231e-05
1.29959e-05
1.30362e-05
1.29106e-05
1.26026e-05
1.21119e-05
1.14566e-05
1.06563e-05
9.77393e-06
8.87267e-06
8.00869e-06
7.23835e-06
6.63288e-06
6.2719e-06
5.88942e-06
3.59079e-06
4.1628e-06
3.78822e-06
3.47439e-06
3.19661e-06
2.93752e-06
2.68661e-06
2.43728e-06
2.18436e-06
1.92585e-06
1.66363e-06
1.40111e-06
1.13953e-06
8.85176e-07
6.56448e-07
4.73325e-07
4.02534e-07
4.48909e-07
5.06764e-07
4.47155e-07
2.45103e-07
-8.69386e-08
-4.51371e-07
-8.3261e-07
-1.24102e-06
-1.60802e-06
-2.02066e-06
-2.44676e-06
-2.87515e-06
-3.29991e-06
-3.71707e-06
-4.12317e-06
-4.51475e-06
-4.88816e-06
-5.23971e-06
-5.56665e-06
-5.8679e-06
-6.14366e-06
-6.39601e-06
-6.63164e-06
-6.85921e-06
-7.08562e-06
-7.30974e-06
-7.52087e-06
-7.71229e-06
-7.88615e-06
-8.04706e-06
-8.19688e-06
-8.33306e-06
-8.4513e-06
-8.54794e-06
-8.62042e-06
-8.66692e-06
-8.6858e-06
-8.67561e-06
-8.63517e-06
-8.56325e-06
-8.45854e-06
-8.3197e-06
-8.14549e-06
-7.93507e-06
-7.68826e-06
-7.40392e-06
-7.07996e-06
-6.71529e-06
-6.30981e-06
-5.86581e-06
-5.389e-06
-4.88783e-06
-4.37278e-06
-3.85487e-06
-3.34413e-06
-2.84844e-06
-2.37345e-06
-1.92319e-06
-1.50142e-06
-1.11469e-06
-7.63149e-07
-3.48881e-07
)
;
    }
    rightInOut_periodic1
    {
        type            cyclic;
        value           nonuniform List<scalar> 
157
(
3.17043e-06
1.11093e-06
2.93101e-07
2.23648e-07
4.5453e-07
7.07299e-07
8.80215e-07
9.9887e-07
1.07114e-06
1.1033e-06
1.10539e-06
1.09278e-06
1.08742e-06
1.0821e-06
9.50865e-07
5.26423e-07
5.82305e-08
1.10845e-06
4.4287e-06
7.4872e-06
9.00683e-06
9.09513e-06
8.67705e-06
8.22004e-06
7.72564e-06
7.19524e-06
6.63656e-06
6.05397e-06
5.4543e-06
4.84678e-06
4.2414e-06
3.64263e-06
3.05264e-06
2.47802e-06
1.88834e-06
1.11858e-06
2.84544e-08
-1.04589e-06
-1.12519e-06
-7.25699e-08
7.79334e-07
8.7963e-07
4.74469e-07
-6.88902e-08
-6.37818e-07
-1.23509e-06
-1.86415e-06
-2.52645e-06
-3.22293e-06
-3.95144e-06
-4.70623e-06
-5.4832e-06
-6.27769e-06
-7.07715e-06
-7.86616e-06
-8.63157e-06
-9.36062e-06
-1.00413e-05
-1.06652e-05
-1.12317e-05
-1.17426e-05
-1.21874e-05
-1.25498e-05
-1.28231e-05
-1.29959e-05
-1.30362e-05
-1.29106e-05
-1.26026e-05
-1.21119e-05
-1.14566e-05
-1.06563e-05
-9.77393e-06
-8.87267e-06
-8.00869e-06
-7.23835e-06
-6.63288e-06
-6.2719e-06
-5.88942e-06
-3.59079e-06
-4.1628e-06
-3.78822e-06
-3.47439e-06
-3.19661e-06
-2.93752e-06
-2.68661e-06
-2.43728e-06
-2.18436e-06
-1.92585e-06
-1.66363e-06
-1.40111e-06
-1.13953e-06
-8.85176e-07
-6.56448e-07
-4.73325e-07
-4.02534e-07
-4.48909e-07
-5.06764e-07
-4.47155e-07
-2.45103e-07
8.69386e-08
4.51371e-07
8.3261e-07
1.24102e-06
1.60802e-06
2.02066e-06
2.44676e-06
2.87515e-06
3.29991e-06
3.71707e-06
4.12317e-06
4.51475e-06
4.88816e-06
5.23971e-06
5.56665e-06
5.8679e-06
6.14366e-06
6.39601e-06
6.63164e-06
6.85921e-06
7.08562e-06
7.30974e-06
7.52087e-06
7.71229e-06
7.88615e-06
8.04706e-06
8.19688e-06
8.33306e-06
8.4513e-06
8.54794e-06
8.62042e-06
8.66692e-06
8.6858e-06
8.67561e-06
8.63517e-06
8.56325e-06
8.45854e-06
8.3197e-06
8.14549e-06
7.93507e-06
7.68826e-06
7.40392e-06
7.07996e-06
6.71529e-06
6.30981e-06
5.86581e-06
5.389e-06
4.88783e-06
4.37278e-06
3.85487e-06
3.34413e-06
2.84844e-06
2.37345e-06
1.92319e-06
1.50142e-06
1.11469e-06
7.63149e-07
3.48881e-07
)
;
    }
    procBoundary3to1
    {
        type            processor;
        value           nonuniform List<scalar> 
316
(
0.000561708
0.000541638
0.000613651
0.000520531
0.000550637
0.000535199
0.000603019
0.000505921
0.000539601
0.000531072
0.000592259
0.000494048
0.000528666
0.000529831
0.000581448
0.00048369
0.000517847
0.000524463
0.000570619
0.000473887
0.000507154
0.000516012
0.000559795
0.000464052
0.000496595
0.000506915
0.000548994
0.000454143
0.000486177
0.000497929
0.000538223
0.000444245
0.000475906
0.000488925
0.000527471
0.000434413
0.000465782
0.000479817
0.000516695
0.000424688
0.000455799
0.000470682
0.000505965
0.000415103
0.000445944
0.00046157
0.000495341
0.000405681
0.000436189
0.000452515
0.000484224
0.000396434
0.000426559
0.000443543
0.000470934
0.000387363
0.000417189
0.000434671
0.000454702
0.000378492
0.000407958
0.000425906
0.000440491
0.000369969
0.000397928
0.000417255
0.000428784
0.000361852
0.000385357
0.00040872
0.000418562
0.000353489
0.00037131
0.000400303
0.000409026
0.000343303
0.000359834
0.000392007
0.000399719
0.000331761
0.00035022
0.000383831
0.000390552
0.000322121
0.000341603
0.000375774
0.000381522
0.000313895
0.000333428
0.000367834
0.000372628
0.000306382
0.000325457
0.000360001
0.000363858
0.000299091
0.00031767
0.00035226
0.000355204
0.000291853
0.000310049
0.000344572
0.000346683
0.00028469
0.000302578
0.000336992
0.000338315
0.000277611
0.000295242
0.000329634
0.000330112
0.000270623
0.000288031
0.000322169
0.000322069
0.000263734
0.000280936
0.000313578
0.000314176
0.00025695
0.000273948
0.000303533
0.000306427
0.000250275
0.000267061
0.000294452
0.000298813
0.000243713
0.000260264
0.000286615
0.000291332
0.000237264
0.000253546
0.000279502
0.00028398
0.000230928
0.000246922
0.00027267
0.000276757
0.000224702
0.000240445
0.00026593
0.000269661
0.000218581
0.000234031
0.000259303
0.000262686
0.000212566
0.000227353
0.000252714
0.000255823
0.000206657
0.000220121
0.000246004
0.000249065
0.000200845
0.000212746
0.000239223
0.000242411
0.000195099
0.000205943
0.000232615
0.000235854
0.000189409
0.000199668
0.000226238
0.000229392
0.000183808
0.000193679
0.00022001
0.000223018
0.000178311
0.000187844
0.000213865
0.000216729
0.000172904
0.00018209
0.00020778
0.00021052
0.00016757
0.000176411
0.000201754
0.000204386
0.000162301
0.000170798
0.000195774
0.000198321
0.000157092
0.000165241
0.000189821
0.000192319
0.000151939
0.000159732
0.000183874
0.000186372
0.000146836
0.00015426
0.000177925
0.000180468
0.000141777
0.000148812
0.000171976
0.000174595
0.000136751
0.000143375
0.000166031
0.000168735
0.000131742
0.000137928
0.000160087
0.000162867
0.000126737
0.000132452
0.000154136
0.000156978
0.000121724
0.000126939
0.000148162
0.000151061
0.000116694
0.000121387
0.000142152
0.000145109
0.000111638
0.000115793
0.000136093
0.000139109
0.000106548
0.000110155
0.000129975
0.000133045
0.000101417
0.000104468
0.000123788
0.000126899
9.62397e-05
9.87263e-05
0.00011752
0.000120656
9.10152e-05
9.29274e-05
0.000111162
0.000114299
8.57407e-05
8.70709e-05
0.000104704
0.000107813
8.04115e-05
8.11591e-05
9.81395e-05
0.000101186
7.50262e-05
7.51933e-05
9.1465e-05
9.44118e-05
6.95822e-05
6.91746e-05
8.46757e-05
8.74901e-05
6.40843e-05
6.31178e-05
7.77643e-05
8.04212e-05
5.85561e-05
5.70574e-05
7.07336e-05
7.32054e-05
5.30354e-05
5.10443e-05
6.36158e-05
6.58706e-05
4.75726e-05
4.51448e-05
5.64811e-05
5.84851e-05
4.22252e-05
3.94303e-05
4.94293e-05
5.11508e-05
3.70498e-05
3.39653e-05
4.25766e-05
4.39957e-05
3.20923e-05
2.8796e-05
3.60317e-05
3.71473e-05
2.73826e-05
2.39456e-05
2.98747e-05
3.07053e-05
2.29345e-05
1.94183e-05
2.41489e-05
2.4726e-05
1.87525e-05
1.52088e-05
1.88705e-05
1.92284e-05
1.48401e-05
1.13119e-05
1.40449e-05
1.42117e-05
1.12096e-05
7.734e-06
9.68643e-06
9.67671e-06
7.89611e-06
4.45769e-06
5.74629e-06
5.58064e-06
4.84589e-06
1.42426e-06
1.98505e-06
1.80702e-06
1.76799e-06
)
;
    }
    procBoundary3to1throughrightSides_periodic1
    {
        type            processorCyclic;
        value           nonuniform List<scalar> 
314
(
-0.000547049
-0.000536903
-0.000526779
-0.0005167
-0.000506682
-0.000496739
-0.000486878
-0.000477098
-0.000467396
-0.00045777
-0.000448134
-0.000438079
-0.000426979
-0.000414159
-0.000400711
-0.000390575
-0.000382419
-0.000374557
-0.00036646
-0.00035829
-0.000350165
-0.000342103
-0.00033413
-0.000326274
-0.000318548
-0.000310956
-0.00030349
-0.000296141
-0.000288902
-0.00028177
-0.000274741
-0.000267812
-0.000260979
-0.000254239
-0.000247591
-0.000241031
-0.00023456
-0.000228172
-0.000221856
-0.000215601
-0.000209394
-0.000203185
-0.000196936
-0.000190667
-0.000184439
-0.000178294
-0.000172207
-0.000166103
-0.000159941
-0.000153774
-0.00014765
-0.00014157
-0.000135496
-0.00012939
-0.000123231
-0.000117023
-0.000110777
-0.000104497
-9.81862e-05
-9.1842e-05
-8.54659e-05
-7.90617e-05
-7.26343e-05
-6.61787e-05
-5.9701e-05
-5.32436e-05
-4.68786e-05
-4.06989e-05
-3.48072e-05
-2.92964e-05
-2.42305e-05
-1.96363e-05
-1.55075e-05
-1.1815e-05
-8.51345e-06
-5.54539e-06
-2.87843e-06
-6.90798e-07
-0.000547544
-0.000538711
-0.000528887
-0.000518286
-0.00050696
-0.00049588
-0.000486049
-0.000477069
-0.000468536
-0.000460216
-0.000451955
-0.000443725
-0.000435532
-0.000427383
-0.000419287
-0.000411251
-0.000403276
-0.000395366
-0.000387519
-0.000379738
-0.000372024
-0.000364376
-0.000356794
-0.000349275
-0.00034182
-0.000334426
-0.000327092
-0.000319816
-0.000312599
-0.000305436
-0.000298291
-0.000291126
-0.00028394
-0.000276771
-0.000269625
-0.000262394
-0.000254881
-0.000246914
-0.000238793
-0.000231311
-0.000224427
-0.000217762
-0.00021112
-0.000204493
-0.000197892
-0.000191282
-0.000184601
-0.000177843
-0.000171104
-0.000164455
-0.0001579
-0.000151397
-0.000144905
-0.000138394
-0.000131852
-0.000125284
-0.000118693
-0.000112081
-0.000105444
-9.87795e-05
-9.2084e-05
-8.53572e-05
-7.8597e-05
-7.17983e-05
-6.49616e-05
-5.8107e-05
-5.12915e-05
-4.46137e-05
-3.81952e-05
-3.21589e-05
-2.66006e-05
-2.1569e-05
-1.70652e-05
-1.30549e-05
-9.47931e-06
-6.26056e-06
-3.38236e-06
-9.56036e-07
-0.000593146
-0.000582085
-0.000571163
-0.000560339
-0.000549608
-0.000538969
-0.000528425
-0.000517981
-0.000507647
-0.000497438
-0.000487369
-0.000477458
-0.000467717
-0.000458151
-0.00044873
-0.00043937
-0.000430037
-0.000420726
-0.000411355
-0.00040168
-0.000391293
-0.000380071
-0.000368286
-0.000356898
-0.000347686
-0.000339689
-0.00033192
-0.000324141
-0.000316431
-0.000308817
-0.00030128
-0.000293768
-0.000286189
-0.000278357
-0.000270068
-0.000261242
-0.000252368
-0.000244541
-0.000237592
-0.000230927
-0.000224288
-0.000217693
-0.000211153
-0.00020464