0 	0 	0 	0
0 	-1.52303e-35 	-9.97846e-37 	1.84941e-31
5.01672e-05 	-1.28704e-06 	-1.39396e-07 	0.0172546
5.01672e-05 	-1.28704e-06 	-1.39396e-07 	0.0172546
0.000100334 	-1.48367e-06 	-6.83756e-07 	0.0332109
0.000150502 	-1.43465e-06 	-1.67293e-06 	0.0480236
0.000150502 	-1.43465e-06 	-1.67293e-06 	0.0480236
0.000200669 	-1.48166e-06 	-3.12272e-06 	0.0617795
0.000200669 	-1.48166e-06 	-3.12272e-06 	0.0617795
0.000250836 	-1.59928e-06 	-4.99945e-06 	0.0745569
0.000301003 	-1.73617e-06 	-7.29423e-06 	0.0864198
0.000301003 	-1.73617e-06 	-7.29423e-06 	0.0864198
0.000351171 	-1.87355e-06 	-9.99899e-06 	0.0974092
0.000401338 	-2.0026e-06 	-1.31198e-05 	0.107544
0.000451505 	-2.11879e-06 	-1.66792e-05 	0.116839
0.000451505 	-2.11879e-06 	-1.66792e-05 	0.116839
0.000501672 	-2.22006e-06 	-2.07123e-05 	0.125318
0.000551839 	-2.30595e-06 	-2.52565e-05 	0.133027
0.000551839 	-2.30595e-06 	-2.52565e-05 	0.133027
0.000602007 	-2.37683e-06 	-3.03411e-05 	0.140028
0.000602007 	-2.37683e-06 	-3.03411e-05 	0.140028
0.000652174 	-2.43333e-06 	-3.59876e-05 	0.146392
0.000652174 	-2.43333e-06 	-3.59876e-05 	0.146392
0.000702341 	-2.47605e-06 	-4.22143e-05 	0.15219
0.000702341 	-2.47605e-06 	-4.22143e-05 	0.15219
0.000752508 	-2.50545e-06 	-4.90361e-05 	0.157494
0.000802676 	-2.52179e-06 	-5.64674e-05 	0.162357
0.000852843 	-2.52349e-06 	-6.4604e-05 	0.166773
0.000852843 	-2.52349e-06 	-6.4604e-05 	0.166773
0.00090301 	-2.51372e-06 	-7.33178e-05 	0.170853
0.00090301 	-2.51372e-06 	-7.33178e-05 	0.170853
0.000953177 	-2.4939e-06 	-8.25586e-05 	0.174635
0.00100334 	-2.46528e-06 	-9.22747e-05 	0.178154
0.00100334 	-2.46528e-06 	-9.22747e-05 	0.178154
0.00105351 	-2.42894e-06 	-0.000102416 	0.181444
0.00105351 	-2.42894e-06 	-0.000102416 	0.181444
0.00110368 	-2.38565e-06 	-0.000112947 	0.184526
0.00115385 	-2.33454e-06 	-0.000123909 	0.18738
0.00120401 	-2.27822e-06 	-0.000135149 	0.190084
0.00120401 	-2.27822e-06 	-0.000135149 	0.190084
0.00130435 	-2.15217e-06 	-0.00015833 	0.195098
0.00130435 	-2.15217e-06 	-0.00015833 	0.195098
0.00135452 	-2.08245e-06 	-0.000170259 	0.197401
0.00135452 	-2.08245e-06 	-0.000170259 	0.197401
0.00140468 	-2.00956e-06 	-0.000182343 	0.199595
0.00145485 	-1.93453e-06 	-0.000194532 	0.201705
0.00145485 	-1.93453e-06 	-0.000194532 	0.201705
0.00150502 	-1.85773e-06 	-0.000206807 	0.203738
0.00150502 	-1.85773e-06 	-0.000206807 	0.203738
0.00155518 	-1.779e-06 	-0.000219165 	0.205663
0.00155518 	-1.779e-06 	-0.000219165 	0.205663
0.00160535 	-1.69931e-06 	-0.000231539 	0.207528
0.00160535 	-1.69931e-06 	-0.000231539 	0.207528
0.00165552 	-1.61874e-06 	-0.000243914 	0.20934
0.00165552 	-1.61874e-06 	-0.000243914 	0.20934
0.00170569 	-1.53692e-06 	-0.000256254 	0.211081
0.00170569 	-1.53692e-06 	-0.000256254 	0.211081
0.00175585 	-1.45398e-06 	-0.000268515 	0.212767
0.00175585 	-1.45398e-06 	-0.000268515 	0.212767
0.00180602 	-1.37026e-06 	-0.000280705 	0.214415
0.00180602 	-1.37026e-06 	-0.000280705 	0.214415
0.00185619 	-1.28538e-06 	-0.00029276 	0.216009
0.00185619 	-1.28538e-06 	-0.00029276 	0.216009
0.00190635 	-1.19945e-06 	-0.000304644 	0.217557
0.00190635 	-1.19945e-06 	-0.000304644 	0.217557
0.00195652 	-1.11285e-06 	-0.000316409 	0.219077
0.00195652 	-1.11285e-06 	-0.000316409 	0.219077
0.00200669 	-1.02504e-06 	-0.000327928 	0.22055
0.00200669 	-1.02504e-06 	-0.000327928 	0.22055
0.00205686 	-9.36306e-07 	-0.00033923 	0.221989
0.00210702 	-8.46965e-07 	-0.000350389 	0.223408
0.00210702 	-8.46965e-07 	-0.000350389 	0.223408
0.00215719 	-7.56033e-07 	-0.000361142 	0.224776
0.00220736 	-6.64428e-07 	-0.000371717 	0.226127
0.00225753 	-5.71746e-07 	-0.000382009 	0.227449
0.00225753 	-5.71746e-07 	-0.000382009 	0.227449
0.00230769 	-4.77644e-07 	-0.00039193 	0.228738
0.00230769 	-4.77644e-07 	-0.00039193 	0.228738
0.00235786 	-3.82917e-07 	-0.00040169 	0.230014
0.00235786 	-3.82917e-07 	-0.00040169 	0.230014
0.00240803 	-2.86091e-07 	-0.000410927 	0.231248
0.00240803 	-2.86091e-07 	-0.000410927 	0.231248
0.00245819 	-1.88438e-07 	-0.000419971 	0.23247
0.00245819 	-1.88438e-07 	-0.000419971 	0.23247
0.00250836 	-8.91069e-08 	-0.000428624 	0.233663
0.00250836 	-8.91069e-08 	-0.000428624 	0.233663
0.00255853 	1.18912e-08 	-0.000436919 	0.234834
0.0026087 	1.14073e-07 	-0.00044496 	0.235987
0.0026087 	1.14073e-07 	-0.00044496 	0.235987
0.00265886 	2.1884e-07 	-0.000452485 	0.237109
0.00270903 	3.24221e-07 	-0.000459888 	0.238223
0.00270903 	3.24221e-07 	-0.000459888 	0.238223
0.0027592 	4.33117e-07 	-0.000466631 	0.239298
0.00280936 	5.42617e-07 	-0.000473268 	0.240367
0.00280936 	5.42617e-07 	-0.000473268 	0.240367
0.00285953 	6.55322e-07 	-0.000479336 	0.241403
0.00285953 	6.55322e-07 	-0.000479336 	0.241403
0.0029097 	7.69198e-07 	-0.000485211 	0.242429
0.0029097 	7.69198e-07 	-0.000485211 	0.242429
0.00295987 	8.86024e-07 	-0.0004906 	0.243426
0.00295987 	8.86024e-07 	-0.0004906 	0.243426
0.00301003 	1.00456e-06 	-0.000495739 	0.244409
0.0030602 	1.12592e-06 	-0.000500462 	0.245368
0.00311037 	1.24949e-06 	-0.000504909 	0.24631
0.00311037 	1.24949e-06 	-0.000504909 	0.24631
0.00316054 	1.37595e-06 	-0.000508995 	0.24723
0.00316054 	1.37595e-06 	-0.000508995 	0.24723
0.00326087 	1.63726e-06 	-0.000516302 	0.249016
0.00326087 	1.63726e-06 	-0.000516302 	0.249016
0.00331104 	1.77221e-06 	-0.000519553 	0.24988
0.0033612 	1.91056e-06 	-0.000522504 	0.250724
0.0033612 	1.91056e-06 	-0.000522504 	0.250724
0.00341137 	2.05115e-06 	-0.000525263 	0.251552
0.00341137 	2.05115e-06 	-0.000525263 	0.251552
0.00346154 	2.19514e-06 	-0.00052773 	0.252358
0.00346154 	2.19514e-06 	-0.00052773 	0.252358
0.00351171 	2.34057e-06 	-0.000530065 	0.253151
0.00356187 	2.48915e-06 	-0.000532108 	0.253919
0.00356187 	2.48915e-06 	-0.000532108 	0.253919
0.00361204 	2.63848e-06 	-0.00053408 	0.25468
0.00366221 	2.79106e-06 	-0.000535751 	0.255413
0.00366221 	2.79106e-06 	-0.000535751 	0.255413
0.00371237 	2.94377e-06 	-0.000537411 	0.256145
0.00371237 	2.94377e-06 	-0.000537411 	0.256145
0.00376254 	3.10091e-06 	-0.000538755 	0.256845
0.00376254 	3.10091e-06 	-0.000538755 	0.256845
0.00381271 	3.25805e-06 	-0.000540098 	0.257544
0.00381271 	3.25805e-06 	-0.000540098 	0.257544
0.00386288 	3.41988e-06 	-0.0005412 	0.258217
0.00391304 	3.58267e-06 	-0.000542253 	0.258885
0.00391304 	3.58267e-06 	-0.000542253 	0.258885
0.00396321 	3.74912e-06 	-0.000543154 	0.259533
0.00401338 	3.91811e-06 	-0.00054395 	0.260169
0.00401338 	3.91811e-06 	-0.00054395 	0.260169
0.00406355 	4.089e-06 	-0.000544676 	0.260794
0.00406355 	4.089e-06 	-0.000544676 	0.260794
0.00411371 	4.26408e-06 	-0.00054525 	0.261397
0.00411371 	4.26408e-06 	-0.00054525 	0.261397
0.00421405 	4.61989e-06 	-0.00054621 	0.262571
0.00421405 	4.61989e-06 	-0.00054621 	0.262571
0.00426421 	4.80067e-06 	-0.000546595 	0.263142
0.00426421 	4.80067e-06 	-0.000546595 	0.263142
0.00431438 	4.98476e-06 	-0.000546883 	0.263693
0.00431438 	4.98476e-06 	-0.000546883 	0.263693
0.00436455 	5.17077e-06 	-0.000547114 	0.264231
0.00436455 	5.17077e-06 	-0.000547114 	0.264231
0.00441472 	5.35786e-06 	-0.000547318 	0.264762
0.00441472 	5.35786e-06 	-0.000547318 	0.264762
0.00446488 	5.54856e-06 	-0.00054743 	0.265268
0.00446488 	5.54856e-06 	-0.00054743 	0.265268
0.00451505 	5.73927e-06 	-0.000547542 	0.265775
0.00451505 	5.73927e-06 	-0.000547542 	0.265775
0.00456522 	5.93315e-06 	-0.000547587 	0.266256
0.00456522 	5.93315e-06 	-0.000547587 	0.266256
0.00461538 	6.12791e-06 	-0.000547614 	0.266729
0.00461538 	6.12791e-06 	-0.000547614 	0.266729
0.00466555 	6.32364e-06 	-0.000547624 	0.267194
0.00471572 	6.52175e-06 	-0.000547597 	0.267635
0.00476589 	6.71986e-06 	-0.00054757 	0.268077
0.00476589 	6.71986e-06 	-0.00054757 	0.268077
0.00486622 	7.12062e-06 	-0.000547476 	0.268903
0.00486622 	7.12062e-06 	-0.000547476 	0.268903
0.00491639 	7.32162e-06 	-0.000547426 	0.269306
0.00496656 	7.52407e-06 	-0.00054738 	0.269683
0.00496656 	7.52407e-06 	-0.00054738 	0.269683
0.00501672 	7.72651e-06 	-0.000547333 	0.27006
0.00506689 	7.92939e-06 	-0.000547301 	0.270419
0.00511706 	8.13262e-06 	-0.000547281 	0.270764
0.00511706 	8.13262e-06 	-0.000547281 	0.270764
0.00521739 	8.53883e-06 	-0.000547278 	0.271426
0.00521739 	8.53883e-06 	-0.000547278 	0.271426
0.00526756 	8.74176e-06 	-0.000547301 	0.271739
0.00526756 	8.74176e-06 	-0.000547301 	0.271739
0.00531773 	8.94445e-06 	-0.000547333 	0.272047
0.00536789 	9.14577e-06 	-0.000547411 	0.272328
0.00536789 	9.14577e-06 	-0.000547411 	0.272328
0.00541806 	9.34709e-06 	-0.00054749 	0.27261
0.00546823 	9.54718e-06 	-0.000547592 	0.27288
0.00551839 	9.74526e-06 	-0.000547733 	0.27313
0.00551839 	9.74526e-06 	-0.000547733 	0.27313
0.00556856 	9.94333e-06 	-0.000547874 	0.273381
0.00556856 	9.94333e-06 	-0.000547874 	0.273381
0.0056689 	1.03314e-05 	-0.000548252 	0.273834
0.0056689 	1.03314e-05 	-0.000548252 	0.273834
0.00571906 	1.05243e-05 	-0.000548454 	0.274055
0.00576923 	1.07121e-05 	-0.000548696 	0.274254
0.00576923 	1.07121e-05 	-0.000548696 	0.274254
0.0058194 	1.08977e-05 	-0.000548954 	0.274445
0.0058194 	1.08977e-05 	-0.000548954 	0.274445
0.00591973 	1.12617e-05 	-0.000549505 	0.274805
0.00591973 	1.12617e-05 	-0.000549505 	0.274805
0.0059699 	1.1438e-05 	-0.000549807 	0.274967
0.0059699 	1.1438e-05 	-0.000549807 	0.274967
0.00602007 	1.16142e-05 	-0.000550109 	0.275129
0.00607023 	1.17815e-05 	-0.000550433 	0.27527
0.0061204 	1.19465e-05 	-0.000550762 	0.275404
0.0061204 	1.19465e-05 	-0.000550762 	0.275404
0.00617057 	1.21114e-05 	-0.000551091 	0.275539
0.00622074 	1.22662e-05 	-0.000551427 	0.275653
0.00622074 	1.22662e-05 	-0.000551427 	0.275653
0.0062709 	1.24179e-05 	-0.000551765 	0.275761
0.00632107 	1.25696e-05 	-0.000552102 	0.275869
0.00632107 	1.25696e-05 	-0.000552102 	0.275869
0.00637124 	1.27107e-05 	-0.000552431 	0.275959
0.00637124 	1.27107e-05 	-0.000552431 	0.275959
0.0064214 	1.28469e-05 	-0.000552757 	0.276042
0.0064214 	1.28469e-05 	-0.000552757 	0.276042
0.00647157 	1.29831e-05 	-0.000553083 	0.276124
0.00647157 	1.29831e-05 	-0.000553083 	0.276124
0.00652174 	1.31094e-05 	-0.000553404 	0.276192
0.00657191 	1.32274e-05 	-0.000553721 	0.276249
0.00657191 	1.32274e-05 	-0.000553721 	0.276249
0.00662207 	1.33454e-05 	-0.000554039 	0.276306
0.00667224 	1.34559e-05 	-0.000554341 	0.276355
0.00672241 	1.35525e-05 	-0.000554615 	0.276387
0.00672241 	1.35525e-05 	-0.000554615 	0.276387
0.00677258 	1.36491e-05 	-0.000554889 	0.276419
0.00682274 	1.37433e-05 	-0.000555155 	0.276449
0.00682274 	1.37433e-05 	-0.000555155 	0.276449
0.00687291 	1.38153e-05 	-0.000555342 	0.276458
0.00687291 	1.38153e-05 	-0.000555342 	0.276458
0.00692308 	1.38874e-05 	-0.00055553 	0.276466
0.00697324 	1.39594e-05 	-0.000555718 	0.276474
0.00702341 	1.40096e-05 	-0.000555851 	0.276463
0.00707358 	1.40539e-05 	-0.00055597 	0.276447
0.00707358 	1.40539e-05 	-0.00055597 	0.276447
0.00717391 	1.41307e-05 	-0.000556147 	0.276406
0.00717391 	1.41307e-05 	-0.000556147 	0.276406
0.00722408 	1.41467e-05 	-0.00055612 	0.276366
0.00722408 	1.41467e-05 	-0.00055612 	0.276366
0.00727425 	1.41628e-05 	-0.000556092 	0.276326
0.00727425 	1.41628e-05 	-0.000556092 	0.276326
0.00732441 	1.41789e-05 	-0.000556065 	0.276286
0.00732441 	1.41789e-05 	-0.000556065 	0.276286
0.00737458 	1.41683e-05 	-0.000555919 	0.276223
0.00737458 	1.41683e-05 	-0.000555919 	0.276223
0.00742475 	1.41576e-05 	-0.000555771 	0.27616
0.00747492 	1.41468e-05 	-0.000555623 	0.276097
0.00752508 	1.41225e-05 	-0.000555445 	0.276022
0.00752508 	1.41225e-05 	-0.000555445 	0.276022
0.00757525 	1.40846e-05 	-0.000555235 	0.275935
0.00762542 	1.40467e-05 	-0.000555025 	0.275848
0.00767559 	1.40086e-05 	-0.000554813 	0.275761
0.00767559 	1.40086e-05 	-0.000554813 	0.275761
0.00772575 	1.39443e-05 	-0.000554472 	0.27565
0.00777592 	1.388e-05 	-0.000554131 	0.275539
0.00777592 	1.388e-05 	-0.000554131 	0.275539
0.00782609 	1.38157e-05 	-0.000553789 	0.275428
0.00787625 	1.37363e-05 	-0.000553404 	0.275304
0.00787625 	1.37363e-05 	-0.000553404 	0.275304
0.00792642 	1.36459e-05 	-0.000552986 	0.27517
0.00797659 	1.35556e-05 	-0.000552568 	0.275036
0.00802676 	1.34599e-05 	-0.000552131 	0.274898
0.00802676 	1.34599e-05 	-0.000552131 	0.274898
0.00807692 	1.33441e-05 	-0.000551624 	0.274741
0.00807692 	1.33441e-05 	-0.000551624 	0.274741
0.00812709 	1.32283e-05 	-0.000551117 	0.274584
0.00817726 	1.31125e-05 	-0.000550609 	0.274428
0.00817726 	1.31125e-05 	-0.000550609 	0.274428
0.00822742 	1.29773e-05 	-0.000549972 	0.274251
0.00827759 	1.28399e-05 	-0.000549321 	0.274071
0.00827759 	1.28399e-05 	-0.000549321 	0.274071
0.00832776 	1.27025e-05 	-0.000548669 	0.273892
0.00832776 	1.27025e-05 	-0.000548669 	0.273892
0.00837793 	1.25535e-05 	-0.000547943 	0.273698
0.00842809 	1.23981e-05 	-0.000547178 	0.273497
0.00842809 	1.23981e-05 	-0.000547178 	0.273497
0.00847826 	1.22428e-05 	-0.000546413 	0.273295
0.00847826 	1.22428e-05 	-0.000546413 	0.273295
0.0085786 	1.19108e-05 	-0.000544718 	0.272859
0.0085786 	1.19108e-05 	-0.000544718 	0.272859
0.00862876 	1.17408e-05 	-0.000543841 	0.272635
0.00867893 	1.1567e-05 	-0.000542928 	0.272404
0.0087291 	1.13853e-05 	-0.000541939 	0.272158
0.00877926 	1.12036e-05 	-0.00054095 	0.271911
0.00882943 	1.10197e-05 	-0.000539935 	0.27166
0.0088796 	1.08288e-05 	-0.000538838 	0.271391
0.0088796 	1.08288e-05 	-0.000538838 	0.271391
0.00892977 	1.06379e-05 	-0.00053774 	0.271122
0.00892977 	1.06379e-05 	-0.00053774 	0.271122
0.00897993 	1.04456e-05 	-0.00053662 	0.270849
0.00897993 	1.04456e-05 	-0.00053662 	0.270849
0.0090301 	1.02477e-05 	-0.000535413 	0.270557
0.00908027 	1.00499e-05 	-0.000534207 	0.270266
0.00908027 	1.00499e-05 	-0.000534207 	0.270266
0.00913043 	9.85097e-06 	-0.000532976 	0.26997
0.0091806 	9.64817e-06 	-0.000531662 	0.269656
0.0091806 	9.64817e-06 	-0.000531662 	0.269656
0.00923077 	9.44537e-06 	-0.000530349 	0.269342
0.00928094 	9.24152e-06 	-0.000529001 	0.269021
0.00928094 	9.24152e-06 	-0.000529001 	0.269021
0.0093311 	9.03536e-06 	-0.000527579 	0.268684
0.00938127 	8.82919e-06 	-0.000526156 	0.268347
0.00938127 	8.82919e-06 	-0.000526156 	0.268347
0.00943144 	8.62216e-06 	-0.000524686 	0.268001
0.00943144 	8.62216e-06 	-0.000524686 	0.268001
0.00948161 	8.41401e-06 	-0.000523154 	0.267641
0.00948161 	8.41401e-06 	-0.000523154 	0.267641
0.00953177 	8.20586e-06 	-0.000521622 	0.267281
0.00953177 	8.20586e-06 	-0.000521622 	0.267281
0.00958194 	7.99722e-06 	-0.000520022 	0.266907
0.00958194 	7.99722e-06 	-0.000520022 	0.266907
0.00963211 	7.78826e-06 	-0.000518378 	0.266523
0.00968227 	7.57931e-06 	-0.000516735 	0.26614
0.00968227 	7.57931e-06 	-0.000516735 	0.26614
0.00973244 	7.3705e-06 	-0.000514995 	0.265736
0.00978261 	7.16173e-06 	-0.000513238 	0.265329
0.00978261 	7.16173e-06 	-0.000513238 	0.265329
0.00983278 	6.95308e-06 	-0.000511466 	0.264919
0.00983278 	6.95308e-06 	-0.000511466 	0.264919
0.00988294 	6.74532e-06 	-0.000509592 	0.264488
0.00993311 	6.53756e-06 	-0.000507717 	0.264056
0.00993311 	6.53756e-06 	-0.000507717 	0.264056
0.00998328 	6.33057e-06 	-0.000505788 	0.263614
0.0100334 	6.12452e-06 	-0.000503792 	0.263157
0.0100836 	5.91848e-06 	-0.000501795 	0.262701
0.0100836 	5.91848e-06 	-0.000501795 	0.262701
0.0101338 	5.71432e-06 	-0.000499695 	0.262224
0.0101839 	5.51056e-06 	-0.000497572 	0.261742
0.0101839 	5.51056e-06 	-0.000497572 	0.261742
0.0102341 	5.30749e-06 	-0.000495417 	0.261254
0.0102341 	5.30749e-06 	-0.000495417 	0.261254
0.0102843 	5.10651e-06 	-0.000493162 	0.260746
0.0103344 	4.90554e-06 	-0.000490907 	0.260239
0.0103344 	4.90554e-06 	-0.000490907 	0.260239
0.0103846 	4.70682e-06 	-0.000488554 	0.259712
0.0103846 	4.70682e-06 	-0.000488554 	0.259712
0.0104348 	4.50903e-06 	-0.00048616 	0.259178
0.0104348 	4.50903e-06 	-0.00048616 	0.259178
0.0104849 	4.31201e-06 	-0.000483734 	0.258637
0.0104849 	4.31201e-06 	-0.000483734 	0.258637
0.0105351 	4.11776e-06 	-0.000481194 	0.258075
0.0105853 	3.9235e-06 	-0.000478654 	0.257513
0.0105853 	3.9235e-06 	-0.000478654 	0.257513
0.0106856 	3.54175e-06 	-0.000473301 	0.256338
0.0106856 	3.54175e-06 	-0.000473301 	0.256338
0.0107358 	3.35281e-06 	-0.000470547 	0.255736
0.010786 	3.16645e-06 	-0.000467691 	0.255116
0.010786 	3.16645e-06 	-0.000467691 	0.255116
0.0108361 	2.98011e-06 	-0.000464834 	0.254496
0.0108863 	2.79805e-06 	-0.000461807 	0.253845
0.0108863 	2.79805e-06 	-0.000461807 	0.253845
0.0109365 	2.61599e-06 	-0.00045878 	0.253194
0.0109365 	2.61599e-06 	-0.00045878 	0.253194
0.0109866 	2.43703e-06 	-0.000455631 	0.252521
0.0110368 	2.25949e-06 	-0.000452427 	0.251838
0.0110368 	2.25949e-06 	-0.000452427 	0.251838
0.011087 	2.08386e-06 	-0.000449145 	0.251142
0.011087 	2.08386e-06 	-0.000449145 	0.251142
0.0111371 	1.91102e-06 	-0.000445751 	0.250426
0.0111873 	1.739e-06 	-0.000442322 	0.249704
0.0111873 	1.739e-06 	-0.000442322 	0.249704
0.0112375 	1.57096e-06 	-0.000438724 	0.248953
0.0112876 	1.40293e-06 	-0.000435126 	0.248202
0.0112876 	1.40293e-06 	-0.000435126 	0.248202
0.0113378 	1.23968e-06 	-0.000431314 	0.247415
0.0113378 	1.23968e-06 	-0.000431314 	0.247415
0.011388 	1.07658e-06 	-0.000427496 	0.246628
0.0114381 	9.17553e-07 	-0.000423478 	0.245809
0.0114381 	9.17553e-07 	-0.000423478 	0.245809
0.0114883 	7.59485e-07 	-0.000419414 	0.244982
0.0115385 	6.04714e-07 	-0.000415154 	0.244126
0.0115385 	6.04714e-07 	-0.000415154 	0.244126
0.0115886 	4.51442e-07 	-0.000410805 	0.243256
0.0116388 	3.00629e-07 	-0.000406257 	0.242358
0.0116388 	3.00629e-07 	-0.000406257 	0.242358
0.011689 	1.51437e-07 	-0.000401578 	0.241441
0.0117391 	4.08205e-09 	-0.000396686 	0.240495
0.0117893 	-1.41796e-07 	-0.000391624 	0.239526
0.0118395 	-2.86034e-07 	-0.00038633 	0.238525
0.0118395 	-2.86034e-07 	-0.00038633 	0.238525
0.0118896 	-4.28886e-07 	-0.000380839 	0.237499
0.0119398 	-5.69854e-07 	-0.000375088 	0.236437
0.0119398 	-5.69854e-07 	-0.000375088 	0.236437
0.01199 	-7.09374e-07 	-0.000369137 	0.235349
0.0120401 	-8.4655e-07 	-0.000362889 	0.234218
0.0120401 	-8.4655e-07 	-0.000362889 	0.234218
0.0120903 	-9.82311e-07 	-0.000356463 	0.233063
0.0120903 	-9.82311e-07 	-0.000356463 	0.233063
0.0121906 	-1.24715e-06 	-0.000342787 	0.230629
0.0121906 	-1.24715e-06 	-0.000342787 	0.230629
0.0122408 	-1.37584e-06 	-0.000335475 	0.229337
0.012291 	-1.50392e-06 	-0.000328086 	0.228034
0.012291 	-1.50392e-06 	-0.000328086 	0.228034
0.0123411 	-1.62842e-06 	-0.000320217 	0.226649
0.0123913 	-1.75228e-06 	-0.000312258 	0.225248
0.0123913 	-1.75228e-06 	-0.000312258 	0.225248
0.0124415 	-1.87343e-06 	-0.000303916 	0.223777
0.0124415 	-1.87343e-06 	-0.000303916 	0.223777
0.0124916 	-1.99326e-06 	-0.000295384 	0.222269
0.0124916 	-1.99326e-06 	-0.000295384 	0.222269
0.0125418 	-2.11126e-06 	-0.000286584 	0.220707
0.012592 	-2.22728e-06 	-0.000277494 	0.219081
0.0126421 	-2.34233e-06 	-0.000268261 	0.217422
0.0126421 	-2.34233e-06 	-0.000268261 	0.217422
0.0126923 	-2.45475e-06 	-0.000258647 	0.215668
0.0127425 	-2.56634e-06 	-0.000248921 	0.21388
0.0127425 	-2.56634e-06 	-0.000248921 	0.21388
0.0127926 	-2.67603e-06 	-0.00023894 	0.212014
0.0128428 	-2.78419e-06 	-0.00022878 	0.210079
0.0128428 	-2.78419e-06 	-0.00022878 	0.210079
0.0129431 	-2.99625e-06 	-0.00020802 	0.206009
0.0129431 	-2.99625e-06 	-0.00020802 	0.206009
0.0129933 	-3.10015e-06 	-0.000197474 	0.203867
0.0130435 	-3.20263e-06 	-0.000186843 	0.20165
0.0130435 	-3.20263e-06 	-0.000186843 	0.20165
0.0131438 	-3.40254e-06 	-0.000165491 	0.196943
0.0131438 	-3.40254e-06 	-0.000165491 	0.196943
0.013194 	-3.50016e-06 	-0.000154839 	0.194461
0.0132441 	-3.59573e-06 	-0.000144282 	0.191869
0.0132441 	-3.59573e-06 	-0.000144282 	0.191869
0.0132943 	-3.68986e-06 	-0.000133812 	0.189202
0.0133445 	-3.78186e-06 	-0.000123493 	0.186426
0.0133445 	-3.78186e-06 	-0.000123493 	0.186426
0.0133946 	-3.87113e-06 	-0.000113413 	0.183518
0.0133946 	-3.87113e-06 	-0.000113413 	0.183518
0.0134448 	-3.95832e-06 	-0.000103528 	0.180516
0.0134448 	-3.95832e-06 	-0.000103528 	0.180516
0.013495 	-4.04316e-06 	-9.3869e-05 	0.177408
0.0135452 	-4.12387e-06 	-8.46363e-05 	0.174123
0.0135452 	-4.12387e-06 	-8.46363e-05 	0.174123
0.0135953 	-4.20173e-06 	-7.57104e-05 	0.170717
0.0135953 	-4.20173e-06 	-7.57104e-05 	0.170717
0.0136455 	-4.27647e-06 	-6.71181e-05 	0.167181
0.0136455 	-4.27647e-06 	-6.71181e-05 	0.167181
0.0136957 	-4.34713e-06 	-5.89571e-05 	0.163481
0.0136957 	-4.34713e-06 	-5.89571e-05 	0.163481
0.0137458 	-4.41204e-06 	-5.13379e-05 	0.159571
0.013796 	-4.47156e-06 	-4.41628e-05 	0.155489
0.013796 	-4.47156e-06 	-4.41628e-05 	0.155489
0.0138462 	-4.52478e-06 	-3.74619e-05 	0.15122
0.0138462 	-4.52478e-06 	-3.74619e-05 	0.15122
0.0138963 	-4.57069e-06 	-3.12662e-05 	0.14675
0.0139465 	-4.6051e-06 	-2.57654e-05 	0.14199
0.0139465 	-4.6051e-06 	-2.57654e-05 	0.14199
0.0139967 	-4.62887e-06 	-2.08181e-05 	0.136983
0.0139967 	-4.62887e-06 	-2.08181e-05 	0.136983
0.0140468 	-4.64069e-06 	-1.64237e-05 	0.131715
0.0140468 	-4.64069e-06 	-1.64237e-05 	0.131715
0.014097 	-4.63898e-06 	-1.25901e-05 	0.126164
0.0141472 	-4.62219e-06 	-9.31723e-06 	0.120307
0.0141472 	-4.62219e-06 	-9.31723e-06 	0.120307
0.0141973 	-4.58893e-06 	-6.59101e-06 	0.114118
0.0142475 	-4.53375e-06 	-4.45363e-06 	0.107497
0.0142977 	-4.45463e-06 	-2.7729e-06 	0.10046
0.0142977 	-4.45463e-06 	-2.7729e-06 	0.10046
0.0143478 	-4.34525e-06 	-1.50307e-06 	0.0929941
0.014398 	-4.19832e-06 	-6.03893e-07 	0.0851187
0.014398 	-4.19832e-06 	-6.03893e-07 	0.0851187
0.0144482 	-4.00697e-06 	-2.60408e-08 	0.076891
0.0144983 	-3.76581e-06 	2.90411e-07 	0.0684153
0.0144983 	-3.76581e-06 	2.90411e-07 	0.0684153
0.0145485 	-3.47218e-06 	4.12228e-07 	0.0598426
0.0145485 	-3.47218e-06 	4.12228e-07 	0.0598426
0.0145987 	-3.12772e-06 	4.06378e-07 	0.0513553
0.0146488 	-2.7396e-06 	3.31855e-07 	0.0431368
0.014699 	-2.32095e-06 	2.32687e-07 	0.0353377
0.014699 	-2.32095e-06 	2.32687e-07 	0.0353377
0.0147492 	-1.89113e-06 	1.35606e-07 	0.0280551
0.0147993 	-1.47919e-06 	5.47462e-08 	0.0213342
0.0147993 	-1.47919e-06 	5.47462e-08 	0.0213342
0.0148495 	-1.13554e-06 	-6.27895e-09 	0.015184
0.0148495 	-1.13554e-06 	-6.27895e-09 	0.015184
0.0148997 	-8.86659e-07 	-3.2974e-08 	0.00959399
0.0148997 	-8.86659e-07 	-3.2974e-08 	0.00959399
0.0149498 	-5.93042e-07 	-2.81391e-08 	0.00454489
0.0149498 	-5.93042e-07 	-2.81391e-08 	0.00454489
0.015 	0 	0 	0
0.015 	0 	0 	0
