-0.0075 	0 	0 	0
-0.0075 	8.79974e-36 	-3.31847e-36 	1.85111e-31
-0.00745622 	7.22844e-07 	-2.72592e-07 	0.0152057
-0.00745622 	7.22844e-07 	-2.72592e-07 	0.0152057
-0.00741165 	5.39864e-07 	-8.43069e-07 	0.0296097
-0.00741165 	5.39864e-07 	-8.43069e-07 	0.0296097
-0.00736628 	4.95874e-08 	-1.78931e-06 	0.0433103
-0.00736628 	4.95874e-08 	-1.78931e-06 	0.0433103
-0.0073201 	-3.78672e-07 	-3.09816e-06 	0.0563345
-0.0073201 	-3.78672e-07 	-3.09816e-06 	0.0563345
-0.00727309 	-7.33247e-07 	-4.80525e-06 	0.0687067
-0.00727309 	-7.33247e-07 	-4.80525e-06 	0.0687067
-0.00722524 	-1.06569e-06 	-6.91466e-06 	0.0804479
-0.00722524 	-1.06569e-06 	-6.91466e-06 	0.0804479
-0.00717653 	-1.39059e-06 	-9.44093e-06 	0.0915672
-0.00717653 	-1.39059e-06 	-9.44093e-06 	0.0915672
-0.00712695 	-1.71336e-06 	-1.24024e-05 	0.102053
-0.00712695 	-1.71336e-06 	-1.24024e-05 	0.102053
-0.00707647 	-2.03517e-06 	-1.58311e-05 	0.111875
-0.00707647 	-2.03517e-06 	-1.58311e-05 	0.111875
-0.0070251 	-2.35302e-06 	-1.97789e-05 	0.121007
-0.0070251 	-2.35302e-06 	-1.97789e-05 	0.121007
-0.0069728 	-2.66072e-06 	-2.43137e-05 	0.129441
-0.0069728 	-2.66072e-06 	-2.43137e-05 	0.129441
-0.00691956 	-2.95082e-06 	-2.95056e-05 	0.137197
-0.00691956 	-2.95082e-06 	-2.95056e-05 	0.137197
-0.00686537 	-3.21657e-06 	-3.54178e-05 	0.144313
-0.00686537 	-3.21657e-06 	-3.54178e-05 	0.144313
-0.00681021 	-3.45341e-06 	-4.21161e-05 	0.150845
-0.00681021 	-3.45341e-06 	-4.21161e-05 	0.150845
-0.00675406 	-3.65898e-06 	-4.96687e-05 	0.156854
-0.00675406 	-3.65898e-06 	-4.96687e-05 	0.156854
-0.0066969 	-3.83237e-06 	-5.81375e-05 	0.162394
-0.0066969 	-3.83237e-06 	-5.81375e-05 	0.162394
-0.00663871 	-3.97382e-06 	-6.75653e-05 	0.167511
-0.00663871 	-3.97382e-06 	-6.75653e-05 	0.167511
-0.00657949 	-4.08403e-06 	-7.79553e-05 	0.172248
-0.00657949 	-4.08403e-06 	-7.79553e-05 	0.172248
-0.0065192 	-4.16401e-06 	-8.9275e-05 	0.176644
-0.0065192 	-4.16401e-06 	-8.9275e-05 	0.176644
-0.00645783 	-4.21526e-06 	-0.000101478 	0.180742
-0.00645783 	-4.21526e-06 	-0.000101478 	0.180742
-0.00639535 	-4.23965e-06 	-0.000114513 	0.184581
-0.00639535 	-4.23965e-06 	-0.000114513 	0.184581
-0.00633176 	-4.23926e-06 	-0.000128328 	0.188193
-0.00633176 	-4.23926e-06 	-0.000128328 	0.188193
-0.00626703 	-4.21627e-06 	-0.00014287 	0.191606
-0.00626703 	-4.21627e-06 	-0.00014287 	0.191606
-0.00620114 	-4.17267e-06 	-0.000158082 	0.194843
-0.00620114 	-4.17267e-06 	-0.000158082 	0.194843
-0.00613406 	-4.11013e-06 	-0.000173906 	0.197924
-0.00613406 	-4.11013e-06 	-0.000173906 	0.197924
-0.00606579 	-4.02985e-06 	-0.000190281 	0.200867
-0.00606579 	-4.02985e-06 	-0.000190281 	0.200867
-0.00599629 	-3.93258e-06 	-0.000207142 	0.203688
-0.00599629 	-3.93258e-06 	-0.000207142 	0.203688
-0.00592554 	-3.81907e-06 	-0.000224421 	0.206404
-0.00592554 	-3.81907e-06 	-0.000224421 	0.206404
-0.00585352 	-3.69052e-06 	-0.000242041 	0.20903
-0.00585352 	-3.69052e-06 	-0.000242041 	0.20903
-0.00578022 	-3.54839e-06 	-0.000259912 	0.211576
-0.00578022 	-3.54839e-06 	-0.000259912 	0.211576
-0.00570559 	-3.39396e-06 	-0.000277937 	0.214052
-0.00570559 	-3.39396e-06 	-0.000277937 	0.214052
-0.00562963 	-3.22809e-06 	-0.000296016 	0.216468
-0.00562963 	-3.22809e-06 	-0.000296016 	0.216468
-0.00555231 	-3.05136e-06 	-0.00031405 	0.218829
-0.00555231 	-3.05136e-06 	-0.00031405 	0.218829
-0.0054736 	-2.86421e-06 	-0.000331939 	0.221141
-0.0054736 	-2.86421e-06 	-0.000331939 	0.221141
-0.00539348 	-2.66696e-06 	-0.000349578 	0.223409
-0.00539348 	-2.66696e-06 	-0.000349578 	0.223409
-0.00531193 	-2.45983e-06 	-0.000366867 	0.225636
-0.00531193 	-2.45983e-06 	-0.000366867 	0.225636
-0.00522891 	-2.24297e-06 	-0.000383703 	0.227825
-0.00522891 	-2.24297e-06 	-0.000383703 	0.227825
-0.0051444 	-2.01645e-06 	-0.000399989 	0.229979
-0.0051444 	-2.01645e-06 	-0.000399989 	0.229979
-0.00505838 	-1.78031e-06 	-0.000415629 	0.232098
-0.00505838 	-1.78031e-06 	-0.000415629 	0.232098
-0.00497081 	-1.53448e-06 	-0.000430536 	0.234184
-0.00497081 	-1.53448e-06 	-0.000430536 	0.234184
-0.00488168 	-1.27885e-06 	-0.000444625 	0.236235
-0.00488168 	-1.27885e-06 	-0.000444625 	0.236235
-0.00479094 	-1.01312e-06 	-0.000457819 	0.238252
-0.00479094 	-1.01312e-06 	-0.000457819 	0.238252
-0.00469858 	-7.36784e-07 	-0.000470042 	0.240233
-0.00469858 	-7.36784e-07 	-0.000470042 	0.240233
-0.00460456 	-4.49043e-07 	-0.000481228 	0.242176
-0.00460456 	-4.49043e-07 	-0.000481228 	0.242176
-0.00450886 	-1.48907e-07 	-0.000491329 	0.24408
-0.00450886 	-1.48907e-07 	-0.000491329 	0.24408
-0.00441144 	1.64611e-07 	-0.000500327 	0.245943
-0.00441144 	1.64611e-07 	-0.000500327 	0.245943
-0.00431227 	4.92284e-07 	-0.000508237 	0.247763
-0.00431227 	4.92284e-07 	-0.000508237 	0.247763
-0.00421133 	8.34694e-07 	-0.000515104 	0.249539
-0.00421133 	8.34694e-07 	-0.000515104 	0.249539
-0.00410857 	1.19284e-06 	-0.000520996 	0.251268
-0.00410857 	1.19284e-06 	-0.000520996 	0.251268
-0.00400397 	1.56931e-06 	-0.000525995 	0.252948
-0.00400397 	1.56931e-06 	-0.000525995 	0.252948
-0.0038975 	1.96816e-06 	-0.000530199 	0.254578
-0.0038975 	1.96816e-06 	-0.000530199 	0.254578
-0.00378912 	2.39239e-06 	-0.000533694 	0.256161
-0.00378912 	2.39239e-06 	-0.000533694 	0.256161
-0.00367879 	2.84188e-06 	-0.000536557 	0.257699
-0.00367879 	2.84188e-06 	-0.000536557 	0.257699
-0.00356649 	3.3144e-06 	-0.000538846 	0.259193
-0.00356649 	3.3144e-06 	-0.000538846 	0.259193
-0.00345217 	3.80787e-06 	-0.000540617 	0.26064
-0.00345217 	3.80787e-06 	-0.000540617 	0.26064
-0.0033358 	4.32124e-06 	-0.000541929 	0.262039
-0.0033358 	4.32124e-06 	-0.000541929 	0.262039
-0.00321735 	4.85361e-06 	-0.000542846 	0.263386
-0.00321735 	4.85361e-06 	-0.000542846 	0.263386
-0.00309677 	5.40374e-06 	-0.000543438 	0.26468
-0.00309677 	5.40374e-06 	-0.000543438 	0.26468
-0.00297403 	5.97002e-06 	-0.000543777 	0.265919
-0.00297403 	5.97002e-06 	-0.000543777 	0.265919
-0.00284909 	6.55038e-06 	-0.000543937 	0.267099
-0.00284909 	6.55038e-06 	-0.000543937 	0.267099
-0.0027219 	7.14234e-06 	-0.000543991 	0.268218
-0.0027219 	7.14234e-06 	-0.000543991 	0.268218
-0.00259244 	7.74313e-06 	-0.000544016 	0.269273
-0.00259244 	7.74313e-06 	-0.000544016 	0.269273
-0.00246065 	8.3498e-06 	-0.000544078 	0.270263
-0.00246065 	8.3498e-06 	-0.000544078 	0.270263
-0.00232651 	8.95909e-06 	-0.000544237 	0.271185
-0.00232651 	8.95909e-06 	-0.000544237 	0.271185
-0.00218995 	9.56742e-06 	-0.000544545 	0.272037
-0.00218995 	9.56742e-06 	-0.000544545 	0.272037
-0.00205095 	1.01711e-05 	-0.000545037 	0.272817
-0.00205095 	1.01711e-05 	-0.000545037 	0.272817
-0.00190946 	1.07666e-05 	-0.000545738 	0.273524
-0.00190946 	1.07666e-05 	-0.000545738 	0.273524
-0.00176543 	1.13501e-05 	-0.000546655 	0.274157
-0.00176543 	1.13501e-05 	-0.000546655 	0.274157
-0.00161881 	1.19168e-05 	-0.000547776 	0.274715
-0.00161881 	1.19168e-05 	-0.000547776 	0.274715
-0.00146957 	1.24606e-05 	-0.000549073 	0.275198
-0.00146957 	1.24606e-05 	-0.000549073 	0.275198
-0.00131765 	1.29747e-05 	-0.000550502 	0.275607
-0.00131765 	1.29747e-05 	-0.000550502 	0.275607
-0.001163 	1.34516e-05 	-0.000552012 	0.275941
-0.001163 	1.34516e-05 	-0.000552012 	0.275941
-0.00100559 	1.38834e-05 	-0.000553547 	0.2762
-0.00100559 	1.38834e-05 	-0.000553547 	0.2762
-0.000845345 	1.42605e-05 	-0.000554973 	0.276383
-0.000845345 	1.42605e-05 	-0.000554973 	0.276383
-0.000682232 	1.45727e-05 	-0.000556295 	0.27649
-0.000682232 	1.45727e-05 	-0.000556295 	0.27649
-0.000516194 	1.4808e-05 	-0.000557549 	0.276518
-0.000516194 	1.4808e-05 	-0.000557549 	0.276518
-0.000347178 	1.49533e-05 	-0.000558553 	0.276466
-0.000347178 	1.49533e-05 	-0.000558553 	0.276466
-0.000175132 	1.49885e-05 	-0.000559487 	0.276331
-0.000175132 	1.49885e-05 	-0.000559487 	0.276331
0 	1.48911e-05 	-0.000560155 	0.27611
0 	1.48911e-05 	-0.000560155 	0.27611
0 	1.48911e-05 	-0.000560155 	0.27611
0 	1.48911e-05 	-0.000560155 	0.27611
0.000175132 	1.46588e-05 	-0.000560253 	0.275805
0.000175132 	1.72973e-05 	-0.000460426 	0.272549
0.000347178 	1.43043e-05 	-0.000560005 	0.275424
0.000347178 	1.86581e-05 	-0.000462329 	0.272233
0.000516194 	1.38522e-05 	-0.000559199 	0.274971
0.000516194 	1.98425e-05 	-0.000463547 	0.271839
0.000682232 	1.33273e-05 	-0.00055788 	0.274451
0.000682232 	2.08691e-05 	-0.00046412 	0.271372
0.000845345 	1.27437e-05 	-0.000556264 	0.273866
0.000845345 	2.17526e-05 	-0.000464545 	0.270834
0.00100559 	1.21143e-05 	-0.000554266 	0.273219
0.00100559 	2.25105e-05 	-0.000464578 	0.270231
0.001163 	1.14506e-05 	-0.000551905 	0.272514
0.001163 	2.3159e-05 	-0.000464228 	0.269566
0.00131765 	1.07631e-05 	-0.0005492 	0.271752
0.00131765 	2.37129e-05 	-0.000463505 	0.268841
0.00146957 	1.00605e-05 	-0.000546165 	0.270936
0.00146957 	2.41852e-05 	-0.000462412 	0.268059
0.00161881 	9.35055e-06 	-0.000542815 	0.270067
0.00161881 	2.45873e-05 	-0.000460958 	0.267222
0.00176543 	8.63957e-06 	-0.000539163 	0.269147
0.00176543 	2.49289e-05 	-0.000459155 	0.266332
0.00190946 	7.93301e-06 	-0.000535222 	0.268178
0.00190946 	2.52186e-05 	-0.000457008 	0.265391
0.00205095 	7.23529e-06 	-0.000531 	0.267161
0.00205095 	2.54635e-05 	-0.000454527 	0.264401
0.00218995 	6.55001e-06 	-0.000526505 	0.266097
0.00218995 	2.56696e-05 	-0.000451714 	0.263362
0.00232651 	5.88007e-06 	-0.000521741 	0.264987
0.00232651 	2.58421e-05 	-0.000448574 	0.262276
0.00246065 	5.22774e-06 	-0.000516713 	0.263831
0.00246065 	2.5985e-05 	-0.000445107 	0.261143
0.00259244 	4.59488e-06 	-0.00051142 	0.262631
0.00259244 	2.61014e-05 	-0.000441313 	0.259964
0.0027219 	3.98294e-06 	-0.000505862 	0.261386
0.0027219 	2.61937e-05 	-0.000437187 	0.258741
0.00284909 	3.39301e-06 	-0.000500037 	0.260097
0.00284909 	2.62636e-05 	-0.000432725 	0.257472
0.00297403 	2.8259e-06 	-0.00049394 	0.258764
0.00297403 	2.63119e-05 	-0.000427918 	0.25616
0.00309677 	2.28219e-06 	-0.000487567 	0.257387
0.00309677 	2.63393e-05 	-0.000422757 	0.254802
0.00321735 	1.76222e-06 	-0.00048091 	0.255965
0.00321735 	2.63459e-05 	-0.00041723 	0.253401
0.0033358 	1.26615e-06 	-0.000473963 	0.254499
0.0033358 	2.63314e-05 	-0.000411328 	0.251954
0.00345217 	2.62954e-05 	-0.000405043 	0.250461
0.00345217 	7.93988e-07 	-0.000466721 	0.252988
0.00356649 	3.45627e-07 	-0.00045918 	0.25143
0.00356649 	2.62376e-05 	-0.000398383 	0.248921
0.00367879 	-7.90454e-08 	-0.000451331 	0.249825
0.00367879 	2.6159e-05 	-0.000391348 	0.247335
0.00378912 	-4.80054e-07 	-0.000443159 	0.248172
0.00378912 	2.60607e-05 	-0.000383929 	0.245702
0.0038975 	-8.57448e-07 	-0.000434644 	0.24647
0.0038975 	2.59421e-05 	-0.00037611 	0.244021
0.00400397 	-1.21143e-06 	-0.000425743 	0.244714
0.00400397 	2.58005e-05 	-0.000367822 	0.242288
0.00410857 	2.56345e-05 	-0.000358962 	0.240489
0.00410857 	-1.54181e-06 	-0.000416393 	0.242899
0.00421133 	-1.84806e-06 	-0.000406521 	0.241019
0.00421133 	2.5443e-05 	-0.000349437 	0.238613
0.00431227 	-2.13049e-06 	-0.000396048 	0.239067
0.00431227 	2.52234e-05 	-0.00033918 	0.236654
0.00441144 	-2.39068e-06 	-0.000384907 	0.237037
0.00441144 	2.49713e-05 	-0.000328148 	0.234607
0.00450886 	-2.63079e-06 	-0.000373068 	0.234921
0.00450886 	2.46821e-05 	-0.000316345 	0.232469
0.00460456 	-2.85273e-06 	-0.00036053 	0.232715
0.00460456 	2.43514e-05 	-0.000303808 	0.230235
0.00469858 	-3.05774e-06 	-0.000347309 	0.230414
0.00469858 	2.39748e-05 	-0.000290586 	0.227901
0.00479094 	-3.24674e-06 	-0.00033343 	0.228013
0.00479094 	2.35481e-05 	-0.000276734 	0.225464
0.00488168 	-3.42058e-06 	-0.000318924 	0.225508
0.00488168 	2.30671e-05 	-0.000262311 	0.222919
0.00497081 	-3.58008e-06 	-0.000303831 	0.222893
0.00497081 	2.25278e-05 	-0.00024738 	0.220261
0.00505838 	-3.72606e-06 	-0.000288201 	0.220165
0.00505838 	2.19264e-05 	-0.000232019 	0.217488
0.0051444 	-3.8593e-06 	-0.000272102 	0.217321
0.0051444 	2.12596e-05 	-0.000216313 	0.214595
0.00522891 	-3.98045e-06 	-0.000255615 	0.214355
0.00522891 	2.05246e-05 	-0.000200367 	0.21158
0.00531193 	-4.09011e-06 	-0.000238837 	0.211266
0.00531193 	1.97196e-05 	-0.000184297 	0.208441
0.00539348 	-4.18871e-06 	-0.000221882 	0.20805
0.00539348 	1.88435e-05 	-0.000168236 	0.205174
0.0054736 	-4.27657e-06 	-0.000204874 	0.204704
0.0054736 	1.78963e-05 	-0.000152326 	0.20178
0.00555231 	-4.35389e-06 	-0.000187945 	0.201223
0.00555231 	1.68787e-05 	-0.000136711 	0.198254
0.00562963 	-4.42076e-06 	-0.00017123 	0.197606
0.00562963 	1.57921e-05 	-0.000121533 	0.194596
0.00570559 	-4.47717e-06 	-0.000154862 	0.193847
0.00570559 	1.4639e-05 	-0.000106924 	0.190801
0.00578022 	-4.523e-06 	-0.000138965 	0.189941
0.00578022 	1.34221e-05 	-9.30061e-05 	0.186867
0.00585352 	-4.55804e-06 	-0.000123658 	0.185882
0.00585352 	1.21455e-05 	-7.98814e-05 	0.182789
0.00592554 	-4.58197e-06 	-0.000109042 	0.181665
0.00592554 	1.08136e-05 	-6.76345e-05 	0.178561
0.00599629 	-4.59432e-06 	-9.52083e-05 	0.177281
0.00599629 	9.43183e-06 	-5.6329e-05 	0.174176
0.00606579 	-4.59435e-06 	-8.223e-05 	0.172722
0.00606579 	8.00672e-06 	-4.60086e-05 	0.169626
0.00613406 	-4.58103e-06 	-7.01701e-05 	0.167976
0.00613406 	6.54539e-06 	-3.66978e-05 	0.164898
0.00620114 	5.05555e-06 	-2.84046e-05 	0.159977
0.00620114 	-4.55341e-06 	-5.90775e-05 	0.163027
0.00626703 	-4.51087e-06 	-4.89888e-05 	0.157858
0.00626703 	3.54612e-06 	-2.11266e-05 	0.154846
0.00633176 	2.02834e-06 	-1.48519e-05 	0.149488
0.00633176 	-4.45316e-06 	-3.99338e-05 	0.152452
0.00639535 	5.1583e-07 	-9.55203e-06 	0.143889
0.00639535 	-4.37985e-06 	-3.19247e-05 	0.146794
0.00645783 	-4.29016e-06 	-2.49528e-05 	0.140867
0.00645783 	-9.75563e-07 	-5.18128e-06 	0.138031
0.0065192 	-4.18325e-06 	-1.89932e-05 	0.134654
0.0065192 	-2.42759e-06 	-1.68144e-06 	0.131898
0.00657949 	-4.05831e-06 	-1.40076e-05 	0.128139
0.00657949 	-3.81929e-06 	1.01494e-06 	0.125471
0.00663871 	-3.914e-06 	-9.94438e-06 	0.121305
0.00663871 	-5.12664e-06 	2.98213e-06 	0.118734
0.0066969 	-3.74829e-06 	-6.72419e-06 	0.114133
0.0066969 	-6.32381e-06 	4.30596e-06 	0.111665
0.00675406 	-7.3853e-06 	5.0767e-06 	0.104229
0.00675406 	-3.5597e-06 	-4.25335e-06 	0.10659
0.00681021 	-8.28361e-06 	5.38321e-06 	0.0963998
0.00681021 	-3.34945e-06 	-2.43114e-06 	0.0986449
0.00686537 	-8.98684e-06 	5.3152e-06 	0.0881912
0.00686537 	-3.12272e-06 	-1.15988e-06 	0.090304
0.00691956 	-9.46256e-06 	4.96335e-06 	0.07967
0.00691956 	-2.88687e-06 	-3.51799e-07 	0.0816316
0.0069728 	-9.68377e-06 	4.41972e-06 	0.0709532
0.0069728 	-2.64887e-06 	9.17449e-08 	0.0727449
0.0070251 	-2.41461e-06 	2.73351e-07 	0.063812
0.0070251 	-9.63542e-06 	3.77141e-06 	0.062206
0.00707647 	-2.18787e-06 	2.90549e-07 	0.0550336
0.00707647 	-9.32e-06 	3.09407e-06 	0.0536225
0.00712695 	-1.96903e-06 	2.26866e-07 	0.0466077
0.00712695 	-8.75835e-06 	2.44708e-06 	0.0453919
0.00717653 	-1.75477e-06 	1.43246e-07 	0.0386911
0.00717653 	-7.98476e-06 	1.86957e-06 	0.0376637
0.00722524 	-1.53836e-06 	7.57378e-08 	0.031377
0.00722524 	-7.03841e-06 	1.38156e-06 	0.0305263
0.00727309 	-5.95513e-06 	9.87537e-07 	0.0240108
0.00727309 	-1.30874e-06 	3.83826e-08 	0.0246981
0.0073201 	-4.76131e-06 	6.76703e-07 	0.0181095
0.0073201 	-1.04543e-06 	2.76197e-08 	0.0186456
0.00736628 	-3.46789e-06 	4.44115e-07 	0.0127942
0.00736628 	-7.05777e-07 	3.86003e-08 	0.0131902
0.00741165 	-3.00333e-07 	3.62547e-08 	0.00829393
0.00741165 	-2.14627e-06 	2.49634e-07 	0.00802788
0.00745622 	-1.11013e-10 	2.58356e-08 	0.00391628
0.00745622 	-9.64865e-07 	1.01431e-07 	0.00377093
0.0075 	0 	0 	0
0.0075 	0 	0 	0
