-0.0075 	373
-0.00715932 	361.304
-0.00676191 	359.48
-0.00629832 	358.748
-0.00575752 	358.294
-0.00512667 	357.935
-0.00439077 	357.613
-0.00353231 	357.299
-0.00253089 	356.976
-0.00136271 	356.627
0 	356.239
0.00136271 	355.815
0.00253089 	355.37
0.00353231 	354.912
0.00439077 	354.426
0.00512667 	353.873
0.00575752 	353.171
0.00629832 	352.133
0.00676191 	349.896
0.00715932 	338.593
0.0075 	313
