/*--------------------------------*- C++ -*----------------------------------*\
| =========                 |                                                 |
| \\      /  F ield         | OpenFOAM: The Open Source CFD Toolbox           |
|  \\    /   O peration     | Version:  v1906                                 |
|   \\  /    A nd           | Web:      www.OpenFOAM.com                      |
|    \\/     M anipulation  |                                                 |
\*---------------------------------------------------------------------------*/
FoamFile
{
    version     2.0;
    format      ascii;
    class       volScalarField;
    location    "99.2";
    object      nut;
}
// * * * * * * * * * * * * * * * * * * * * * * * * * * * * * * * * * * * * * //

dimensions      [0 2 -1 0 0 0 0];


internalField   nonuniform List<scalar> 
634
(
8.92898e-06
1.18253e-05
1.56816e-05
1.06844e-05
8.92609e-06
1.19532e-05
1.57325e-05
1.06737e-05
8.90253e-06
1.2051e-05
1.57582e-05
1.065e-05
8.86305e-06
1.21161e-05
1.57568e-05
1.06147e-05
8.82342e-06
1.21493e-05
1.57255e-05
1.05648e-05
8.78542e-06
1.21443e-05
1.56629e-05
1.0496e-05
8.75019e-06
1.21183e-05
1.55728e-05
1.04089e-05
8.71836e-06
1.20715e-05
1.54642e-05
1.03062e-05
8.69e-06
1.2007e-05
1.53409e-05
1.01911e-05
8.66468e-06
1.19257e-05
1.52033e-05
1.00665e-05
8.64164e-06
1.18283e-05
1.50513e-05
9.93466e-06
8.6199e-06
1.17162e-05
1.48844e-05
9.79516e-06
8.59841e-06
1.15905e-05
1.47046e-05
9.64352e-06
8.57605e-06
1.14526e-05
1.45131e-05
9.47899e-06
8.55102e-06
1.13039e-05
1.43091e-05
9.31186e-06
8.52071e-06
1.11347e-05
1.40894e-05
9.15481e-06
8.48256e-06
1.09463e-05
1.38513e-05
9.00745e-06
8.43436e-06
1.07406e-05
1.35954e-05
8.87102e-06
8.37413e-06
1.05197e-05
1.33224e-05
8.74758e-06
8.30006e-06
1.02863e-05
1.30329e-05
8.64217e-06
8.21061e-06
1.00436e-05
1.2728e-05
6.44078e-06
8.10469e-06
9.79614e-06
1.24087e-05
3.38958e-06
7.98159e-06
9.54911e-06
1.05793e-05
2.44678e-06
7.84099e-06
9.30988e-06
7.98517e-06
3.53232e-06
7.68624e-06
7.18303e-06
6.97834e-06
8.04534e-06
7.51751e-06
3.83067e-06
7.97065e-06
8.03019e-06
7.33482e-06
2.71068e-06
1.02746e-05
7.97265e-06
7.14148e-06
3.69352e-06
1.01552e-05
7.87706e-06
6.9407e-06
8.09583e-06
9.84079e-06
7.75018e-06
6.73427e-06
8.01038e-06
9.51495e-06
7.60009e-06
6.52427e-06
7.90379e-06
9.17128e-06
7.4321e-06
6.31223e-06
7.767e-06
8.81536e-06
7.25e-06
6.09972e-06
7.59688e-06
8.45193e-06
7.05792e-06
5.88854e-06
7.40069e-06
8.08454e-06
6.85783e-06
5.68014e-06
7.17963e-06
7.71593e-06
6.65135e-06
5.4757e-06
6.94012e-06
7.3484e-06
6.43989e-06
5.27615e-06
6.68552e-06
6.98379e-06
6.22379e-06
5.08224e-06
6.42122e-06
6.62294e-06
6.00351e-06
4.89453e-06
6.15154e-06
6.24843e-06
5.78068e-06
4.69849e-06
5.87906e-06
5.83456e-06
5.55686e-06
3.80824e-06
5.60493e-06
5.3331e-06
5.3335e-06
3.15757e-06
5.32909e-06
4.774e-06
5.11067e-06
3.10504e-06
5.05274e-06
4.27937e-06
4.88707e-06
3.5505e-06
4.77708e-06
3.93455e-06
4.66268e-06
3.84581e-06
4.50366e-06
3.70715e-06
4.43777e-06
3.70225e-06
4.20691e-06
3.51838e-06
4.19749e-06
3.56076e-06
3.90985e-06
3.31559e-06
3.9402e-06
3.40053e-06
3.60105e-06
3.08791e-06
3.68095e-06
3.09005e-06
3.24486e-06
2.85059e-06
3.40835e-06
2.84859e-06
2.83966e-06
2.6192e-06
3.11358e-06
2.67176e-06
2.46235e-06
2.39749e-06
2.81304e-06
2.53387e-06
2.20036e-06
2.17943e-06
2.54921e-06
2.40788e-06
2.05301e-06
1.9534e-06
2.34624e-06
2.27864e-06
1.94723e-06
1.74714e-06
2.18292e-06
2.14213e-06
1.82668e-06
1.56048e-06
2.0235e-06
1.99774e-06
1.68514e-06
1.38846e-06
1.85842e-06
1.84963e-06
1.53438e-06
1.22792e-06
1.69308e-06
1.70396e-06
1.38556e-06
1.07749e-06
1.53109e-06
1.56133e-06
1.24315e-06
9.36524e-07
1.37408e-06
1.42122e-06
1.10731e-06
8.04419e-07
1.22243e-06
1.28328e-06
9.77227e-07
6.80322e-07
1.07616e-06
1.14754e-06
8.52519e-07
5.6147e-07
9.35253e-07
1.01432e-06
7.33093e-07
4.39417e-07
7.9986e-07
8.84258e-07
6.18975e-07
3.31567e-07
6.70087e-07
7.58159e-07
5.10342e-07
2.39698e-07
5.46723e-07
6.36917e-07
3.98341e-07
1.64945e-07
4.22117e-07
5.21343e-07
2.89878e-07
1.07372e-07
3.01974e-07
4.12001e-07
1.98548e-07
6.5746e-08
2.01488e-07
2.9405e-07
1.26699e-07
3.7668e-08
1.23676e-07
1.92739e-07
7.46426e-08
2.00769e-08
6.89273e-08
1.1398e-07
4.02976e-08
9.87227e-09
3.44936e-08
5.95827e-08
1.98026e-08
4.42e-09
1.53364e-08
2.70436e-08
8.77408e-09
1.76359e-09
5.96629e-09
1.04847e-08
3.44471e-09
6.05476e-10
1.97351e-09
3.39225e-09
1.16036e-09
1.68622e-10
5.2568e-10
8.74075e-10
3.1665e-10
3.43265e-11
1.01888e-10
1.629e-10
6.3158e-11
4.23722e-12
1.20042e-11
1.81563e-11
7.74161e-12
3.29145e-13
9.94122e-13
1.11113e-12
7.42077e-13
1.71531e-13
5.89973e-13
4.54161e-13
4.91311e-13
2.46372e-06
7.31815e-06
7.87031e-06
4.25911e-06
2.47823e-06
7.16949e-06
7.91589e-06
4.61635e-06
2.55594e-06
7.02738e-06
7.97969e-06
4.95946e-06
2.69204e-06
6.89405e-06
8.06632e-06
5.284e-06
2.87823e-06
6.77122e-06
8.17311e-06
5.58831e-06
3.10432e-06
6.66189e-06
8.29421e-06
5.87171e-06
3.35946e-06
6.57034e-06
8.42546e-06
6.13356e-06
3.63306e-06
6.4992e-06
8.56295e-06
6.37004e-06
3.91532e-06
6.44924e-06
8.70266e-06
6.58046e-06
4.19752e-06
6.4196e-06
8.66552e-06
6.76419e-06
4.47219e-06
6.40793e-06
6.96433e-06
6.92023e-06
4.7331e-06
6.41142e-06
6.37858e-06
7.04878e-06
4.97415e-06
6.42861e-06
7.51917e-06
7.1505e-06
5.19095e-06
6.45467e-06
9.51219e-06
7.22501e-06
5.38174e-06
6.48255e-06
9.66531e-06
7.28139e-06
5.54834e-06
6.50842e-06
9.8006e-06
7.32125e-06
5.69112e-06
6.53032e-06
9.92727e-06
7.346e-06
5.80802e-06
6.54766e-06
1.00478e-05
7.3567e-06
5.89982e-06
6.56083e-06
1.01498e-05
7.35442e-06
5.96858e-06
6.57091e-06
1.02249e-05
7.34109e-06
6.01596e-06
6.57964e-06
1.02717e-05
7.31886e-06
6.04383e-06
6.58957e-06
1.02896e-05
7.28712e-06
6.05417e-06
6.60124e-06
1.02785e-05
7.24558e-06
6.04893e-06
6.61298e-06
1.02388e-05
7.19473e-06
6.02973e-06
6.62335e-06
1.01714e-05
7.13618e-06
5.99746e-06
6.63207e-06
1.00773e-05
7.07233e-06
5.9522e-06
6.63563e-06
9.95802e-06
7.00475e-06
5.89408e-06
6.63089e-06
9.81503e-06
6.93269e-06
5.82397e-06
6.61557e-06
9.65013e-06
6.85405e-06
5.74318e-06
6.58845e-06
9.46504e-06
6.76708e-06
5.65267e-06
6.54932e-06
9.26153e-06
6.67055e-06
5.55276e-06
6.49827e-06
9.04131e-06
6.56359e-06
5.44319e-06
6.43504e-06
8.79914e-06
6.44309e-06
5.32335e-06
6.35914e-06
8.52987e-06
6.3064e-06
5.19387e-06
6.26985e-06
8.25107e-06
6.15448e-06
5.05652e-06
6.16619e-06
7.9649e-06
5.98868e-06
4.91332e-06
6.04799e-06
7.67397e-06
5.81018e-06
4.7622e-06
5.91372e-06
7.37922e-06
5.62001e-06
4.6e-06
5.76453e-06
7.08035e-06
5.41931e-06
4.42843e-06
5.60168e-06
6.77571e-06
5.20922e-06
4.24909e-06
5.42636e-06
6.45496e-06
4.99091e-06
4.06345e-06
5.23946e-06
6.10909e-06
4.76559e-06
3.87288e-06
5.04235e-06
5.7495e-06
4.53446e-06
3.67865e-06
4.83641e-06
5.39703e-06
4.29882e-06
3.48186e-06
4.62303e-06
5.06225e-06
4.05996e-06
3.28355e-06
4.40348e-06
4.74514e-06
3.81919e-06
3.08469e-06
4.17899e-06
4.4421e-06
3.57783e-06
2.88618e-06
3.93944e-06
4.15008e-06
3.33721e-06
2.68891e-06
3.67842e-06
3.86718e-06
3.09864e-06
2.49368e-06
3.40834e-06
3.59233e-06
2.86337e-06
2.30126e-06
3.13913e-06
3.32526e-06
2.63256e-06
2.11234e-06
2.88082e-06
3.06619e-06
2.39143e-06
1.92756e-06
2.63421e-06
2.81531e-06
2.15026e-06
1.7475e-06
2.39468e-06
2.572e-06
1.91251e-06
1.5727e-06
2.16489e-06
2.33386e-06
1.68396e-06
1.40367e-06
1.94595e-06
2.10566e-06
1.47367e-06
1.24069e-06
1.73811e-06
1.88819e-06
1.28483e-06
1.07946e-06
1.54137e-06
1.68141e-06
1.11418e-06
9.26326e-07
1.35575e-06
1.48526e-06
9.58541e-07
7.86614e-07
1.18127e-06
1.29977e-06
8.16443e-07
6.59901e-07
1.01804e-06
1.1251e-06
6.8695e-07
5.40614e-07
8.66035e-07
9.61487e-07
5.69003e-07
4.28871e-07
7.25191e-07
8.09185e-07
4.60788e-07
3.29011e-07
5.94989e-07
6.67961e-07
3.53387e-07
2.42464e-07
4.73059e-07
5.35181e-07
2.60607e-07
1.70345e-07
3.50999e-07
4.00402e-07
1.83405e-07
1.13161e-07
2.46669e-07
2.83937e-07
1.22167e-07
7.04862e-08
1.62279e-07
1.88588e-07
7.63758e-08
4.08394e-08
9.87151e-08
1.15825e-07
4.44503e-08
2.1841e-08
5.48593e-08
6.49518e-08
2.38922e-08
1.06904e-08
2.75426e-08
3.28611e-08
1.17558e-08
4.73127e-09
1.23445e-08
1.48123e-08
5.2305e-09
1.85654e-09
4.85563e-09
5.84587e-09
2.06358e-09
6.24976e-10
1.62717e-09
1.96094e-09
6.98596e-10
1.70656e-10
4.40323e-10
5.29945e-10
1.91894e-10
3.43696e-11
8.73251e-11
1.04674e-10
3.8858e-11
4.56138e-12
1.08677e-11
1.28689e-11
5.12692e-12
7.94654e-13
1.22168e-12
1.35743e-12
8.16594e-13
6.62998e-13
8.32776e-13
9.33192e-13
6.54771e-13
)
;

boundaryField
{
    leftWall
    {
        type            nutUWallFunction;
        Cmu             0.09;
        kappa           0.41;
        E               9.8;
        value           nonuniform 0();
    }
    rightWall
    {
        type            nutUWallFunction;
        Cmu             0.09;
        kappa           0.41;
        E               9.8;
        value           uniform 0;
    }
    leftSides_periodic0
    {
        type            cyclic;
    }
    leftSides_periodic1
    {
        type            cyclic;
    }
    rightSides_periodic0
    {
        type            cyclic;
    }
    rightSides_periodic1
    {
        type            cyclic;
    }
    leftInOut_periodic0
    {
        type            cyclic;
    }
    leftInOut_periodic1
    {
        type            cyclic;
    }
    rightInOut_periodic0
    {
        type            cyclic;
    }
    rightInOut_periodic1
    {
        type            cyclic;
    }
    procBoundary1to0
    {
        type            processor;
        value           nonuniform List<scalar> 
11
(
8.91101e-06
1.16818e-05
1.55785e-05
1.06877e-05
1.06877e-05
7.84864e-06
3.90224e-06
2.51269e-06
7.47919e-06
7.84864e-06
3.90224e-06
)
;
    }
    procBoundary1to0throughleftInOut_periodic0
    {
        type            processorCyclic;
        value           uniform 1.55785e-05;
    }
    procBoundary1to2throughleftSides_periodic0
    {
        type            processorCyclic;
        value           nonuniform List<scalar> 2(9.12265e-06 2.6795e-06);
    }
    procBoundary1to2throughrightSides_periodic0
    {
        type            processorCyclic;
        value           nonuniform List<scalar> 2(2.38122e-06 4.20969e-06);
    }
    procBoundary1to3
    {
        type            processor;
        value           nonuniform List<scalar> 
316
(
1.42362e-05
8.56668e-06
5.1207e-06
5.49223e-06
1.42106e-05
8.59844e-06
5.14506e-06
4.29175e-06
1.4159e-05
8.61274e-06
5.15124e-06
6.40503e-06
1.40791e-05
8.60338e-06
5.14046e-06
1.14306e-05
1.39714e-05
8.57343e-06
5.11699e-06
1.15043e-05
1.38379e-05
8.53111e-06
5.08633e-06
1.14941e-05
1.36808e-05
8.49163e-06
5.05412e-06
1.14591e-05
1.35027e-05
8.4592e-06
5.02567e-06
1.14025e-05
1.33067e-05
8.43006e-06
5.00523e-06
1.13262e-05
1.30973e-05
8.41051e-06
4.99495e-06
1.12333e-05
1.2883e-05
8.40457e-06
4.99401e-06
1.11268e-05
1.26737e-05
3.61579e-06
5.00222e-06
1.10092e-05
1.24584e-05
3.05052e-06
5.01966e-06
1.08824e-05
7.23875e-06
4.6244e-06
4.46864e-06
1.07465e-05
4.86884e-06
7.91116e-06
4.24418e-06
1.06064e-05
4.84286e-06
8.83544e-06
5.08222e-06
1.04771e-05
6.52567e-06
8.84341e-06
5.08782e-06
1.03671e-05
9.36329e-06
8.83587e-06
5.08678e-06
1.02679e-05
1.17197e-05
8.81334e-06
5.08758e-06
6.32645e-06
1.18751e-05
8.77707e-06
5.09524e-06
4.42245e-06
1.17328e-05
8.72828e-06
5.1092e-06
4.77438e-06
1.15598e-05
8.66799e-06
5.12816e-06
6.78844e-06
1.13589e-05
8.55039e-06
5.15023e-06
9.21861e-06
1.11335e-05
8.4199e-06
5.17308e-06
1.00895e-05
1.08872e-05
8.31069e-06
5.19771e-06
1.00214e-05
1.0622e-05
8.28171e-06
5.22295e-06
9.93189e-06
1.03297e-05
8.24397e-06
5.24632e-06
9.82145e-06
8.25495e-06
8.12691e-06
5.26764e-06
9.69092e-06
6.50672e-06
7.99266e-06
5.28745e-06
9.54079e-06
5.92804e-06
6.0855e-06
5.3044e-06
8.97563e-06
6.41931e-06
4.91963e-06
5.31719e-06
8.27775e-06
7.46557e-06
5.05443e-06
5.32452e-06
8.03538e-06
8.17907e-06
6.04928e-06
5.32503e-06
8.21315e-06
8.24761e-06
6.95831e-06
5.31735e-06
8.36898e-06
7.95516e-06
7.13158e-06
5.30023e-06
8.30085e-06
7.65396e-06
6.96502e-06
5.27253e-06
8.07476e-06
7.34514e-06
6.78453e-06
5.23328e-06
7.83076e-06
7.03353e-06
6.59329e-06
5.18168e-06
7.579e-06
6.70627e-06
6.39232e-06
5.11722e-06
7.32028e-06
6.38108e-06
6.18018e-06
5.03982e-06
7.05518e-06
6.06804e-06
5.95921e-06
4.95003e-06
6.78458e-06
5.76864e-06
5.73512e-06
4.84898e-06
6.50969e-06
5.48037e-06
5.50829e-06
4.73795e-06
6.23144e-06
5.19867e-06
5.27657e-06
4.61779e-06
5.95059e-06
4.91529e-06
5.04077e-06
4.48887e-06
5.66774e-06
4.62781e-06
4.80286e-06
4.35142e-06
5.38343e-06
4.34319e-06
4.56335e-06
4.2057e-06
5.09812e-06
4.06101e-06
4.32266e-06
4.05201e-06
4.81222e-06
3.78131e-06
4.08114e-06
3.89073e-06
4.52652e-06
3.50435e-06
3.83915e-06
3.72213e-06
4.24144e-06
3.23057e-06
3.59706e-06
3.54673e-06
3.95732e-06
2.96048e-06
3.35549e-06
3.36512e-06
3.6746e-06
2.6947e-06
3.11496e-06
3.15856e-06
3.39403e-06
2.43402e-06
2.87603e-06
2.93642e-06
3.11441e-06
2.17942e-06
2.63931e-06
2.71237e-06
2.83611e-06
1.93203e-06
2.40548e-06
2.4924e-06
2.56036e-06
1.69314e-06
2.17529e-06
2.27636e-06
2.28876e-06
1.46419e-06
1.9488e-06
2.06645e-06
2.02326e-06
1.24659e-06
1.72663e-06
1.86276e-06
1.76586e-06
1.04208e-06
1.50987e-06
1.66532e-06
1.51866e-06
8.52649e-07
1.30038e-06
1.47432e-06
1.28377e-06
6.80283e-07
1.10083e-06
1.29027e-06
1.06335e-06
5.26868e-07
9.11392e-07
1.11388e-06
8.59376e-07
3.94033e-07
7.34688e-07
9.46089e-07
6.73847e-07
2.82888e-07
5.72721e-07
7.87981e-07
5.09175e-07
1.93724e-07
4.27841e-07
6.40778e-07
3.6774e-07
1.25709e-07
3.03079e-07
5.03054e-07
2.51404e-07
7.68e-08
2.01145e-07
3.63136e-07
1.60949e-07
4.38933e-08
1.23415e-07
2.42897e-07
9.54331e-08
2.33056e-08
6.90827e-08
1.47337e-07
5.18653e-08
1.13946e-08
3.48518e-08
7.91655e-08
2.55831e-08
5.06296e-09
1.56591e-08
3.68196e-08
1.13257e-08
2.00195e-09
6.1673e-09
1.45113e-08
4.42324e-09
6.80701e-10
2.06933e-09
4.72567e-09
1.47809e-09
1.87946e-10
5.60284e-10
1.21523e-09
3.99957e-10
3.81862e-11
1.10626e-10
2.24958e-10
7.93677e-11
4.94232e-12
1.34459e-11
2.51768e-11
9.83945e-12
6.47661e-13
1.30689e-12
1.97938e-12
1.05326e-12
4.72463e-13
7.80549e-13
1.16472e-12
6.88873e-13
)
;
    }
    procBoundary1to3throughrightSides_periodic0
    {
        type            processorCyclic;
        value           nonuniform List<scalar> 
314
(
2.14502e-06
1.90045e-06
1.65194e-06
1.40428e-06
1.16311e-06
9.34591e-07
7.25253e-07
5.41935e-07
3.92112e-07
2.84819e-07
2.32119e-07
2.48982e-07
3.47915e-07
5.30425e-07
7.79403e-07
1.0619e-06
1.34893e-06
1.6241e-06
1.88017e-06
2.11453e-06
2.32661e-06
2.51669e-06
2.68539e-06
2.83423e-06
2.96603e-06
3.08397e-06
3.19025e-06
3.28579e-06
3.37031e-06
3.44268e-06
3.50156e-06
3.48113e-06
3.42608e-06
3.37713e-06
3.33478e-06
3.29215e-06
3.24477e-06
3.19053e-06
3.12909e-06
3.06166e-06
2.98985e-06
2.91457e-06
2.83556e-06
2.75177e-06
2.66212e-06
2.5663e-06
2.46466e-06
2.35748e-06
2.24457e-06
2.12511e-06
1.99346e-06
1.84785e-06
1.7078e-06
1.57413e-06
1.44427e-06
1.31639e-06
1.18988e-06
1.06475e-06
9.41283e-07
8.19929e-07
7.00346e-07
5.69075e-07
4.41283e-07
3.26802e-07
2.29242e-07
1.51074e-07
9.28456e-08
5.28889e-08
2.77782e-08
1.33663e-08
5.8295e-09
2.26015e-09
7.52941e-10
2.03183e-10
3.99334e-11
4.63912e-12
2.04628e-13
7.35622e-15
4.11014e-06
4.01915e-06
3.93307e-06
3.85265e-06
3.78007e-06
3.71746e-06
3.66772e-06
3.63434e-06
3.6225e-06
3.63719e-06
3.6826e-06
3.76645e-06
3.88941e-06
4.04277e-06
4.21497e-06
4.39642e-06
4.57973e-06
4.75918e-06
4.9302e-06
5.0889e-06
5.00465e-06
4.98145e-06
5.11829e-06
5.34549e-06
5.55753e-06
5.71016e-06
5.79683e-06
5.8293e-06
5.82213e-06
5.78259e-06
5.71682e-06
5.64527e-06
5.59545e-06
5.54875e-06
5.44415e-06
5.26768e-06
5.06149e-06
4.86671e-06
4.69759e-06
4.54819e-06
4.40782e-06
4.26847e-06
4.12626e-06
3.98e-06
3.82965e-06
3.6754e-06
3.51733e-06
3.35546e-06
3.18993e-06
3.02128e-06
2.85044e-06
2.67825e-06
2.50457e-06
2.32649e-06
2.14207e-06
1.95829e-06
1.77668e-06
1.5977e-06
1.42181e-06
1.2498e-06
1.08284e-06
9.22346e-07
7.66014e-07
6.00505e-07
4.49711e-07
3.18239e-07
2.10248e-07
1.28045e-07
7.10345e-08
3.55174e-08
1.5832e-08
6.1906e-09
2.06167e-09
5.5347e-10
1.08084e-10
1.26373e-11
7.83025e-13
2.96756e-13
9.03603e-06
8.95194e-06
8.86975e-06
8.77769e-06
8.67961e-06
8.57848e-06
8.47745e-06
8.37963e-06
8.28774e-06
8.20412e-06
8.13128e-06
8.07111e-06
8.02486e-06
7.99316e-06
7.97601e-06
7.97236e-06
7.97998e-06
7.99845e-06
8.02673e-06
8.0612e-06
8.09874e-06
8.13636e-06
8.17139e-06
8.20162e-06
8.22159e-06
8.22805e-06
8.21898e-06
8.1927e-06
8.14807e-06
8.08437e-06
8.0013e-06
7.89891e-06
7.77765e-06
7.63688e-06
7.29138e-06
6.91482e-06
6.56383e-06
6.25496e-06
5.98239e-06
5.73744e-06
5.51704e-06
5.31982e-06
5.1384e-06
4.96005e-06
4.77539e-06
4.58168e-06
4.37983e-06
4.17173e-06
3.95934e-06
3.74441e-06
3.52825e-06
3.31164e-06
3.09501e-06
2.87861e-06
2.66203e-06
2.44262e-06
2.22523e-06
2.01133e-06
1.80181e-06
1.59761e-06
1.39983e-06
1.20974e-06
1.02866e-06
8.56751e-07
6.82694e-07
5.17195e-07
3.71611e-07
2.50128e-07
1.55566e-07
8.81749e-08
4.49634e-08
2.03695e-08
8.06339e-09
2.71e-09
7.32738e-10
1.44011e-10
1.70069e-11
1.14869e-12
5.0804e-13
2.46816e-06
2.30429e-06
2.2098e-06
2.18899e-06
2.23271e-06
2.31735e-06
2.42734e-06
2.55025e-06
2.67703e-06
2.80216e-06
2.9229e-06
3.0385e-06
3.1495e-06
3.25717e-06
3.36303e-06
3.46857e-06
3.57491e-06
3.68234e-06
3.79163e-06
3.90384e-06
3.91341e-06
3.82945e-06
3.8275e-06
3.87169e-06
3.91591e-06
3.96929e-06
4.07651e-06
4.22201e-06
4.35388e-06
4.44077e-06
4.47298e-06
4.46085e-06
4.4269e-06
4.39428e-06
4.3617e-06
4.29739e-06
4.18397e-06
4.04171e-06
3.8984e-06
3.76563e-06
3.64147e-06
3.52045e-06
3.39885e-06
3.27505e-06
3.14861e-06
3.01953e-06
2.88783e-06
2.75345e-06
2.61662e-06
2.47801e-06
2.33709e-06
2.18717e-06
2.03334e-06
1.8819e-06
1.73351e-06
1.58749e-06
1.4432e-06
1.30053e-06
1.1599e-06
1.02206e-06
8.87998e-07
7.49535e-07
6.04492e-07
4.70047e-07
3.49858e-07
2.47271e-07
1.64588e-07
1.0237e-07
5.90921e-08
3.14628e-08
1.53429e-08
6.77713e-09
2.65928e-09
8.96133e-10
2.44567e-10
4.86487e-11
5.77352e-12
3.28561e-13
9.47556e-14
)
;
    }
}


// ************************************************************************* //
