/*--------------------------------*- C++ -*----------------------------------*\
| =========                 |                                                 |
| \\      /  F ield         | OpenFOAM: The Open Source CFD Toolbox           |
|  \\    /   O peration     | Version:  v1906                                 |
|   \\  /    A nd           | Web:      www.OpenFOAM.com                      |
|    \\/     M anipulation  |                                                 |
\*---------------------------------------------------------------------------*/
FoamFile
{
    version     2.0;
    format      ascii;
    class       volScalarField;
    location    "99.2";
    object      p_rgh;
}
// * * * * * * * * * * * * * * * * * * * * * * * * * * * * * * * * * * * * * //

dimensions      [1 -1 -2 0 0 0 0];


internalField   nonuniform List<scalar> 
634
(
99748.6
99753.3
99742.3
99752.8
99747.4
99755.5
99737.8
99754.7
99746.1
99757.8
99733.2
99756.6
99744.8
99760.2
99728.4
99758.6
99743.4
99762.7
99723.5
99760.6
99742
99765.2
99718.4
99762.7
99740.6
99767.8
99713.3
99764.9
99739.1
99770.5
99708.1
99767.1
99737.6
99773.2
99702.8
99769.3
99736
99776.1
99697.5
99771.5
99734.4
99778.9
99692.1
99773.8
99732.7
99781.8
99686.7
99776.1
99731
99784.8
99681.2
99778.5
99729.3
99787.8
99675.7
99780.8
99727.5
99790.8
99670.2
99783.2
99725.7
99793.9
99664.7
99785.6
99723.8
99797
99659.2
99788
99721.9
99800.1
99653.7
99790.5
99720
99803.1
99648.2
99792.9
99718.1
99806.2
99642.7
99795.4
99716.1
99809.3
99637.2
99797.9
99714.1
99812.4
99631.6
99800
99712.1
99815.4
99626.3
99801.4
99710.1
99818.5
99621.7
99802.3
99708.2
99821.5
99618
99803.3
99706.2
99824.1
99614.9
99804.8
99704.3
99825.8
99611.9
99807
99702.3
99826.9
99608.2
99809.6
99700.5
99828
99604
99812.1
99698.6
99829.7
99599.5
99814.6
99696.8
99832.1
99595.1
99817
99695.1
99834.9
99590.9
99819.4
99693.4
99837.7
99587
99821.7
99691.7
99840.3
99583.1
99824
99690.1
99842.9
99579.5
99826.2
99688.5
99845.4
99576
99828.4
99686.9
99847.7
99572.6
99830.5
99685.4
99850
99569.4
99832.6
99683.9
99852.3
99566.3
99834.5
99682.5
99854.4
99563.4
99836.5
99681.2
99856.4
99560.7
99838.3
99680
99858.4
99558.1
99840.1
99679
99860.2
99555.8
99841.7
99678.1
99862
99553.7
99843.4
99677.2
99863.7
99551.8
99844.9
99676.2
99865.2
99550
99846.3
99675.1
99866.7
99548.4
99847.7
99674.1
99868.1
99546.8
99849
99673.1
99869.4
99545.3
99850.3
99672.2
99870.6
99543.9
99851.4
99671.4
99871.7
99542.6
99852.5
99670.6
99872.7
99541.4
99853.4
99669.9
99873.5
99540.4
99854.3
99669.2
99874.3
99539.4
99855.1
99668.6
99875.1
99538.5
99855.9
99668
99875.7
99537.7
99856.6
99667.4
99876.4
99537
99857.2
99666.9
99877
99536.3
99857.8
99666.4
99877.5
99535.8
99858.3
99666
99878
99535.2
99858.8
99665.6
99878.5
99534.8
99859.2
99665.3
99878.9
99534.4
99859.6
99665
99879.3
99534
99860
99664.7
99879.7
99533.7
99860.3
99664.4
99880
99533.5
99860.6
99664.2
99880.3
99533.3
99860.9
99664.1
99880.6
99533.2
99861.2
99664
99880.9
99533.1
99861.4
99663.9
99881.2
99533.1
99861.7
99663.8
99881.5
99533.1
99862
99663.8
99881.9
99533.2
99862.3
99663.9
99882.3
99533.2
99862.7
99664.1
99882.7
99533.3
99863.2
99664.4
99883.1
99533.4
99863.6
99664.8
99883.4
99533.5
99864
99665.2
99883.8
99533.6
99864.4
99665.6
99884.1
99533.7
99864.8
99666.1
99884.4
99533.8
99865.2
99666.5
99884.7
99534
99865.5
99666.9
99885
99542.7
99548.4
99551.7
99547.2
99542.8
99548.4
99551.9
99547.2
99542.9
99548.4
99552
99547.3
99543.1
99548.5
99552.2
99547.3
99543.2
99548.5
99552.4
99547.3
99543.4
99548.5
99552.6
99547.4
99543.6
99548.6
99552.8
99547.4
99543.8
99548.6
99553
99547.4
99544.1
99548.6
99553.2
99547.4
99544.3
99548.6
99553.4
99547.3
99544.6
99548.6
99553.7
99547.3
99544.9
99548.6
99553.9
99547.3
99545.2
99548.6
99554
99547.2
99545.5
99548.6
99554.2
99547.2
99545.9
99548.5
99554.5
99547.1
99546.3
99548.5
99554.8
99547
99546.6
99548.4
99555.1
99547
99547
99548.4
99555.4
99546.9
99547.4
99548.3
99555.7
99546.8
99547.9
99548.2
99556
99546.6
99548.3
99548.2
99556.4
99546.5
99548.7
99548.1
99556.7
99546.4
99549.2
99548
99557.1
99546.2
99549.6
99547.9
99557.5
99546.1
99550.1
99547.8
99557.8
99545.9
99550.5
99547.6
99558.2
99545.8
99551
99547.5
99558.6
99545.6
99551.4
99547.4
99559
99545.4
99551.9
99547.3
99559.3
99545.3
99552.4
99547.1
99559.7
99545.1
99552.8
99547
99560.1
99544.9
99553.3
99546.8
99560.5
99544.7
99553.7
99546.7
99560.8
99544.5
99554.2
99546.5
99561.2
99544.3
99554.6
99546.4
99561.5
99544.1
99555
99546.2
99561.9
99544
99555.4
99546
99562.2
99543.8
99555.8
99545.9
99562.5
99543.6
99556.2
99545.7
99562.9
99543.4
99556.6
99545.6
99563.2
99543.2
99557
99545.4
99563.5
99543.1
99557.3
99545.3
99563.7
99542.9
99557.7
99545.1
99564
99542.8
99558
99545
99564.3
99542.6
99558.3
99544.8
99564.5
99542.5
99558.6
99544.7
99564.8
99542.4
99558.9
99544.6
99565
99542.2
99559.2
99544.5
99565.2
99542.1
99559.4
99544.4
99565.4
99542
99559.7
99544.3
99565.6
99541.9
99559.9
99544.2
99565.7
99541.9
99560.1
99544.1
99565.9
99541.8
99560.3
99544.1
99566.1
99541.7
99560.5
99544
99566.2
99541.7
99560.7
99544
99566.4
99541.6
99560.8
99543.9
99566.5
99541.6
99561
99543.9
99566.6
99541.6
99561.2
99543.9
99566.8
99541.5
99561.3
99543.9
99566.9
99541.5
99561.5
99543.9
99567
99541.6
99561.6
99543.9
99567.2
99541.6
99561.8
99544
99567.3
99541.6
99561.9
99544
99567.4
99541.7
99562.1
99544.1
99567.6
99541.8
99562.4
99544.2
99567.7
99541.9
99562.6
99544.3
99567.9
99542.1
99563
99544.5
99568.1
99542.4
99563.4
99544.8
99568.4
99542.7
99564
99545.1
99568.8
99543.2
99564.7
99545.6
99569.3
99543.7
99565.5
99546.3
99569.9
99544.4
99566.4
99547.1
99570.6
99545.2
99567.3
99548
99571.5
99546
99568.2
99549
99572.4
99546.8
99569.1
99549.9
99573.3
99547.7
99570
99550.9
99574.2
99548.5
99570.9
99551.9
99575.1
99549.3
99571.8
99552.8
99576
99550.1
99572.6
99553.7
99576.8
99550.9
)
;

boundaryField
{
    leftWall
    {
        type            fixedFluxPressure;
        gradient        nonuniform 0();
        value           nonuniform 0();
    }
    rightWall
    {
        type            fixedFluxPressure;
        gradient        nonuniform List<scalar> 8(4251.07 19172.9 7470.26 20840.8 10219.7 19135.7 5428.03 17787.9);
        value           nonuniform List<scalar> 8(99534.1 99573.1 99865.7 99554.2 99667.2 99577.3 99885.1 99551.3);
    }
    leftSides_periodic0
    {
        type            cyclic;
    }
    leftSides_periodic1
    {
        type            cyclic;
    }
    rightSides_periodic0
    {
        type            cyclic;
    }
    rightSides_periodic1
    {
        type            cyclic;
    }
    leftInOut_periodic0
    {
        type            cyclic;
    }
    leftInOut_periodic1
    {
        type            cyclic;
    }
    rightInOut_periodic0
    {
        type            cyclic;
    }
    rightInOut_periodic1
    {
        type            cyclic;
    }
    procBoundary1to0
    {
        type            processor;
        value           nonuniform List<scalar> 
11
(
99749.8
99750.9
99746.6
99750.9
99750.9
99551.7
99547.2
99542.6
99548.4
99551.7
99547.2
)
;
    }
    procBoundary1to0throughleftInOut_periodic0
    {
        type            processorCyclic;
        value           uniform 99746.6;
    }
    procBoundary1to2throughleftSides_periodic0
    {
        type            processorCyclic;
        value           nonuniform List<scalar> 2(99818.8 99825.9);
    }
    procBoundary1to2throughrightSides_periodic0
    {
        type            processorCyclic;
        value           nonuniform List<scalar> 2(99821.7 99817.4);
    }
    procBoundary1to3
    {
        type            processor;
        value           nonuniform List<scalar> 
316
(
99638.6
99623.8
99627.9
99627.7
99637.4
99624.3
99627.8
99628
99636.1
99624.8
99627.7
99628.6
99634.8
99625.3
99627.6
99629.5
99633.4
99625.9
99627.4
99630.4
99631.9
99626.5
99627.3
99631.4
99630.5
99627.1
99627.1
99632.5
99628.9
99627.7
99626.9
99633.5
99627.4
99628.4
99626.7
99634.6
99625.8
99629.1
99626.5
99635.8
99624.1
99629.6
99626.2
99636.9
99622.5
99629.9
99625.9
99638.1
99621.2
99630.3
99625.6
99639.4
99620.3
99630.9
99625.3
99640.6
99619.7
99631.7
99625
99641.9
99619
99632.6
99624.6
99643.3
99617.9
99633.6
99624.2
99644.6
99616.3
99634.5
99623.8
99645.7
99614.4
99635.6
99623.3
99646.5
99612.5
99636.6
99622.9
99647.1
99610.5
99637.6
99622.4
99647.9
99608.5
99638.7
99621.9
99649
99606.5
99639.8
99621.3
99650.5
99604.4
99640.9
99620.8
99652.1
99602.4
99642.1
99620.2
99653.7
99600.3
99643.2
99619.6
99655.3
99598.5
99644.4
99619
99656.9
99597.1
99645.6
99618.3
99658.5
99595.9
99646.7
99617.7
99660.1
99594.8
99647.5
99617
99661.7
99593.5
99648.3
99616.3
99663.1
99591.9
99649.1
99615.6
99664.5
99590.1
99650.1
99614.9
99666
99588.4
99651.3
99614.2
99667.6
99586.7
99652.4
99613.5
99669.1
99585.1
99653.6
99612.7
99670.6
99583.5
99654.7
99612
99672.1
99582
99655.8
99611.3
99673.5
99580.5
99656.8
99610.5
99674.9
99579.2
99657.9
99609.8
99676.3
99577.9
99658.9
99609.1
99677.6
99576.6
99659.9
99608.3
99678.8
99575.4
99660.8
99607.6
99680.1
99574.3
99661.7
99607
99681.2
99573.2
99662.6
99606.3
99682.4
99572.2
99663.5
99605.6
99683.5
99571.2
99664.3
99605
99684.5
99570.3
99665
99604.4
99685.5
99569.5
99665.8
99603.8
99686.4
99568.7
99666.4
99603.2
99687.3
99568
99667.1
99602.7
99688.1
99567.3
99667.7
99602.2
99688.9
99566.7
99668.3
99601.7
99689.6
99566.1
99668.8
99601.3
99690.2
99565.6
99669.3
99600.9
99690.9
99565.2
99669.8
99600.5
99691.4
99564.8
99670.2
99600.1
99692
99564.5
99670.6
99599.8
99692.4
99564.2
99671
99599.6
99692.9
99564
99671.3
99599.3
99693.3
99563.8
99671.6
99599.1
99693.7
99563.7
99671.9
99599
99694
99563.6
99672.2
99598.8
99694.3
99563.6
99672.5
99598.8
99694.7
99563.7
99672.8
99598.7
99695
99563.9
99673.1
99598.7
99695.4
99564.2
99673.5
99598.7
99695.8
99564.6
99674
99598.9
99696.4
99565.3
99674.6
99599.1
99697.1
99566
99675.4
99599.5
99698.1
99567
99676.5
99600.2
99699.3
99568
99678
99601.3
99700.8
99569.1
99679.7
99602.9
99702.5
99570.3
99681.6
99605
99704.3
99571.5
99683.6
99607.4
99706
99572.7
99685.6
99609.9
99707.7
99574
99687.6
99612.4
99709.4
99575.2
99689.6
99614.8
99711
99576.4
99691.5
99617.3
99712.5
)
;
    }
    procBoundary1to3throughrightSides_periodic0
    {
        type            processorCyclic;
        value           nonuniform List<scalar> 
314
(
99821.7
99821.7
99821.7
99821.7
99821.7
99821.8
99821.8
99821.8
99821.9
99821.9
99821.9
99822
99822
99822
99822.1
99822.2
99822.2
99822.3
99822.3
99822.4
99822.5
99822.6
99822.6
99822.7
99822.8
99822.9
99823
99823.1
99823.2
99823.3
99823.4
99823.6
99823.7
99823.8
99823.9
99824
99824.1
99824.3
99824.4
99824.5
99824.6
99824.8
99824.9
99825
99825.2
99825.3
99825.4
99825.6
99825.7
99825.9
99826
99826.1
99826.3
99826.5
99826.6
99826.8
99827
99827.2
99827.4
99827.6
99827.9
99828.1
99828.5
99828.9
99829.4
99830
99830.9
99832
99833.4
99835.1
99837
99839
99841
99843.1
99845.1
99847.1
99849.1
99851.1
99817.5
99817.7
99817.9
99818
99818.2
99818.3
99818.5
99818.6
99818.8
99818.9
99819
99819.2
99819.3
99819.4
99819.6
99819.7
99819.8
99819.9
99820
99820.1
99820.3
99820.4
99820.4
99820.5
99820.6
99820.7
99820.8
99820.9
99821
99821.1
99821.1
99821.2
99821.3
99821.3
99821.4
99821.5
99821.5
99821.6
99821.7
99821.8
99821.8
99821.9
99822
99822
99822.1
99822.2
99822.3
99822.3
99822.4
99822.5
99822.6
99822.7
99822.8
99822.9
99823
99823.1
99823.3
99823.4
99823.6
99823.7
99823.9
99824.2
99824.4
99824.7
99825.1
99825.5
99826.1
99826.9
99828
99829.5
99831.3
99833.4
99835.7
99837.9
99840.2
99842.4
99844.6
99846.8
99818.7
99818.6
99818.5
99818.4
99818.3
99818.1
99818
99817.9
99817.8
99817.7
99817.6
99817.5
99817.4
99817.3
99817.2
99817.1
99817
99817
99816.9
99816.8
99816.7
99816.6
99816.5
99816.4
99816.3
99816.2
99816.1
99816
99815.9
99815.9
99815.8
99815.7
99815.6
99815.5
99815.5
99815.4
99815.4
99815.3
99815.3
99815.2
99815.2
99815.2
99815.2
99815.2
99815.2
99815.2
99815.2
99815.2
99815.2
99815.2
99815.3
99815.3
99815.4
99815.4
99815.5
99815.5
99815.6
99815.7
99815.8
99816
99816.1
99816.2
99816.4
99816.6
99816.9
99817.2
99817.6
99818.1
99818.8
99819.8
99821.1
99822.8
99824.8
99826.9
99829.1
99831.3
99833.4
99835.5
99837.5
99826
99826.2
99826.3
99826.4
99826.4
99826.5
99826.6
99826.7
99826.7
99826.8
99826.8
99826.9
99826.9
99827
99827
99827
99827.1
99827.1
99827.1
99827.2
99827.2
99827.2
99827.2
99827.3
99827.3
99827.3
99827.3
99827.3
99827.3
99827.3
99827.3
99827.3
99827.3
99827.3
99827.3
99827.3
99827.3
99827.3
99827.3
99827.3
99827.3
99827.3
99827.3
99827.3
99827.4
99827.4
99827.4
99827.5
99827.5
99827.6
99827.6
99827.7
99827.8
99827.9
99828
99828.1
99828.2
99828.3
99828.5
99828.7
99828.8
99829.1
99829.3
99829.6
99830
99830.5
99831.1
99831.9
99833
99834.3
99835.8
99837.6
99839.4
99841.2
99843.1
99844.9
99846.7
99848.5
99850.2
)
;
    }
}


// ************************************************************************* //
