/*--------------------------------*- C++ -*----------------------------------*\
| =========                 |                                                 |
| \\      /  F ield         | OpenFOAM: The Open Source CFD Toolbox           |
|  \\    /   O peration     | Version:  v1906                                 |
|   \\  /    A nd           | Web:      www.OpenFOAM.com                      |
|    \\/     M anipulation  |                                                 |
\*---------------------------------------------------------------------------*/
FoamFile
{
    version     2.0;
    format      ascii;
    class       volScalarField;
    location    "98.4";
    object      omega;
}
// * * * * * * * * * * * * * * * * * * * * * * * * * * * * * * * * * * * * * //

dimensions      [0 0 -1 0 0 0 0];


internalField   nonuniform List<scalar> 
630
(
156509
156509
156509
156509
26786.8
26085.3
26946.6
26137.8
9089.49
9038.44
9198.96
9087.71
4373.22
4350.66
4443
4431.14
2576.51
2529.49
2624.85
2624.59
1729.61
1664.83
1767.32
1764.9
1269.46
1197.04
1302.2
1296.93
991.57
918.717
1022.27
1015.47
809.045
740.111
839.084
831.947
680.75
617.896
710.562
703.867
585.55
529.506
615.071
609.268
511.806
462.476
540.775
536.153
452.702
409.625
480.835
477.61
404.112
366.631
431.041
429.36
363.403
330.781
388.717
388.658
328.807
300.268
352.134
353.73
299.104
273.886
320.092
323.365
273.413
250.853
291.738
296.711
251.065
230.634
266.443
273.148
231.535
212.829
243.754
252.206
214.385
197.108
223.386
233.518
199.21
183.195
205.181
216.784
185.745
170.856
189.001
201.751
173.768
159.89
174.689
188.202
163.094
150.118
162.053
175.969
153.566
141.386
150.9
164.891
145.051
133.561
141.064
154.877
137.429
126.534
132.378
145.865
130.612
120.215
124.578
137.775
124.532
114.452
117.555
130.513
119.116
109.179
111.208
124.021
114.307
104.342
105.45
118.202
110.055
99.8965
100.204
112.786
106.318
95.8022
95.4124
107.276
103.067
92.0138
91.0289
101.242
100.281
88.4937
87.0202
94.8658
97.9522
85.2082
83.357
88.8588
96.0793
82.126
80.0113
83.3971
94.6715
79.219
76.9556
78.374
93.7713
76.4635
74.1615
73.7495
93.2746
73.8583
71.6015
69.4621
92.7525
71.4343
69.2466
65.4646
90.5006
69.1728
67.071
61.7254
85.5221
66.9925
65.0569
58.2231
80.6421
64.895
63.196
54.9474
76.1121
62.8733
61.4846
51.8933
71.6964
60.9205
59.9157
49.0597
67.7828
59.0375
58.4716
46.4453
64.2866
57.2253
57.13
44.0473
61.1854
55.4857
55.8717
41.8645
58.4803
53.8201
54.6777
39.8923
56.1516
52.2304
53.5357
38.1265
54.1737
50.7192
52.4429
36.5632
52.5227
49.2899
51.3978
35.1983
51.1791
47.9465
50.3932
34.0274
50.1299
46.6924
49.416
33.045
49.3686
45.5287
48.4477
32.2455
48.8941
44.4547
47.465
31.625
48.7165
43.467
46.4441
31.1814
48.8147
42.5593
45.3715
30.915
49.1828
41.722
44.2611
30.83
49.7928
40.9429
43.1413
30.9283
50.6667
40.2095
42.0345
31.2202
51.4796
39.5166
40.9553
31.7158
49.8793
38.8727
39.9137
32.4342
46.341
38.2959
38.9135
33.3558
43.2162
37.8037
37.9519
34.4341
40.4979
37.4101
37.041
35.664
38.0871
37.1262
36.1752
37.0793
35.9654
36.9622
35.3322
38.7174
34.0344
36.9275
34.4924
40.6198
32.3394
37.0631
33.6722
42.8297
31.0518
37.383
32.9308
45.3985
30.1973
37.8754
32.3044
48.3841
29.742
38.5186
31.8132
51.8363
29.6664
39.3749
31.4744
55.6613
29.9443
40.6261
31.3035
54.9131
30.5697
40.9556
31.3086
50.6142
31.4931
39.7496
156508
156508
156508
156508
26955.6
26913.6
27023.7
26941.2
9148.56
9124.54
9206.5
9146.48
4347.59
4338.78
4398.21
4356.13
2503.43
2503.27
2551.37
2518.18
1634.08
1637.23
1681.1
1650.95
1167.28
1170.39
1213.36
1183.6
892.624
893.853
936.958
906.869
719.075
717.479
760.75
730.524
602.565
597.817
640.91
611.056
520.002
512.207
554.713
525.743
458.582
448.152
489.707
462.01
410.896
398.451
438.738
412.572
372.507
358.783
397.494
373.041
340.627
326.434
363.262
340.636
313.45
299.425
334.253
313.461
289.812
276.446
309.258
290.198
268.946
256.584
287.449
269.946
250.327
239.183
268.224
252.069
233.583
223.764
251.126
236.105
218.402
209.964
235.784
221.709
204.503
197.507
221.902
208.621
191.624
186.18
209.233
196.639
179.566
175.82
197.567
185.61
168.244
166.302
186.724
175.413
157.716
157.533
176.57
165.959
148.104
149.44
167.026
157.163
139.479
141.965
158.088
148.943
131.809
135.054
149.877
141.217
125.016
128.739
142.346
133.897
119.029
122.967
135.388
126.904
113.795
117.688
128.852
120.184
109.255
112.857
122.598
113.733
105.255
108.43
116.585
107.586
101.478
104.367
110.925
101.784
97.5092
100.63
105.793
96.3372
93.1636
97.1761
101.252
91.2187
88.7367
93.9626
97.2587
86.3975
84.5368
90.9378
93.7757
81.8462
80.6149
88.0416
90.747
77.5434
76.9867
85.1893
88.0523
73.4718
73.7011
82.284
85.4889
69.6166
70.8057
79.3413
82.8073
65.965
68.3074
76.4672
79.9434
62.5081
66.1809
73.6879
77.1734
59.2428
64.358
71.0232
74.7385
56.1712
62.6758
68.4871
72.6318
53.3168
60.9077
66.0882
70.7978
50.6779
58.9728
63.8272
69.1736
48.2039
57.0558
61.6929
67.6032
45.8441
55.3252
59.6631
65.8287
43.6136
53.8213
57.7139
63.7628
41.5511
52.5289
55.8382
61.7786
39.6693
51.4011
54.0653
60.1071
37.9748
50.3792
52.4548
58.7203
36.4511
49.4025
51.0504
57.5775
35.0955
48.4341
49.8502
56.6028
33.9103
47.4612
48.8474
55.6393
32.8802
46.4711
48.0529
54.2629
31.9936
45.4279
47.4575
51.9444
31.2387
44.2554
47.0176
49.288
30.6049
42.8623
46.6037
46.9528
30.0867
41.2723
45.9121
44.8936
29.6851
39.6035
44.77
42.9447
29.407
37.9471
43.5268
41.2209
29.2621
36.3677
42.4726
39.7171
29.2484
34.8983
41.6241
38.4445
29.3281
33.5354
40.9611
37.4156
29.5068
32.2668
40.4698
36.5595
29.7903
31.0862
40.1334
35.7229
30.183
29.9933
39.9354
34.7689
30.6834
28.9965
39.8056
33.7193
31.2834
28.1103
39.684
32.7194
31.9276
27.3515
39.4759
31.8001
32.6072
26.7368
39.0348
30.9447
33.3141
26.2863
38.3176
30.2156
34.023
26.0219
37.4147
29.6809
34.7102
25.9667
36.4107
29.3908
35.3953
26.1389
35.3655
29.3867
36.095
)
;

boundaryField
{
    leftWall
    {
        Cmu             0.09;
        kappa           0.41;
        E               9.8;
        beta1           0.075;
        blended         true;
        type            omegaWallFunction;
        value           nonuniform List<scalar> 8(156509 156508 156509 156508 156509 156508 156509 156508);
    }
    rightWall
    {
        Cmu             0.09;
        kappa           0.41;
        E               9.8;
        beta1           0.075;
        blended         true;
        type            omegaWallFunction;
        value           nonuniform 0();
    }
    leftSides_periodic0
    {
        type            cyclic;
    }
    leftSides_periodic1
    {
        type            cyclic;
    }
    rightSides_periodic0
    {
        type            cyclic;
    }
    rightSides_periodic1
    {
        type            cyclic;
    }
    leftInOut_periodic0
    {
        type            cyclic;
    }
    leftInOut_periodic1
    {
        type            cyclic;
    }
    rightInOut_periodic0
    {
        type            cyclic;
    }
    rightInOut_periodic1
    {
        type            cyclic;
    }
    procBoundary0to1
    {
        type            processor;
        value           nonuniform List<scalar> 
11
(
31.466
47.4735
32.6396
31.466
38.5796
31.466
47.4735
26.5699
34.2953
29.6607
36.732
)
;
    }
    procBoundary0to1throughleftInOut_periodic1
    {
        type            processorCyclic;
        value           uniform 47.4735;
    }
    procBoundary0to2
    {
        type            processor;
        value           nonuniform List<scalar> 
316
(
156509
156508
156509
156509
26936.3
26948.3
26974.5
27063
9159.26
9136.76
9188.68
9243.96
4389.08
4340.65
4414.68
4441.85
2566.7
2502.98
2593.93
2602.22
1709.7
1638.6
1740.47
1736.52
1248.08
1175.3
1282.1
1270.52
973.555
903.197
1009.69
993.765
796.808
731.588
833.864
815.908
675.14
616.59
712.212
693.747
586.5
535.228
623.065
604.972
518.835
474.802
554.499
537.386
465.097
427.97
499.505
483.815
420.934
390.225
453.86
439.82
383.628
358.699
414.952
402.644
351.441
331.693
381.107
370.513
323.219
308.016
351.209
342.254
298.178
286.872
324.491
317.063
275.763
267.717
300.414
294.374
255.573
250.168
278.599
273.776
237.285
233.938
258.777
254.948
220.615
218.794
240.745
237.626
205.315
204.533
224.303
221.58
191.211
190.994
209.188
206.637
178.265
178.106
195.056
192.736
166.53
165.938
181.553
179.976
156.026
154.668
168.479
168.559
146.674
144.447
155.937
158.621
138.351
135.299
144.282
150.028
130.942
127.139
133.809
142.367
124.349
119.876
124.521
134.918
118.492
113.427
116.218
126.877
113.323
107.729
108.737
118.097
108.807
102.778
101.996
109.406
104.924
98.5611
95.9287
101.583
101.675
95.0699
90.4763
94.6635
99.0212
92.3193
85.5915
88.398
96.7205
90.3497
81.2394
82.6458
93.9879
89.1468
77.4041
77.3671
89.8223
88.4037
74.1048
72.5233
84.9825
87.0234
71.3996
68.077
80.7466
83.0895
69.3776
63.994
77.1324
77.6442
68.1668
60.2457
73.864
72.9245
67.8457
56.8091
70.8647
68.998
68.1871
53.6655
68.1344
65.5255
68.1214
50.7975
65.6775
62.4116
64.9815
48.162
63.4961
59.6091
60.2118
45.7261
61.5939
57.0903
56.0659
43.4846
59.9778
54.8248
52.6601
41.4317
58.6604
52.7803
49.7667
39.5625
57.6648
50.9275
47.4925
37.8696
57.0105
49.2407
45.8207
36.3465
56.6448
47.6974
45.0077
34.9863
56.3172
46.2776
44.9995
33.7819
55.6094
44.9641
45.1435
32.7265
54.8375
43.7429
43.6426
31.8136
54.4571
42.6062
40.6298
31.0361
54.5315
41.5519
37.7774
30.3868
55.0068
40.5831
35.5546
29.8598
55.569
39.7068
33.6065
29.4494
54.0037
38.9325
31.9535
29.1643
50.6607
38.2758
30.5136
29.0017
48.1631
37.7555
29.2797
28.9617
46.0225
37.3887
28.2794
29.0441
43.8916
37.1973
27.4646
29.2543
41.8178
37.2117
26.8029
29.5958
39.8382
37.4679
26.2734
30.0706
37.9702
38.0232
25.8626
30.6811
36.2107
38.9181
25.556
31.4304
34.5421
40.1866
25.3384
32.3224
33.0369
41.8044
25.1975
33.3402
31.7714
43.7294
25.1213
34.4765
30.7542
46.2474
25.1087
35.7289
29.9963
46.2155
25.1561
37.1204
29.5088
43.1971
25.2606
38.6759
29.3018
40.8672
25.4271
40.4203
29.3826
38.9903
25.6628
42.3587
29.7583
37.2773
25.9736
44.7928
)
;
    }
    procBoundary0to2throughleftSides_periodic0
    {
        type            processorCyclic;
        value           nonuniform List<scalar> 
314
(
156509
25892.2
8922.16
4290.96
2501.43
1652.03
1191.08
915.775
738.559
617.083
529.153
462.435
409.759
366.8
330.808
299.991
273.202
249.695
228.958
210.622
194.403
180.123
167.524
156.377
146.49
137.705
129.891
122.939
116.728
111.141
106.095
101.524
97.3781
93.6119
90.1869
87.0665
84.2157
81.599
79.1776
76.9033
74.7115
72.5251
70.2699
67.9195
65.5225
63.1358
60.801
58.5493
56.4012
54.3726
52.4752
50.7161
49.0986
47.6245
46.2952
45.1106
44.0648
43.1473
42.3456
41.6433
41.018
40.436
39.839
39.1354
38.2167
37.0696
35.7868
34.4512
33.1226
31.8457
30.6566
29.5881
28.6712
27.9282
27.3733
27.0149
26.8581
26.9011
27.1423
156509
25358.5
8619.79
4184.14
2477.84
1661.78
1214.58
945.06
769.94
648.629
559.815
491.716
437.548
393.115
355.677
323.511
295.504
270.873
249.054
229.627
212.268
196.717
182.76
170.213
158.915
148.723
139.509
131.159
123.579
116.691
110.431
104.737
99.539
94.743
90.3036
86.1897
82.3733
78.8299
75.5388
72.4826
69.6472
67.0185
64.5801
62.3135
60.2025
58.234
56.3956
54.6703
53.0428
51.5051
50.0502
48.6723
47.3666
46.1289
44.9555
43.8432
42.7889
41.7895
40.8418
39.9422
39.0871
38.2722
37.4935
36.7467
36.0283
35.335
34.6643
34.015
33.3876
32.7869
32.2245
31.7227
31.3174
31.0578
30.9967
31.1015
31.2139
31.2596
31.2185
156509
27433.5
9395.04
4495.53
2621.75
1744.36
1273.23
992.582
810.653
684.086
590.751
518.652
460.859
413.105
372.681
337.832
307.371
280.477
256.574
235.277
216.32
199.436
184.384
170.939
158.893
148.067
138.319
129.521
121.559
114.332
107.755
101.75
96.252
91.2053
86.5612
82.2783
78.3202
74.6551
71.2553
68.0966
65.158
62.4214
59.8719
57.4969
55.2868
53.2342
51.331
49.566
47.9252
46.3951
44.9637
43.6217
42.3618
41.1791
40.0709
39.0365
38.0752
37.1844
36.3592
35.5955
34.8916
34.2335
33.6123
33.0221
32.4597
31.9259
31.4257
30.9453
30.4849
30.0609
29.6925
29.3789
29.089
28.8155
28.564
28.3429
28.1606
28.0256
156509
25781.5
8887.26
4290.51
2511.7
1665.3
1205.33
930.688
754.198
633.554
546.517
480.7
428.91
386.822
351.695
321.698
295.606
272.592
252.077
233.646
216.986
201.859
188.072
175.465
163.897
153.288
143.565
134.657
126.503
119.049
112.23
105.968
100.19
94.8168
89.7226
84.9092
80.3881
76.1523
72.1827
68.459
64.9644
61.6841
58.6044
55.7143
53.0043
50.4669
48.0957
45.8862
43.831
41.925
40.1669
38.5578
37.0973
35.7845
34.6183
33.5974
32.7203
31.9859
31.3923
30.9352
30.611
30.4007
30.2999
30.3031
30.4041
30.5958
30.8707
31.2231
31.6496
32.1485
32.7191
33.3588
34.0598
34.7937
35.5068
36.0904
36.339
36.2298
)
;
    }
}


// ************************************************************************* //
