/*--------------------------------*- C++ -*----------------------------------*\
| =========                 |                                                 |
| \\      /  F ield         | OpenFOAM: The Open Source CFD Toolbox           |
|  \\    /   O peration     | Version:  v1906                                 |
|   \\  /    A nd           | Web:      www.OpenFOAM.com                      |
|    \\/     M anipulation  |                                                 |
\*---------------------------------------------------------------------------*/
FoamFile
{
    version     2.0;
    format      ascii;
    class       surfaceScalarField;
    location    "98.4";
    object      phi;
}
// * * * * * * * * * * * * * * * * * * * * * * * * * * * * * * * * * * * * * //

dimensions      [1 0 -1 0 0 0 0];
oriented        oriented;


internalField   nonuniform List<scalar> 
1408
(
1.27033e-05
-1.68299e-05
-8.4757e-07
-8.14539e-06
2.06485e-05
-2.24962e-06
7.24851e-06
-1.80168e-05
-1.72292e-06
1.91202e-05
-2.81801e-06
1.91345e-05
-5.91851e-05
-5.86443e-06
-1.08344e-05
4.95045e-05
-7.35938e-06
8.78361e-06
-4.22415e-05
-7.78976e-06
4.47534e-05
-9.14351e-06
2.00522e-05
-0.000103501
-1.19774e-05
-1.13003e-05
7.86675e-05
-1.26936e-05
8.37029e-06
-6.75247e-05
-1.47284e-05
6.95523e-05
-1.57036e-05
2.05747e-05
-0.000148968
-1.81659e-05
-1.20193e-05
0.000108022
-1.80232e-05
7.94804e-06
-9.40622e-05
-2.16588e-05
9.32699e-05
-2.22268e-05
2.10774e-05
-0.000195683
-2.43103e-05
-1.25396e-05
0.000137463
-2.33715e-05
7.44427e-06
-0.00012159
-2.85032e-05
0.000116022
-2.87254e-05
2.14655e-05
-0.000243408
-3.05072e-05
-1.30421e-05
0.000166962
-2.87765e-05
7.00968e-06
-0.00015011
-3.53522e-05
0.000137922
-3.52313e-05
2.16533e-05
-0.000291744
-3.67639e-05
-1.35777e-05
0.000196453
-3.42385e-05
6.67704e-06
-0.000179683
-4.22199e-05
0.000159053
-4.17396e-05
2.16056e-05
-0.000340204
-4.30527e-05
-1.41445e-05
0.000225814
-3.97371e-05
6.43252e-06
-0.000210329
-4.90888e-05
0.000179429
-4.823e-05
2.13162e-05
-0.000388291
-4.93341e-05
-1.47218e-05
0.000254879
-4.52434e-05
6.24755e-06
-0.000242007
-5.59283e-05
0.000199001
-5.46776e-05
2.08071e-05
-0.000435565
-5.55687e-05
-1.5291e-05
0.000283467
-5.0726e-05
6.09912e-06
-0.000274637
-6.27033e-05
0.000217696
-6.10573e-05
2.01234e-05
-0.000481695
-6.17256e-05
-1.58436e-05
0.000311418
-5.61556e-05
5.97539e-06
-0.000308135
-6.93823e-05
0.000235463
-6.73468e-05
1.93191e-05
-0.000526461
-6.77872e-05
-1.63822e-05
0.000338625
-6.15095e-05
5.8703e-06
-0.000342429
-7.59443e-05
0.00025229
-7.35303e-05
1.84421e-05
-0.000569756
-7.37433e-05
-1.692e-05
0.000365039
-6.67752e-05
5.79194e-06
-0.000377482
-8.23802e-05
0.000268229
-7.96031e-05
1.74962e-05
-0.000611526
-7.95859e-05
-1.74611e-05
0.00039061
-7.19506e-05
5.74022e-06
-0.000413287
-8.86962e-05
0.000283368
-8.55757e-05
1.65801e-05
-0.000651836
-8.53201e-05
-1.79892e-05
0.000415368
-7.70409e-05
5.68732e-06
-0.000449801
-9.49042e-05
0.000297769
-9.14627e-05
1.57192e-05
-0.000690764
-9.09622e-05
-1.84875e-05
0.000439361
-8.20602e-05
5.61721e-06
-0.000486942
-0.000101019
0.000311477
-9.72806e-05
1.49311e-05
-0.000728392
-9.65261e-05
-1.89448e-05
0.000462649
-8.70227e-05
5.52802e-06
-0.000524612
-0.000107056
0.000324534
-0.000103044
1.42301e-05
-0.000764816
-0.000102021
-1.93506e-05
0.000485299
-9.19371e-05
5.41332e-06
-0.000562692
-0.000113029
0.00033698
-0.000108764
1.36249e-05
-0.000800148
-0.000107455
-1.96971e-05
0.000507377
-9.68118e-05
5.26577e-06
-0.000601045
-0.000118948
0.000348854
-0.000114447
1.31215e-05
-0.000834514
-0.000112834
-1.99796e-05
0.000528952
-0.000101657
5.07844e-06
-0.000639517
-0.00012482
0.000360191
-0.000120102
1.27195e-05
-0.000868047
-0.000118172
-2.01993e-05
0.000550094
-0.000106482
4.84877e-06
-0.000677952
-0.000130652
0.000371031
-0.000125739
1.2408e-05
-0.000900868
-0.000123486
-2.0367e-05
0.000570871
-0.000111298
4.58244e-06
-0.000716215
-0.000136444
0.000381413
-0.000131365
1.21751e-05
-0.000933076
-0.000128793
-2.05013e-05
0.000591355
-0.000116114
4.29165e-06
-0.000754206
-0.000142201
0.000391383
-0.000136991
1.2011e-05
-0.000964755
-0.000134104
-2.06234e-05
0.000611628
-0.000120941
3.9905e-06
-0.000791867
-0.000147933
0.000400988
-0.000142626
1.19071e-05
-0.000995979
-0.00013942
-2.07453e-05
0.000631775
-0.000125785
3.68395e-06
-0.000829165
-0.000153656
0.000410267
-0.000148274
1.18564e-05
-0.00102683
-0.000144727
-2.08621e-05
0.000651865
-0.000130656
3.36322e-06
-0.000866056
-0.000159388
0.000419241
-0.000153941
1.18538e-05
-0.00105742
-0.000150007
-2.09665e-05
0.000671951
-0.00013556
3.02525e-06
-0.000902488
-0.00016514
0.000427934
-0.000159625
1.18953e-05
-0.00108789
-0.000155263
-2.10561e-05
0.000692082
-0.000140504
2.6814e-06
-0.000938433
-0.000170912
0.000436398
-0.000165328
1.19586e-05
-0.00111834
-0.00016052
-2.11299e-05
0.00071228
-0.000145495
2.34835e-06
-0.000973892
-0.000176703
0.000444721
-0.00017106
1.20384e-05
-0.00114887
-0.000165806
-2.11868e-05
0.000732564
-0.000150539
2.01591e-06
-0.00100886
-0.00018252
0.000452991
-0.000176832
1.21466e-05
-0.00117965
-0.000171138
-2.12267e-05
0.000752965
-0.000155644
1.68058e-06
-0.0010433
-0.000188388
0.000461366
-0.000182637
1.22805e-05
-0.00121098
-0.00017651
-2.12494e-05
0.000773514
-0.000160814
1.44948e-06
-0.00107728
-0.000194343
0.000470222
-0.000188475
1.24388e-05
-0.00124312
-0.000181915
-2.12565e-05
0.000794241
-0.000166058
1.47233e-06
-0.00111097
-0.000200417
0.000480009
-0.000194418
1.26217e-05
-0.00127587
-0.000187395
-2.12511e-05
0.000815175
-0.000171381
1.71986e-06
-0.00114452
-0.00020661
0.000490705
-0.000200606
1.28306e-05
-0.00130832
-0.000193061
-2.12376e-05
0.000836354
-0.00017679
1.86276e-06
-0.00117782
-0.000212876
0.000501375
-0.000207085
1.30662e-05
-0.00133965
-0.000199003
-2.12188e-05
0.000857821
-0.00018229
1.68354e-06
-0.00121059
-0.000219151
0.00051104
-0.000213627
1.33252e-05
-0.0013699
-0.000205159
-2.11926e-05
0.000879619
-0.000187891
1.45616e-06
-0.00124288
-0.000225422
0.000519793
-0.000220021
1.36024e-05
-0.00139965
-0.00021134
-2.11534e-05
0.000901783
-0.000193599
1.33921e-06
-0.00127481
-0.000231724
0.000528219
-0.000226295
1.39612e-05
-0.00142949
-0.000217412
-2.10871e-05
0.000924405
-0.000199426
1.19234e-06
-0.00130636
-0.000238082
0.000536619
-0.000232555
1.47233e-05
-0.0014604
-0.000223327
-2.0975e-05
0.000947888
-0.000205379
9.75024e-07
-0.00133744
-0.000244506
0.000545313
-0.000238863
1.62876e-05
-0.0014942
-0.000229225
-2.08096e-05
0.000973032
-0.000211467
7.26108e-07
-0.00136794
-0.000251049
0.000554984
-0.000245238
1.83852e-05
-0.00153218
-0.000235643
-2.05971e-05
0.00100036
-0.000217683
4.39893e-07
-0.0013976
-0.000257847
0.000566121
-0.000251677
1.9454e-05
-0.00157217
-0.000243325
-2.03561e-05
0.00102882
-0.000224012
1.32228e-07
-0.00142609
-0.000265038
0.000577863
-0.000258179
1.84866e-05
-0.00160979
-0.000251824
-2.01104e-05
0.00105638
-0.000230442
-1.73193e-07
-0.00145319
-0.000272546
0.000588364
-0.000264741
1.73929e-05
-0.00164465
-0.000259674
-1.98668e-05
0.00108287
-0.00023697
-4.72433e-07
-0.00147895
-0.000280101
0.000597403
-0.000271361
1.72556e-05
-0.00167877
-0.000266842
-1.96198e-05
0.00110925
-0.000243594
-7.7491e-07
-0.00150357
-0.000287555
0.000605743
-0.000278033
1.76e-05
-0.00171299
-0.000273831
-1.93658e-05
0.00113596
-0.000250317
-1.08569e-06
-0.00152721
-0.00029495
0.000613739
-0.000284749
1.79648e-05
-0.00174704
-0.000281059
-1.91014e-05
0.00116301
-0.00025714
-1.40751e-06
-0.00154994
-0.000302372
0.00062136
-0.000291513
1.83116e-05
-0.00178066
-0.000288551
-1.88333e-05
0.00119036
-0.000264069
-1.73183e-06
-0.00157175
-0.000309929
0.00062857
-0.000298343
1.86308e-05
-0.00181379
-0.000296062
-1.85706e-05
0.00121798
-0.000271112
-2.04876e-06
-0.00159245
-0.000317832
0.000635369
-0.000305277
1.89208e-05
-0.00184649
-0.00030352
-1.83176e-05
0.00124585
-0.000278287
-2.35436e-06
-0.00161164
-0.000326302
0.000641793
-0.000312346
1.91776e-05
-0.00187867
-0.000311021
-1.80754e-05
0.00127398
-0.000285608
-2.64793e-06
-0.00162906
-0.000335198
0.000647859
-0.000319529
1.93968e-05
-0.00191019
-0.000318636
-1.78432e-05
0.00130236
-0.000293079
-2.93043e-06
-0.00164492
-0.000344038
0.000653488
-0.00032673
1.95755e-05
-0.0019409
-0.000326372
-1.76185e-05
0.00133096
-0.000300674
-3.20322e-06
-0.00165957
-0.000352687
0.000658508
-0.000333854
1.97124e-05
-0.00197064
-0.000334245
-1.7397e-05
0.00135966
-0.000308341
-3.46827e-06
-0.00167322
-0.000361286
0.000662763
-0.000340914
1.98072e-05
-0.00199921
-0.00034228
-1.71721e-05
0.00138835
-0.000316047
-3.72798e-06
-0.00168594
-0.000369933
0.000666171
-0.000347984
1.98606e-05
-0.00202647
-0.00035048
-1.69352e-05
0.00141688
-0.000323819
-3.98524e-06
-0.00169777
-0.000378692
0.000668698
-0.000355105
1.98734e-05
-0.0020523
-0.000358822
-1.66749e-05
0.00144515
-0.0003317
-4.24348e-06
-0.0017085
-0.000387794
0.000670324
-0.000362291
1.98472e-05
-0.00207666
-0.000367272
-1.63771e-05
0.00147305
-0.000339676
-4.50687e-06
-0.00171745
-0.000397727
0.000671038
-0.000369541
1.97775e-05
-0.0020995
-0.000375838
-1.60257e-05
0.00150041
-0.000347741
-4.77961e-06
-0.00172362
-0.000408773
0.000670829
-0.000376857
1.96626e-05
-0.00212082
-0.000384441
-1.55956e-05
0.00152716
-0.000356032
-5.07288e-06
-0.0017267
-0.00042018
0.000669705
-0.000384239
1.99478e-05
-0.0021416
-0.000392748
-1.50539e-05
0.00155399
-0.000364862
-5.40433e-06
-0.00172739
-0.000430895
0.000668002
-0.000391693
2.12314e-05
-0.00216439
-0.000400837
-1.43829e-05
0.00158238
-0.000374473
-5.7763e-06
-0.00172627
-0.000441015
0.000666518
-0.000399219
2.26594e-05
-0.00219046
-0.000410344
-1.35775e-05
0.00161265
-0.000384554
-6.17867e-06
-0.00172345
-0.000450977
0.000665801
-0.000406822
2.1441e-05
-0.00221514
-0.000423272
-1.2645e-05
0.00164172
-0.000394463
-6.58945e-06
-0.00171889
-0.000461005
0.000664741
-0.00041451
1.95746e-05
-0.00223657
-0.000435508
-1.1581e-05
0.0016683
-0.000404019
-6.99853e-06
-0.00171248
-0.000471136
0.000662329
-0.000422291
1.88443e-05
-0.00225655
-0.000446039
-1.03671e-05
0.00169312
-0.000413434
-7.41187e-06
-0.00170412
-0.000481361
0.000658799
-0.000430175
1.84358e-05
-0.00227566
-0.000455615
-9.00091e-06
0.00171629
-0.00042292
-7.81659e-06
-0.0016938
-0.00049159
0.000654424
-0.000438173
1.82506e-05
-0.00229403
-0.000464904
-7.49321e-06
0.00173793
-0.000432556
-8.18021e-06
-0.00168159
-0.0005018
0.000649311
-0.000446295
1.81425e-05
-0.00231162
-0.000474237
-5.85756e-06
0.00175806
-0.000442363
-8.51512e-06
-0.00166714
-0.000512375
0.000643525
-0.000454556
1.80684e-05
-0.00232836
-0.00048365
-4.10943e-06
0.0017767
-0.000452355
-8.80951e-06
-0.00164951
-0.000523965
0.000637171
-0.000462982
1.80172e-05
-0.00234419
-0.000493125
-2.08075e-06
0.00179373
-0.000462548
-9.06059e-06
-0.00162811
-0.000536013
0.000630383
-0.000471586
1.79925e-05
-0.00235906
-0.00050264
-4.97546e-08
0.0018094
-0.000472982
-9.26869e-06
-0.00160353
-0.000547567
0.000623303
-0.000480279
1.79755e-05
-0.00237285
-0.000512176
1.89336e-06
0.00182412
-0.000483655
-9.36904e-06
-0.00157652
-0.000558645
0.000616118
-0.000488504
1.79941e-05
-0.00238542
-0.000521717
3.61312e-06
0.00183834
-0.000494303
-9.34327e-06
-0.00154767
-0.0005695
0.000608921
-0.000495097
1.82379e-05
-0.00239688
-0.000531253
5.25512e-06
0.00185196
-0.000504872
-9.44826e-06
-0.00151707
-0.000580238
0.000601179
-0.000498288
1.90552e-05
-0.00240774
-0.000540773
7.3691e-06
0.00186457
-0.000517002
-9.62404e-06
-0.00148431
-0.000590853
0.000592533
-0.000498406
2.01792e-05
-0.00241917
-0.00055028
1.01728e-05
0.00187653
-0.000532979
-9.45565e-06
-0.000601329
-0.000504419
2.0688e-05
-0.000559858
-0.000547819
-5.70951e-07
3.20103e-06
1.27735e-06
-1.93563e-06
-1.2472e-06
4.05807e-06
-1.85736e-06
-3.70011e-07
6.00128e-06
2.04821e-06
-5.39159e-06
-2.14634e-06
9.54235e-06
-5.63759e-06
4.61971e-08
7.1921e-06
2.26584e-06
-9.78497e-06
-2.48515e-06
1.45543e-05
-1.09006e-05
4.07776e-07
7.1174e-06
2.43006e-06
-1.4822e-05
-2.76543e-06
1.92685e-05
-1.73292e-05
7.77036e-07
5.99382e-06
2.6205e-06
-2.02402e-05
-3.04942e-06
2.40343e-05
-2.46114e-05
1.14247e-06
3.9375e-06
2.81743e-06
-2.58966e-05
-3.31537e-06
2.9002e-05
-3.25753e-05
1.49869e-06
1.04583e-06
3.00549e-06
-3.16903e-05
-3.55254e-06
3.42269e-05
-4.11224e-05
1.84257e-06
-2.59737e-06
3.17585e-06
-3.75394e-05
-3.75463e-06
3.97065e-05
-5.0179e-05
2.17174e-06
-6.91024e-06
3.32248e-06
-4.33726e-05
-3.91769e-06
4.53996e-05
-5.96827e-05
2.47906e-06
-1.18033e-05
3.44197e-06
-4.9131e-05
-4.04004e-06
5.12462e-05
-6.95771e-05
2.76816e-06
-1.71904e-05
3.53392e-06
-5.4758e-05
-4.12254e-06
5.7186e-05
-7.98092e-05
3.03669e-06
-2.29855e-05
3.60043e-06
-6.02044e-05
-4.16816e-06
6.31778e-05
-9.03293e-05
3.28276e-06
-2.91055e-05
3.64484e-06
-6.54261e-05
-4.18091e-06
6.92048e-05
-0.000101075
3.50495e-06
-3.54488e-05
3.67166e-06
-7.03786e-05
-4.16567e-06
7.52668e-05
-0.000111987
3.70122e-06
-4.19044e-05
3.68603e-06
-7.5021e-05
-4.12748e-06
8.13694e-05
-0.000123029
3.87115e-06
-4.83779e-05
3.69014e-06
-7.93186e-05
-4.06847e-06
8.75142e-05
-0.000134167
4.01658e-06
-5.47904e-05
3.68191e-06
-8.32376e-05
-3.98773e-06
9.36948e-05
-0.000145371
4.13776e-06
-6.1069e-05
3.65876e-06
-8.67459e-05
-3.88464e-06
9.98996e-05
-0.00015661
4.23377e-06
-6.71439e-05
3.6198e-06
-8.98162e-05
-3.75983e-06
0.000106114
-0.00016786
4.30423e-06
-7.29469e-05
3.56491e-06
-9.24268e-05
-3.6144e-06
0.000112326
-0.000179097
4.34906e-06
-7.84135e-05
3.49403e-06
-9.45616e-05
-3.44942e-06
0.000118524
-0.000190299
4.36881e-06
-8.34847e-05
3.40713e-06
-9.62086e-05
-3.26597e-06
0.000124706
-0.000201449
4.36511e-06
-8.81132e-05
3.30414e-06
-9.73602e-05
-3.06513e-06
0.000130883
-0.000212529
4.3403e-06
-9.22745e-05
3.18485e-06
-9.80164e-05
-2.84789e-06
0.000137077
-0.00022353
4.29607e-06
-9.59733e-05
3.04873e-06
-9.81936e-05
-2.61501e-06
0.000143319
-0.000234457
4.23173e-06
-9.92551e-05
2.89508e-06
-9.7934e-05
-2.36713e-06
0.000149623
-0.00024531
4.14425e-06
-0.000102138
2.7237e-06
-9.73047e-05
-2.10531e-06
0.000155972
-0.000256114
4.03106e-06
-0.000104589
2.536e-06
-9.63803e-05
-1.83179e-06
0.00016229
-0.000266904
3.89319e-06
-0.000106566
2.33558e-06
-9.52222e-05
-1.52585e-06
0.000168439
-0.000277631
3.73441e-06
-0.00010804
2.12704e-06
-9.38725e-05
-1.21535e-06
0.000174313
-0.00028819
3.55718e-06
-0.000108987
1.91303e-06
-9.23627e-05
-9.08522e-07
0.00017986
-0.000298394
3.35968e-06
-0.000109374
1.69119e-06
-9.07184e-05
-6.01421e-07
0.000185055
-0.000308069
3.13533e-06
-0.000109135
1.45396e-06
-8.89625e-05
-2.88594e-07
0.000189862
-0.000317283
2.88227e-06
-0.000108188
1.17393e-06
-8.70932e-05
3.18106e-08
0.000194198
-0.000326435
2.61512e-06
-0.000106528
8.6935e-07
-8.5111e-05
3.57533e-07
0.000198001
-0.00033597
2.35726e-06
-0.000104251
5.60533e-07
-8.30106e-05
6.81098e-07
0.000201263
-0.000345977
2.11563e-06
-0.000101435
2.58544e-07
-8.07897e-05
9.97447e-07
0.000204012
-0.000356235
1.86733e-06
-9.78987e-05
-3.64655e-08
-7.84519e-05
1.30872e-06
0.00020627
-0.000366538
1.58687e-06
-9.31248e-05
-3.26337e-07
-7.59195e-05
1.61551e-06
0.00020806
-0.000376814
1.27434e-06
-8.6679e-05
-6.04734e-07
-7.29235e-05
1.91142e-06
0.000209426
-0.000387058
9.44116e-07
-7.89149e-05
-8.67682e-07
-6.89542e-05
2.19172e-06
0.000210401
-0.000397274
5.98413e-07
-7.0737e-05
-1.13157e-06
-6.36952e-05
2.46278e-06
0.000210946
-0.000407457
2.32066e-07
-6.34338e-05
-1.4346e-06
-5.77369e-05
2.74271e-06
0.000210894
-0.000417578
-1.58899e-07
-5.76582e-05
-1.79777e-06
-5.16661e-05
3.03743e-06
0.00021017
-0.000427597
-5.82018e-07
-5.25942e-05
-2.19386e-06
-4.56328e-05
3.3352e-06
0.000209138
-0.000437482
-1.05468e-06
-4.73585e-05
-2.5799e-06
-3.96258e-05
3.61441e-06
0.000208678
-0.000447226
-1.4904e-06
-4.15983e-05
-2.94126e-06
-3.35951e-05
3.86733e-06
0.000209596
-0.000456816
-1.90274e-06
-3.53833e-05
-3.26919e-06
-2.75546e-05
4.09051e-06
0.000211137
-0.000466217
-2.27605e-06
-2.8935e-05
-3.55898e-06
-2.1502e-05
4.28373e-06
0.000212463
-0.000475387
-2.64734e-06
-2.22619e-05
-3.82537e-06
-1.545e-05
4.46468e-06
0.000213338
-0.0004843
-3.04979e-06
-1.52411e-05
-4.11428e-06
-9.39734e-06
4.66578e-06
0.000213611
-0.000492933
-3.47337e-06
-7.83536e-06
-4.45924e-06
-3.30561e-06
4.89604e-06
0.000212965
-0.000501259
-3.83439e-06
-4.7305e-08
-4.82657e-06
2.90443e-06
5.11511e-06
0.000211278
-0.000509258
-4.1739e-06
8.40293e-06
-5.16947e-06
9.22269e-06
5.29333e-06
0.000208799
-0.000516886
-4.51362e-06
1.80184e-05
-5.4673e-06
1.56138e-05
5.42824e-06
0.000206166
-0.000524073
-4.83517e-06
2.90513e-05
-5.70804e-06
2.20759e-05
5.51788e-06
0.000204435
-0.00053077
-5.13191e-06
4.08445e-05
-5.88348e-06
2.86117e-05
5.56793e-06
0.000204657
-0.000536943
-5.40005e-06
5.29076e-05
-5.99983e-06
3.52175e-05
5.59144e-06
0.000206418
-0.000542557
-5.65189e-06
6.54039e-05
-6.08842e-06
4.19349e-05
5.60663e-06
0.000208706
-0.000547564
-5.91574e-06
7.9028e-05
-6.2037e-06
4.88903e-05
5.62578e-06
0.000210639
-0.000551907
-6.20816e-06
9.51154e-05
-6.37601e-06
5.62074e-05
5.63667e-06
0.000211667
-0.000555551
-6.51963e-06
0.000115616
-6.58705e-06
6.38709e-05
5.62144e-06
0.000211908
-0.000558489
-6.81314e-06
0.000139162
-6.83195e-06
7.17056e-05
5.5952e-06
0.000211597
-0.000560704
-7.03059e-06
0.00016258
-7.08647e-06
7.95062e-05
5.56643e-06
0.000210781
-0.000562173
-7.17054e-06
0.000182121
-7.30732e-06
8.7292e-05
5.526e-06
0.000209448
-0.000562876
-7.28071e-06
0.000198798
-7.48088e-06
9.52174e-05
5.47379e-06
0.000207615
-0.000562777
-7.37035e-06
0.000214525
-7.60903e-06
0.000103394
5.41296e-06
0.000205276
-0.000561829
-7.43139e-06
0.000230346
-7.69018e-06
0.000111849
5.34786e-06
0.000202519
-0.000559983
-7.46433e-06
0.000246635
-7.71882e-06
0.000120575
5.29225e-06
0.000199556
-0.000557182
-7.46611e-06
0.000263422
-7.69189e-06
0.000129559
5.25048e-06
0.000196414
-0.000553368
-7.43087e-06
0.000280675
-7.61961e-06
0.000138776
5.18642e-06
0.000192543
-0.000548529
-7.35368e-06
0.000298362
-7.49561e-06
0.000148548
5.09819e-06
0.000187634
-0.000542669
-7.22856e-06
0.000316447
-7.29315e-06
0.000159996
5.0467e-06
0.000181952
-0.000535665
-7.04156e-06
0.000334887
-6.98338e-06
0.000175199
5.06188e-06
0.000175854
-0.000526831
-6.81006e-06
0.000353653
-6.5824e-06
0.000197453
5.14148e-06
0.000169578
-0.000514352
-6.62579e-06
0.000372814
-6.18495e-06
0.00022365
5.28898e-06
0.000163196
-0.000494717
-6.53515e-06
0.000392496
-5.83754e-06
0.000249509
5.53104e-06
0.000156711
-0.000464828
-6.55726e-06
0.000412883
-5.55863e-06
0.000270524
5.89913e-06
0.000150079
-0.000430704
-6.6825e-06
-5.33192e-06
6.39811e-06
)
;

boundaryField
{
    leftWall
    {
        type            calculated;
        value           nonuniform List<scalar> 8(2.1684e-19 4.33681e-19 0 0 2.1684e-19 0 0 0);
    }
    rightWall
    {
        type            calculated;
        value           nonuniform 0();
    }
    leftSides_periodic0
    {
        type            cyclic;
        value           nonuniform 0();
    }
    leftSides_periodic1
    {
        type            cyclic;
        value           nonuniform 0();
    }
    rightSides_periodic0
    {
        type            cyclic;
        value           nonuniform 0();
    }
    rightSides_periodic1
    {
        type            cyclic;
        value           nonuniform 0();
    }
    leftInOut_periodic0
    {
        type            cyclic;
        value           nonuniform List<scalar> 
157
(
-1.19843e-05
-1.7525e-05
-1.77709e-05
-1.7733e-05
-1.77607e-05
-1.77072e-05
-1.75294e-05
-1.7212e-05
-1.67569e-05
-1.61876e-05
-1.55442e-05
-1.48764e-05
-1.42335e-05
-1.36462e-05
-1.3119e-05
-1.26418e-05
-1.22084e-05
-1.18203e-05
-1.14803e-05
-1.11938e-05
-1.09639e-05
-1.07858e-05
-1.0652e-05
-1.05523e-05
-1.04729e-05
-1.04054e-05
-1.03559e-05
-1.03437e-05
-1.03814e-05
-1.04769e-05
-1.07018e-05
-1.11763e-05
-1.18609e-05
-1.2319e-05
-1.19426e-05
-1.08992e-05
-1.00037e-05
-9.59358e-06
-9.51379e-06
-9.81137e-06
-1.0818e-05
-1.23415e-05
-1.30189e-05
-1.18443e-05
-1.04391e-05
-9.80398e-06
-9.54024e-06
-9.26423e-06
-8.94047e-06
-8.55779e-06
-8.11724e-06
-7.61955e-06
-7.06633e-06
-6.46153e-06
-5.81128e-06
-5.1234e-06
-4.40756e-06
-3.67528e-06
-2.94039e-06
-2.21346e-06
-1.52551e-06
-1.22278e-06
-1.77103e-06
-2.91203e-06
-2.95928e-06
-1.99966e-06
-1.27188e-06
-7.95253e-07
-3.54909e-07
1.02406e-07
5.92399e-07
1.12378e-06
1.71617e-06
2.44814e-06
3.36401e-06
4.43589e-06
5.5603e-06
5.83999e-06
5.97217e-07
6.66615e-07
6.34704e-07
6.40752e-07
6.08543e-07
5.65114e-07
5.37765e-07
5.30404e-07
5.44818e-07
5.81957e-07
6.42658e-07
7.27975e-07
8.2917e-07
9.45849e-07
1.0851e-06
1.24659e-06
1.42798e-06
1.62818e-06
1.84697e-06
2.08379e-06
2.33814e-06
2.60914e-06
2.8949e-06
3.19239e-06
3.49822e-06
3.78579e-06
4.06875e-06
4.37243e-06
4.69111e-06
5.01827e-06
5.34908e-06
5.68134e-06
6.01745e-06
6.36015e-06
6.70263e-06
7.03013e-06
7.3333e-06
7.62205e-06
7.90887e-06
8.18873e-06
8.45355e-06
8.70131e-06
8.93039e-06
9.13842e-06
9.32433e-06
9.49347e-06
9.64297e-06
9.75358e-06
9.82019e-06
9.8615e-06
9.88084e-06
9.86118e-06
9.79758e-06
9.70514e-06
9.58637e-06
9.4304e-06
9.24053e-06
9.02443e-06
8.78818e-06
8.54039e-06
8.29072e-06
8.04967e-06
7.82426e-06
7.61833e-06
7.42418e-06
7.22053e-06
6.9969e-06
6.75441e-06
6.49784e-06
6.23188e-06
5.95946e-06
5.68421e-06
5.4113e-06
5.14557e-06
4.89452e-06
4.67291e-06
4.50799e-06
4.4283e-06
4.43313e-06
)
;
    }
    leftInOut_periodic1
    {
        type            cyclic;
        value           nonuniform List<scalar> 
157
(
1.19843e-05
1.7525e-05
1.77709e-05
1.7733e-05
1.77607e-05
1.77072e-05
1.75294e-05
1.7212e-05
1.67569e-05
1.61876e-05
1.55442e-05
1.48764e-05
1.42335e-05
1.36462e-05
1.3119e-05
1.26418e-05
1.22084e-05
1.18203e-05
1.14803e-05
1.11938e-05
1.09639e-05
1.07858e-05
1.0652e-05
1.05523e-05
1.04729e-05
1.04054e-05
1.03559e-05
1.03437e-05
1.03814e-05
1.04769e-05
1.07018e-05
1.11763e-05
1.18609e-05
1.2319e-05
1.19426e-05
1.08992e-05
1.00037e-05
9.59358e-06
9.51379e-06
9.81137e-06
1.0818e-05
1.23415e-05
1.30189e-05
1.18443e-05
1.04391e-05
9.80398e-06
9.54024e-06
9.26423e-06
8.94047e-06
8.55779e-06
8.11724e-06
7.61955e-06
7.06633e-06
6.46153e-06
5.81128e-06
5.1234e-06
4.40756e-06
3.67528e-06
2.94039e-06
2.21346e-06
1.52551e-06
1.22278e-06
1.77103e-06
2.91203e-06
2.95928e-06
1.99966e-06
1.27188e-06
7.95253e-07
3.54909e-07
-1.02406e-07
-5.92399e-07
-1.12378e-06
-1.71617e-06
-2.44814e-06
-3.36401e-06
-4.43589e-06
-5.5603e-06
-5.83999e-06
-5.97217e-07
-6.66615e-07
-6.34704e-07
-6.40752e-07
-6.08543e-07
-5.65114e-07
-5.37765e-07
-5.30404e-07
-5.44818e-07
-5.81957e-07
-6.42658e-07
-7.27975e-07
-8.2917e-07
-9.45849e-07
-1.0851e-06
-1.24659e-06
-1.42798e-06
-1.62818e-06
-1.84697e-06
-2.08379e-06
-2.33814e-06
-2.60914e-06
-2.8949e-06
-3.19239e-06
-3.49822e-06
-3.78579e-06
-4.06875e-06
-4.37243e-06
-4.69111e-06
-5.01827e-06
-5.34908e-06
-5.68134e-06
-6.01745e-06
-6.36015e-06
-6.70263e-06
-7.03013e-06
-7.3333e-06
-7.62205e-06
-7.90887e-06
-8.18873e-06
-8.45355e-06
-8.70131e-06
-8.93039e-06
-9.13842e-06
-9.32433e-06
-9.49347e-06
-9.64297e-06
-9.75358e-06
-9.82019e-06
-9.8615e-06
-9.88084e-06
-9.86118e-06
-9.79758e-06
-9.70514e-06
-9.58637e-06
-9.4304e-06
-9.24053e-06
-9.02443e-06
-8.78818e-06
-8.54039e-06
-8.29072e-06
-8.04967e-06
-7.82426e-06
-7.61833e-06
-7.42418e-06
-7.22053e-06
-6.9969e-06
-6.75441e-06
-6.49784e-06
-6.23188e-06
-5.95946e-06
-5.68421e-06
-5.4113e-06
-5.14557e-06
-4.89452e-06
-4.67291e-06
-4.50799e-06
-4.4283e-06
-4.43313e-06
)
;
    }
    rightInOut_periodic0
    {
        type            cyclic;
        value           nonuniform 0();
    }
    rightInOut_periodic1
    {
        type            cyclic;
        value           nonuniform 0();
    }
    procBoundary0to1
    {
        type            processor;
        value           nonuniform List<scalar> 
11
(
-0.00144917
0.000585105
-0.00243067
1.26027e-05
0.00188785
0.000611712
0.000513149
0.000434013
0.000287884
0.00014316
-0.000396037
)
;
    }
    procBoundary0to1throughleftInOut_periodic1
    {
        type            processorCyclic;
        value           uniform -5.9581e-06;
    }
    procBoundary0to2
    {
        type            processor;
        value           nonuniform List<scalar> 
316
(
-2.88513e-06
-2.15812e-06
-3.25401e-06
-2.80243e-06
-7.64411e-06
-6.30974e-06
-9.07633e-06
-8.16937e-06
-1.26073e-05
-1.04984e-05
-1.49893e-05
-1.35488e-05
-1.7895e-05
-1.49764e-05
-2.11829e-05
-1.91878e-05
-2.33979e-05
-1.97551e-05
-2.76118e-05
-2.50805e-05
-2.90736e-05
-2.47471e-05
-3.42058e-05
-3.11249e-05
-3.48792e-05
-2.99024e-05
-4.09053e-05
-3.72604e-05
-4.0768e-05
-3.51755e-05
-4.76511e-05
-4.3439e-05
-4.66949e-05
-4.05211e-05
-5.43879e-05
-4.96215e-05
-5.26194e-05
-4.58964e-05
-6.107e-05
-5.57746e-05
-5.85101e-05
-5.12651e-05
-6.7666e-05
-6.18736e-05
-6.43466e-05
-5.66015e-05
-7.41695e-05
-6.79033e-05
-7.01242e-05
-6.18932e-05
-8.05891e-05
-7.38675e-05
-7.58466e-05
-6.71448e-05
-8.69305e-05
-7.97764e-05
-8.15193e-05
-7.2365e-05
-9.32013e-05
-8.56366e-05
-8.71473e-05
-7.75643e-05
-9.94137e-05
-9.14608e-05
-9.2733e-05
-8.27527e-05
-0.000105579
-9.72603e-05
-9.82794e-05
-8.79344e-05
-0.000111704
-0.000103041
-0.00010379
-9.31131e-05
-0.0001178
-0.000108808
-0.000109271
-9.82932e-05
-0.000123872
-0.000114569
-0.000114733
-0.000103479
-0.000129928
-0.000120329
-0.000120189
-0.000108677
-0.000135978
-0.000126096
-0.000125646
-0.000113891
-0.000142037
-0.000131877
-0.0001311
-0.000119119
-0.000148126
-0.00013767
-0.000136523
-0.000124351
-0.000154268
-0.000143466
-0.000141888
-0.00012957
-0.000160468
-0.000149247
-0.000147192
-0.000134761
-0.000166697
-0.000155001
-0.00015246
-0.000139926
-0.0001729
-0.000160748
-0.000157731
-0.000145089
-0.000179027
-0.000166556
-0.000163032
-0.000150276
-0.000185091
-0.000172514
-0.000168377
-0.000155504
-0.000191157
-0.000178697
-0.000173772
-0.000160786
-0.000197299
-0.00018509
-0.000179236
-0.000166129
-0.000203544
-0.000191517
-0.000184825
-0.000171539
-0.000209868
-0.000197789
-0.000190599
-0.000177023
-0.000216225
-0.000203902
-0.000196569
-0.000182591
-0.000222582
-0.000209975
-0.00020271
-0.000188252
-0.000228953
-0.000216105
-0.000209063
-0.000194031
-0.000235371
-0.00022231
-0.000215802
-0.000200043
-0.000241855
-0.000228576
-0.000222795
-0.000206495
-0.000248426
-0.000234901
-0.000229414
-0.000213624
-0.000255136
-0.000241287
-0.000235648
-0.000221213
-0.000262068
-0.000247736
-0.000241856
-0.000228305
-0.00026926
-0.000254249
-0.000248224
-0.000234876
-0.000276744
-0.000260827
-0.000254749
-0.000241392
-0.000284662
-0.000267467
-0.000261442
-0.000248077
-0.000293338
-0.000274168
-0.000268369
-0.000254897
-0.00030272
-0.000280932
-0.000275526
-0.000261814
-0.000311312
-0.000287772
-0.000282805
-0.000268839
-0.000319158
-0.000294711
-0.000290123
-0.000275988
-0.000327096
-0.000301769
-0.000297505
-0.00028328
-0.000335473
-0.000308943
-0.00030499
-0.000290724
-0.000344003
-0.000316182
-0.000312689
-0.000298309
-0.000352352
-0.000323419
-0.000320838
-0.000306006
-0.000360716
-0.000330636
-0.000329655
-0.000313781
-0.000369591
-0.000337884
-0.000338943
-0.000321635
-0.000379457
-0.000345202
-0.0003478
-0.0003296
-0.000390398
-0.000352609
-0.000356364
-0.000337699
-0.000401221
-0.000360114
-0.000365234
-0.000345936
-0.000411839
-0.00036772
-0.000374913
-0.000354376
-0.000422666
-0.00037543
-0.000385938
-0.000363166
-0.000433313
-0.000383249
-0.000398592
-0.000372477
-0.000443385
-0.000391181
-0.000409663
-0.000382316
-0.000453163
-0.00039923
-0.000419036
-0.000392313
-0.000462865
-0.000407399
-0.000428148
-0.000402098
-0.000472564
-0.000415696
-0.00043762
-0.000411724
-0.000482318
-0.000424125
-0.000447341
-0.000421364
-0.000492101
-0.000432693
-0.000457196
-0.000431116
-0.000501912
-0.000441407
-0.000467183
-0.000441027
-0.000511884
-0.000450279
-0.000477282
-0.00045112
-0.000522243
-0.000459326
-0.000487475
-0.000461378
-0.000532977
-0.000468565
-0.000497741
-0.000472166
-0.000543711
-0.000477998
-0.000508059
-0.000484346
-0.000554222
-0.000487614
-0.000518408
-0.000498898
-0.000564603
-0.000497391
-0.000528764
-0.000516764
-0.000574967
-0.000507302
-0.000539107
-0.000531482
-0.000585355
-0.000517282
-0.000549422
-0.000543531
-0.000595772
-0.000527261
-0.000559702
-0.000554967
-0.000606195
-0.000537066
-0.000569902
-0.000566504
-0.000616567
-0.00054585
)
;
    }
    procBoundary0to2throughleftSides_periodic0
    {
        type            processorCyclic;
        value           nonuniform List<scalar> 
314
(
4.33752e-06
1.17228e-05
1.87578e-05
2.57186e-05
3.26385e-05
3.95003e-05
4.62902e-05
5.29885e-05
5.95719e-05
6.60186e-05
7.23144e-05
7.84555e-05
8.44452e-05
9.02887e-05
9.59987e-05
0.000101589
0.000107069
0.000112445
0.000117727
0.000122927
0.000128064
0.000133153
0.000138213
0.000143258
0.000148301
0.000153352
0.000158422
0.000163522
0.000168662
0.000173851
0.000179096
0.000184404
0.000189781
0.000195234
0.000200771
0.000206397
0.000212122
0.000217947
0.000223846
0.000229811
0.000236025
0.000242919
0.000250847
0.000259171
0.000266864
0.000274051
0.000281021
0.000287964
0.000294984
0.000302076
0.000309238
0.000316467
0.00032376
0.000331113
0.000338523
0.000345994
0.000353541
0.000361177
0.000368916
0.000376776
0.000384671
0.000392503
0.000400788
0.000410919
0.000423623
0.00043554
0.000446047
0.000455595
0.000464743
0.00047385
0.000482973
0.000492117
0.000501286
0.00051048
0.000519698
0.000528935
0.000538176
0.000547404
0.00055664
2.43123e-06
8.41051e-06
1.47685e-05
2.1098e-05
2.73417e-05
3.35538e-05
3.97481e-05
4.59162e-05
5.20389e-05
5.8093e-05
6.40556e-05
6.99095e-05
7.56451e-05
8.1268e-05
8.67911e-05
9.22217e-05
9.75653e-05
0.000102829
0.000108021
0.000113151
0.00011823
0.00012327
0.000128282
0.000133277
0.000138266
0.000143261
0.000148269
0.000153301
0.000158361
0.000163457
0.000168591
0.000173771
0.000179002
0.000184294
0.000189653
0.000195082
0.000200584
0.000206164
0.000211824
0.000217566
0.000223393
0.000229311
0.000235331
0.000241461
0.000247703
0.00025406
0.000260532
0.000267121
0.00027383
0.00028066
0.000287613
0.000294691
0.000301897
0.000309232
0.000316698
0.000324299
0.000332039
0.000339921
0.000347952
0.000356137
0.000364479
0.000372982
0.000381645
0.000390461
0.000399423
0.000408524
0.000417757
0.000427115
0.000436587
0.000446159
0.000455811
0.00046552