/*--------------------------------*- C++ -*----------------------------------*\
| =========                 |                                                 |
| \\      /  F ield         | OpenFOAM: The Open Source CFD Toolbox           |
|  \\    /   O peration     | Version:  v1906                                 |
|   \\  /    A nd           | Web:      www.OpenFOAM.com                      |
|    \\/     M anipulation  |                                                 |
\*---------------------------------------------------------------------------*/
FoamFile
{
    version     2.0;
    format      ascii;
    class       volScalarField;
    location    "98.4";
    object      T;
}
// * * * * * * * * * * * * * * * * * * * * * * * * * * * * * * * * * * * * * //

dimensions      [0 0 0 1 0 0 0];


internalField   nonuniform List<scalar> 
630
(
371.492
371.869
371.235
371.265
368.43
369.598
367.711
367.798
365.274
367.302
364.197
364.335
362.09
365.005
360.773
360.943
359.048
362.754
357.597
357.749
356.408
360.641
354.888
354.94
354.361
358.784
352.798
352.676
352.886
357.264
351.305
350.978
351.84
356.086
350.271
349.747
351.08
355.195
349.549
348.851
350.502
354.518
349.028
348.183
350.041
353.993
348.637
347.667
349.658
353.575
348.332
347.253
349.33
353.232
348.084
346.908
349.043
352.942
347.878
346.611
348.786
352.692
347.704
346.352
348.553
352.472
347.553
346.123
348.34
352.275
347.422
345.918
348.144
352.098
347.306
345.734
347.961
351.937
347.204
345.565
347.79
351.789
347.112
345.411
347.629
351.651
347.03
345.268
347.477
351.523
346.956
345.136
347.333
351.403
346.89
345.012
347.195
351.289
346.828
344.897
347.064
351.182
346.772
344.789
346.939
351.079
346.719
344.687
346.819
350.98
346.67
344.593
346.704
350.886
346.625
344.504
346.593
350.795
346.583
344.419
346.485
350.706
346.543
344.338
346.381
350.621
346.506
344.259
346.28
350.537
346.472
344.178
346.182
350.456
346.44
344.089
346.086
350.377
346.41
343.997
345.993
350.3
346.382
343.916
345.902
350.224
346.357
343.85
345.814
350.15
346.334
343.792
345.728
350.077
346.312
343.737
345.643
350.006
346.293
343.685
345.549
349.935
346.275
343.635
345.425
349.867
346.258
343.588
345.262
349.799
346.244
343.543
345.105
349.732
346.231
343.5
345
349.665
346.219
343.459
344.923
349.6
346.21
343.42
344.853
349.536
346.202
343.384
344.787
349.473
346.196
343.35
344.724
349.411
346.191
343.317
344.664
349.35
346.188
343.287
344.607
349.29
346.186
343.259
344.551
349.232
346.186
343.233
344.496
349.174
346.188
343.208
344.443
349.117
346.192
343.186
344.391
349.062
346.197
343.165
344.34
349.007
346.204
343.145
344.29
348.954
346.213
343.127
344.241
348.901
346.224
343.11
344.193
348.849
346.236
343.094
344.145
348.797
346.249
343.079
344.098
348.746
346.265
343.065
344.053
348.696
346.283
343.051
344
348.646
346.304
343.038
343.917
348.597
346.327
343.026
343.802
348.55
346.352
343.013
343.727
348.503
346.379
343.001
343.68
348.457
346.408
342.99
343.641
348.413
346.438
342.979
343.604
348.369
346.47
342.968
343.568
348.327
346.502
342.957
343.532
348.285
346.535
342.947
343.497
348.243
346.569
342.938
343.462
348.203
346.604
342.929
343.427
348.162
346.641
342.92
343.392
348.122
346.679
342.911
343.357
348.078
346.717
342.899
343.323
348.012
346.756
342.885
343.288
347.915
346.794
342.879
343.254
347.847
371.962
371.934
371.682
371.817
369.87
369.795
369.048
369.44
367.733
367.634
366.413
367.026
365.551
365.463
363.8
364.581
363.347
363.318
361.259
362.133
361.196
361.282
358.906
359.765
359.222
359.47
356.89
357.611
357.543
357.978
355.298
355.793
356.203
356.818
354.101
354.352
355.164
355.939
353.21
353.244
354.362
355.269
352.535
352.394
353.731
354.746
352.006
351.731
353.221
354.327
351.577
351.201
352.798
353.981
351.216
350.767
352.434
353.688
350.905
350.401
352.116
353.431
350.63
350.083
351.833
353.202
350.381
349.802
351.58
352.994
350.155
349.55
351.353
352.804
349.946
349.322
351.146
352.629
349.753
349.115
350.957
352.468
349.571
348.925
350.783
352.317
349.401
348.75
350.622
352.176
349.239
348.588
350.472
352.043
349.086
348.437
350.334
351.918
348.939
348.296
350.209
351.8
348.799
348.164
350.096
351.688
348.665
348.04
349.994
351.581
348.537
347.922
349.898
351.48
348.417
347.811
349.809
351.382
348.301
347.705
349.724
351.289
348.189
347.603
349.644
351.199
348.079
347.506
349.568
351.111
347.969
347.414
349.493
351.026
347.862
347.327
349.416
350.943
347.761
347.245
349.338
350.862
347.669
347.167
349.265
350.782
347.584
347.092
349.202
350.702
347.503
347.019
349.147
350.623
347.425
346.949
349.097
350.543
347.348
346.88
349.051
350.463
347.268
346.813
349.01
350.382
347.182
346.748
348.972
350.303
347.087
346.685
348.936
350.226
346.994
346.623
348.899
350.151
346.912
346.563
348.862
350.077
346.842
346.504
348.821
350.005
346.776
346.447
348.777
349.934
346.712
346.391
348.733
349.865
346.643
346.333
348.693
349.795
346.566
346.274
348.654
349.726
346.479
346.213
348.615
349.655
346.394
346.152
348.575
349.584
346.323
346.095
348.533
349.515
346.262
346.044
348.489
349.448
346.206
345.996
348.443
349.385
346.149
345.947
348.397
349.323
346.09
345.897
348.35
349.261
346.021
345.846
348.301
349.199
345.933
345.793
348.251
349.133
345.827
345.739
348.198
349.059
345.733
345.683
348.142
348.968
345.666
345.624
348.089
348.858
345.611
345.563
348.041
348.747
345.558
345.499
347.996
348.653
345.505
345.433
347.949
348.572
345.452
345.363
347.899
348.494
345.397
345.29
347.845
348.414
345.342
345.214
347.789
348.33
345.281
345.134
347.731
348.242
345.206
345.05
347.671
348.149
345.11
344.962
347.61
348.051
345.019
344.872
347.547
347.945
344.945
344.779
347.483
347.832
344.877
344.684
347.417
347.712
344.808
344.587
347.35
347.589
344.737
344.491
347.281
347.464
344.663
344.397
347.209
347.334
344.585
344.308
347.136
347.2
344.504
344.223
)
;

boundaryField
{
    leftWall
    {
        type            fixedValue;
        value           uniform 373;
    }
    rightWall
    {
        type            fixedValue;
        value           nonuniform 0();
    }
    leftSides_periodic0
    {
        type            cyclic;
    }
    leftSides_periodic1
    {
        type            cyclic;
    }
    rightSides_periodic0
    {
        type            cyclic;
    }
    rightSides_periodic1
    {
        type            cyclic;
    }
    leftInOut_periodic0
    {
        type            cyclic;
    }
    leftInOut_periodic1
    {
        type            cyclic;
    }
    rightInOut_periodic0
    {
        type            cyclic;
    }
    rightInOut_periodic1
    {
        type            cyclic;
    }
    procBoundary0to1
    {
        type            processor;
        value           nonuniform List<scalar> 
11
(
346.833
342.877
343.221
346.833
347.799
346.833
342.877
347.061
347.062
344.42
344.145
)
;
    }
    procBoundary0to1throughleftInOut_periodic1
    {
        type            processorCyclic;
        value           uniform 342.877;
    }
    procBoundary0to2
    {
        type            processor;
        value           nonuniform List<scalar> 
316
(
371.651
372.108
371.632
371.487
368.943
370.309
368.881
368.447
366.198
368.472
366.077
365.367
363.429
366.59
363.227
362.268
360.689
364.672
360.396
359.221
358.108
362.757
357.755
356.381
355.852
360.93
355.506
353.932
354.029
359.292
353.742
351.978
352.629
357.912
352.413
350.494
351.574
356.796
351.414
349.382
350.773
355.906
350.647
348.54
350.153
355.193
350.037
347.888
349.658
354.611
349.53
347.364
349.25
354.123
349.099
346.928
348.907
353.7
348.727
346.558
348.614
353.331
348.402
346.24
348.361
353.003
348.115
345.964
348.141
352.712
347.861
345.722
347.948
352.45
347.633
345.507
347.777
352.212
347.429
345.316
347.624
351.997
347.246
345.145
347.487
351.799
347.08
344.99
347.361
351.617
346.929
344.85
347.247
351.449
346.791
344.721
347.143
351.294
346.662
344.605
347.049
351.152
346.543
344.5
346.963
351.025
346.432
344.407
346.884
350.91
346.331
344.323
346.81
350.805
346.244
344.247
346.74
350.707
346.168
344.172
346.674
350.617
346.102
344.094
346.61
350.531
346.042
344.012
346.548
350.45
345.988
343.933
346.487
350.374
345.938
343.864
346.428
350.301
345.892
343.806
346.368
350.231
345.851
343.756
346.308
350.164
345.814
343.709
346.244
350.098
345.781
343.665
346.166
350.033
345.751
343.622
346.07
349.962
345.726
343.582
345.982
349.87
345.705
343.544
345.911
349.754
345.687
343.508
345.849
349.657
345.672
343.474
345.788
349.589
345.659
343.441
345.727
349.531
345.647
343.41
345.666
349.474
345.635
343.38
345.606
349.419
345.622
343.352
345.545
349.364
345.617
343.325
345.484
349.31
345.617
343.3
345.424
349.257
345.621
343.275
345.363
349.204
345.627
343.253
345.302
349.152
345.637
343.231
345.239
349.101
345.648
343.21
345.174
349.05
345.663
343.191
345.095
348.999
345.681
343.172
344.997
348.949
345.709
343.155
344.913
348.899
345.755
343.139
344.844
348.849
345.797
343.123
344.778
348.8
345.832
343.109
344.709
348.752
345.868
343.096
344.609
348.704
345.906
343.084
344.442
348.657
345.947
343.072
344.301
348.611
345.989
343.062
344.214
348.565
346.034
343.053
344.142
348.519
346.081
343.044
344.07
348.472
346.131
343.036
343.998
348.426
346.185
343.03
343.926
348.38
346.241
343.023
343.856
348.334
346.299
343.018
343.786
348.287
346.357
343.013
343.717
348.24
346.415
343.008
343.649
348.191
346.471
343.004
343.583
348.137
346.525
342.999
343.517
348.051
346.575
342.995
343.453
347.894
346.625
342.991
343.389
347.782
346.673
342.986
343.328
347.715
346.72
342.981
343.266
347.66
346.768
342.976
343.205
347.604
346.816
342.968
)
;
    }
    procBoundary0to2throughleftSides_periodic0
    {
        type            processorCyclic;
        value           nonuniform List<scalar> 
314
(
371.847
369.534
367.206
364.885
362.615
360.471
358.547
356.925
355.634
354.644
353.897
353.332
352.898
352.558
352.284
352.057
351.866
351.702
351.559
351.431
351.317
351.212
351.114
351.023
350.936
350.852
350.77
350.691
350.613
350.536
350.46
350.384
350.309
350.233
350.158
350.082
350.006
349.93
349.853
349.775
349.696
349.615
349.533
349.451
349.37
349.291
349.213
349.137
349.062
348.988
348.916
348.845
348.776
348.707
348.64
348.574
348.509
348.444
348.379
348.316
348.254
348.192
348.129
348.063
347.995
347.929
347.865
347.804
347.746
347.69
347.637
347.585
347.535
347.486
347.438
347.391
347.343
347.295
347.245
371.892
369.66
367.382
365.064
362.75
360.545
358.599
357.018
355.808
354.903
354.224
353.703
353.294
352.96
352.68
352.441
352.235
352.053
351.893
351.749
351.618
351.499
351.39
351.289
351.194
351.105
351.02
350.939
350.862
350.788
350.717
350.648
350.581
350.516
350.452
350.389
350.327
350.265
350.205
350.145
350.087
350.028
349.97
349.912
349.853
349.794
349.735
349.675
349.615
349.555
349.494
349.433
349.372
349.31
349.248
349.186
349.123
349.059
348.995
348.93
348.864
348.797
348.729
348.66
348.59
348.518
348.443
348.367
348.287
348.204
348.118
348.027
347.932
347.832
347.728
347.618
347.501
347.38
347.258
371.619
368.826
365.953
363.015
360.106
357.428
355.193
353.481
352.227
351.313
350.633
350.113
349.703
349.37
349.091
348.854
348.651
348.475
348.321
348.185
348.066
347.959
347.863
347.776
347.697
347.623
347.555
347.491
347.43
347.373
347.318
347.265
347.214
347.165
347.117
347.07
347.024
346.978
346.933
346.889
346.844
346.8
346.755
346.71
346.665
346.619
346.573
346.526
346.478
346.429
346.379
346.328
346.275
346.221
346.165
346.107
346.048
345.988
345.926
345.862
345.797
345.73
345.662
345.592
345.521
345.447
345.373
345.296
345.219
345.14
345.06
344.978
344.896
344.812
344.728
344.643
344.556
344.469
371.647
368.935
366.206
363.493
360.852
358.382
356.203
354.408
353.009
351.954
351.163
350.564
350.1
349.733
349.432
349.179
348.962
348.772
348.605
348.455
348.32
348.197
348.083
347.977
347.878
347.784
347.695
347.61
347.529
347.452
347.377
347.304
347.232
347.161
347.091
347.021
346.953
346.886
346.82
346.755
346.691
346.627
346.564
346.502
346.44
346.379
346.318
346.257
346.198
346.138
346.079
346.02
345.962
345.903
345.845
345.787
345.728
345.67
345.61
345.551
345.49
345.429
345.366
345.302
345.237
345.171
345.104
345.034
344.964
344.892
344.819
344.745
344.669
344.593
344.515
344.436
344.355
344.271
)
;
    }
}


// ************************************************************************* //
