/*--------------------------------*- C++ -*----------------------------------*\
| =========                 |                                                 |
| \\      /  F ield         | OpenFOAM: The Open Source CFD Toolbox           |
|  \\    /   O peration     | Version:  v1912                                 |
|   \\  /    A nd           | Website:  www.openfoam.com                      |
|    \\/     M anipulation  |                                                 |
\*---------------------------------------------------------------------------*/
FoamFile
{
    version     2.0;
    format      ascii;
    class       volScalarField;
    location    "199.6";
    object      k;
}
// * * * * * * * * * * * * * * * * * * * * * * * * * * * * * * * * * * * * * //

dimensions      [0 2 -2 0 0 0 0];


internalField   nonuniform List<scalar> 
10147
(
1.41469e-06
1.8574e-06
2.22378e-06
2.11756e-06
2.06709e-06
2.06717e-06
2.05609e-06
2.05311e-06
2.05067e-06
2.054e-06
2.05736e-06
2.06885e-06
2.06856e-06
2.11912e-06
2.22643e-06
1.86044e-06
3.80577e-07
5.00469e-07
5.95342e-07
5.85875e-07
5.69573e-07
5.69814e-07
5.66562e-07
5.65639e-07
5.64918e-07
5.65994e-07
5.67068e-07
5.70475e-07
5.70164e-07
5.86538e-07
5.96153e-07
5.01333e-07
1.21718e-06
1.57195e-06
1.81208e-06
1.91454e-06
1.85413e-06
1.85509e-06
1.84394e-06
1.84048e-06
1.83803e-06
1.84202e-06
1.84616e-06
1.85795e-06
1.85674e-06
1.91752e-06
1.81565e-06
1.57521e-06
4.06281e-06
5.16775e-06
5.89051e-06
6.32017e-06
6.12265e-06
6.12411e-06
6.08765e-06
6.07579e-06
6.06789e-06
6.08095e-06
6.09509e-06
6.1337e-06
6.13141e-06
6.33018e-06
5.90286e-06
5.17873e-06
1.00214e-05
1.25588e-05
1.41977e-05
1.53397e-05
1.48725e-05
1.48719e-05
1.47851e-05
1.47556e-05
1.47371e-05
1.47681e-05
1.4803e-05
1.4895e-05
1.48937e-05
1.53638e-05
1.42279e-05
1.25852e-05
2.01596e-05
2.48753e-05
2.78807e-05
3.02731e-05
2.93827e-05
2.93747e-05
2.92079e-05
2.91493e-05
2.9114e-05
2.91734e-05
2.92428e-05
2.94195e-05
2.94238e-05
3.03198e-05
2.79396e-05
2.49265e-05
3.5242e-05
4.27928e-05
4.74941e-05
5.17805e-05
5.03247e-05
5.03034e-05
5.00288e-05
4.99293e-05
4.98714e-05
4.99696e-05
5.00871e-05
5.03783e-05
5.03935e-05
5.18585e-05
4.75927e-05
4.2878e-05
5.55552e-05
6.63503e-05
7.28033e-05
7.96535e-05
7.75397e-05
7.75031e-05
7.71017e-05
7.69528e-05
7.68683e-05
7.70129e-05
7.71887e-05
7.76146e-05
7.76423e-05
7.97698e-05
7.29504e-05
6.64769e-05
8.08169e-05
9.48706e-05
0.000102738
0.000112756
0.000109974
0.000109927
0.000109396
0.000109195
0.000109083
0.000109277
0.000109514
0.000110079
0.000110114
0.000112914
0.000102938
9.50421e-05
0.0001102
0.000127043
0.000135573
0.00014923
0.000145864
0.000145819
0.000145172
0.000144925
0.000144786
0.000145029
0.000145322
0.000146011
0.00014604
0.000149429
0.000135824
0.000127258
0.000142497
0.000161203
0.000169325
0.000186946
0.000183154
0.00018313
0.000182395
0.000182113
0.000181953
0.000182237
0.000182574
0.000183359
0.000183364
0.000187184
0.000169622
0.000161457
0.000176379
0.000195699
0.000202185
0.000223985
0.000219963
0.000219979
0.000219192
0.000218889
0.000218712
0.00021903
0.000219396
0.000220239
0.000220201
0.000224256
0.00020252
0.000195984
0.000210637
0.000229177
0.000232818
0.000258923
0.00025487
0.000254945
0.000254145
0.000253835
0.000253649
0.00025399
0.000254369
0.000255231
0.000255132
0.000259221
0.000233182
0.000229483
0.000244325
0.000260702
0.000260566
0.000290924
0.000287014
0.000287158
0.000286374
0.000286066
0.000285877
0.000286233
0.000286615
0.000287465
0.000287295
0.000291245
0.000260951
0.000261021
0.000276806
0.000289769
0.000285205
0.000319737
0.00031608
0.000316263
0.000315501
0.000315193
0.000315005
0.000315368
0.000315757
0.000316587
0.000316378
0.000320078
0.000285606
0.000290092
0.000307711
0.000316268
0.000306629
0.000345344
0.000342057
0.000342274
0.000341552
0.000341247
0.000341063
0.000341429
0.00034182
0.000342613
0.000342369
0.000345702
0.00030704
0.000316591
0.000336887
0.000340211
0.000324885
0.000367817
0.000365005
0.000365261
0.000364596
0.000364299
0.000364123
0.000364487
0.000364874
0.000365612
0.000365328
0.000368189
0.0003253
0.000340528
0.000364324
0.000361676
0.000340137
0.000387337
0.000385085
0.000385399
0.00038481
0.000384529
0.000384364
0.00038472
0.000385096
0.000385757
0.000385415
0.000387719
0.000340551
0.000361981
0.000390106
0.000380805
0.000352624
0.000404152
0.000402532
0.000402938
0.000402446
0.000402194
0.000402042
0.000402387
0.000402736
0.0004033
0.000402867
0.000404542
0.000353034
0.000381093
0.00041437
0.000397791
0.000362633
0.000418548
0.000417621
0.000418173
0.000417806
0.000417607
0.000417472
0.000417799
0.000418095
0.000418535
0.000417957
0.000418943
0.000363036
0.000398056
0.000437265
0.00041285
0.000370469
0.000430825
0.000430644
0.00043143
0.000431229
0.000431122
0.000431009
0.000431312
0.000431512
0.000431786
0.000430975
0.000431221
0.00037086
0.000413087
0.000458941
0.000426212
0.000376438
0.000441281
0.000441895
0.000443052
0.00044307
0.000443074
0.000442984
0.00044326
0.000443343
0.000443394
0.000442217
0.000441675
0.000376815
0.000426417
0.000479532
0.000438113
0.000380836
0.000450207
0.00045167
0.00045332
0.000453584
0.00045372
0.000453655
0.000453899
0.000453843
0.000453645
0.000451973
0.000450593
0.000381197
0.00043828
0.000499157
0.00044879
0.000383943
0.000457879
0.00046023
0.000462453
0.000462989
0.000463278
0.00046324
0.000463451
0.000463232
0.000462756
0.000460511
0.000458251
0.000384285
0.000448915
0.000517916
0.000458457
0.000385998
0.000464483
0.00046775
0.000470629
0.000471466
0.00047193
0.000471919
0.000472094
0.000471689
0.000470906
0.000468004
0.000464837
0.000386318
0.000458535
0.000535894
0.000467254
0.00038722
0.000470166
0.000474372
0.000477994
0.000479159
0.000479821
0.00047984
0.000479976
0.000479359
0.000478242
0.000474595
0.000470499
0.000387515
0.000467285
0.000553155
0.000475298
0.000387776
0.000475046
0.000480212
0.000484661
0.000486183
0.000487065
0.000487115
0.000487209
0.000486357
0.000484876
0.000480399
0.000475353
0.000388044
0.000475278
0.000569745
0.000482681
0.000387791
0.000479211
0.000485359
0.000490717
0.000492624
0.000493749
0.000493832
0.000493881
0.000492769
0.000490895
0.000485506
0.000479489
0.000388029
0.000482611
0.000585694
0.000489477
0.000387363
0.000482731
0.000489878
0.000496223
0.000498541
0.000499932
0.000500049
0.000500051
0.000498655
0.000496361
0.000489981
0.000482975
0.00038757
0.000489354
0.000601018
0.000495741
0.000386573
0.00048565
0.000493814
0.000501218
0.000503973
0.000505651
0.000505804
0.000505756
0.000504052
0.000501311
0.000493869
0.000485857
0.000386747
0.000495564
0.000615722
0.00050151
0.000385483
0.000488
0.000497195
0.000505721
0.000508937
0.000510924
0.000511114
0.000511013
0.000508979
0.000505766
0.000497198
0.000488166
0.000385621
0.000501279
0.000629801
0.000506809
0.000384139
0.000489793
0.000500031
0.000509735
0.000513436
0.000515749
0.000515978
0.000515821
0.000513438
0.000509729
0.000499978
0.000489915
0.000384241
0.000506524
0.000643238
0.000511652
0.000382577
0.000491033
0.000502322
0.000513251
0.000517456
0.000520114
0.000520384
0.000520168
0.000517416
0.00051319
0.000502211
0.000491107
0.00038264
0.000511312
0.000656014
0.000516041
0.000380818
0.000491713
0.000504057
0.000516246
0.000520974
0.000523992
0.000524305
0.000524026
0.00052089
0.000516128
0.000503885
0.000491736
0.000380841
0.000515647
0.000668099
0.000519972
0.000378876
0.000491817
0.000505217
0.000518691
0.000523957
0.000527348
0.000527705
0.000527362
0.000523827
0.000518513
0.00050498
0.000491786
0.000378859
0.000519525
0.000679461
0.000523433
0.000376759
0.000491324
0.000505774
0.000520548
0.000526366
0.00053014
0.000530544
0.000530132
0.000526189
0.000520309
0.000505472
0.000491238
0.0003767
0.000522934
0.000690063
0.000526409
0.000374466
0.000490211
0.0005057
0.000521778
0.000528157
0.000532321
0.000532774
0.000532291
0.00052793
0.000521476
0.00050533
0.000490066
0.000374366
0.000525859
0.000699868
0.00052888
0.000371994
0.00048845
0.000504961
0.000522335
0.000529281
0.000533841
0.000534345
0.000533787
0.000529005
0.000521969
0.000504523
0.000488246
0.000371852
0.000528282
0.000708834
0.000530827
0.000369337
0.000486018
0.000503525
0.000522176
0.000529691
0.000534648
0.000535205
0.000534571
0.000529366
0.000521746
0.000503018
0.000485752
0.000369153
0.000530181
0.000716921
0.000532227
0.000366487
0.000482889
0.000501361
0.000521257
0.00052934
0.000534692
0.000535304
0.000534591
0.000528965
0.000520762
0.000500784
0.000482562
0.000366262
0.000531535
0.000724088
0.000533061
0.000363435
0.000479045
0.000498438
0.000519537
0.000528182
0.000533925
0.000534593
0.000533799
0.000527758
0.000518978
0.000497793
0.000478656
0.000363169
0.000532327
0.000730296
0.000533313
0.000360172
0.00047447
0.000494734
0.000516982
0.000526178
0.000532303
0.00053303
0.000532153
0.000525705
0.00051636
0.000494022
0.00047402
0.000359867
0.000532539
0.000735509
0.000532968
0.000356689
0.000469155
0.00049023
0.000513561
0.000523294
0.000529789
0.000530574
0.000529614
0.000522773
0.000512877
0.000489452
0.000468646
0.000356345
0.000532158
0.000739695
0.000532019
0.000352978
0.000463097
0.000484913
0.000509252
0.000519503
0.000526352
0.000527198
0.000526154
0.000518936
0.00050851
0.000484074
0.000462531
0.000352599
0.000531174
0.000742828
0.000530457
0.000349035
0.000456303
0.000478784
0.000504046
0.000514789
0.000521974
0.000522879
0.000521752
0.000514179
0.000503248
0.000477886
0.000455683
0.000348622
0.000529582
0.000744884
0.000528277
0.000344858
0.000448788
0.000471853
0.000497943
0.00050915
0.000516647
0.000517612
0.000516402
0.000508499
0.000497093
0.000470901
0.000448119
0.000344414
0.000527376
0.000745847
0.000525477
0.00034045
0.000440584
0.000464145
0.000490962
0.000502598
0.00051038
0.000511404
0.000510114
0.000501909
0.000490065
0.000463146
0.000439871
0.000339978
0.000524552
0.000745696
0.000522054
0.000335819
0.000431736
0.000455704
0.000483135
0.000495158
0.000503195
0.000504277
0.00050291
0.000494436
0.000482195
0.000454664
0.000430983
0.000335321
0.000521111
0.000744388
0.000518011
0.000330976
0.000422301
0.000446584
0.000474505
0.000486871
0.000495129
0.000496267
0.000494825
0.000486119
0.000473529
0.000445511
0.000421517
0.000330456
0.000517052
0.000741848
0.000513352
0.000325938
0.000412352
0.000436851
0.000465126
0.000477782
0.000486223
0.000487413
0.000485904
0.000477006
0.000464121
0.000435753
0.000411542
0.0003254
0.000512383
0.000737992
0.000508082
0.000320729
0.000401968
0.000426578
0.000455056
0.000467941
0.000476522
0.000477761
0.00047619
0.000467148
0.000454029
0.000425463
0.000401139
0.000320176
0.000507107
0.00073274
0.000502206
0.000315378
0.000391231
0.000415838
0.000444357
0.000457405
0.000466075
0.000467358
0.000465732
0.000456599
0.000443318
0.000414717
0.000390392
0.000314814
0.00050123
0.000726023
0.000495751
0.000309918
0.000380233
0.00040471
0.000433098
0.000446235
0.000454942
0.000456263
0.000454592
0.000445425
0.000432055
0.000403592
0.000379393
0.000309348
0.000494779
0.000717796
0.000488749
0.000304388
0.000369073
0.000393284
0.000421362
0.000434514
0.000443213
0.000444568
0.000442859
0.000433706
0.000420324
0.000392179
0.000368238
0.000303815
0.000487787
0.000708043
0.000481241
0.000298828
0.000357846
0.000381663
0.000409253
0.000422352
0.000430998
0.000432382
0.000430642
0.000421553
0.000408228
0.000380581
0.000357025
0.000298255
0.000480293
0.000696773
0.000473267
0.000293279
0.000346644
0.000369954
0.000396903
0.000409872
0.000418415
0.00041982
0.00041806
0.000409086
0.0003959
0.000368903
0.000345842
0.000292711
0.000472335
0.000683993
0.000464867
0.000287777
0.000335544
0.00035825
0.000384434
0.000397198
0.000405588
0.000407005
0.000405237
0.000396433
0.00038346
0.000357236
0.000334767
0.000287217
0.000463955
0.000669734
0.000456088
0.000282354
0.000324619
0.000346636
0.000371961
0.000384458
0.000392651
0.00039407
0.000392307
0.000383718
0.000371021
0.000345664
0.000323872
0.000281806
0.000455198
0.000654054
0.000446979
0.000277041
0.000313938
0.00033519
0.000359581
0.000371762
0.000379724
0.000381137
0.000379389
0.000371051
0.00035868
0.000334265
0.000313224
0.000276509
0.000446115
0.00063707
0.000437597
0.000271867
0.000303565
0.000323987
0.000347385
0.000359208
0.000366913
0.000368314
0.00036659
0.000358529
0.000346529
0.000323111
0.000302888
0.000271354
0.000436761
0.000619016
0.000428
0.000266862
0.000293563
0.000313096
0.000335455
0.000346883
0.000354308
0.00035569
0.000353998
0.000346239
0.000334645
0.000312274
0.000292926
0.00026637
0.000427195
0.000600293
0.000418252
0.000262055
0.00028399
0.000302583
0.000323857
0.000334856
0.000341982
0.000343339
0.000341687
0.000334248
0.000323096
0.000301816
0.000283396
0.000261588
0.00041748
0.000581375
0.000408414
0.000257475
0.000274901
0.000292507
0.000312658
0.000323196
0.000330006
0.000331332
0.000329726
0.000322627
0.000311948
0.000291797
0.000274352
0.000257036
0.000407677
0.000562712
0.000398546
0.000253152
0.000266351
0.000282929
0.000301931
0.00031198
0.000318456
0.000319744
0.000318193
0.000311451
0.000301274
0.000282278
0.000265849
0.000252743
0.000397845
0.000544612
0.000388701
0.000249114
0.000258389
0.000273909
0.000291745
0.000301279
0.000307407
0.00030865
0.000307161
0.00030079
0.000291142
0.000273318
0.000257935
0.000248738
0.000388038
0.000526959
0.000378926
0.000245392
0.000251066
0.000265504
0.000282162
0.00029116
0.000296928
0.000298122
0.0002967
0.000290713
0.000281613
0.000264974
0.000250663
0.00024505
0.000378302
0.000509523
0.00036927
0.000242012
0.00024445
0.000257772
0.000273242
0.000281686
0.000287084
0.000288222
0.000286876
0.00028128
0.000272748
0.000257302
0.000244101
0.000241707
0.000368685
0.000492309
0.000359783
0.000239004
0.000238624
0.000250782
0.00026504
0.000272911
0.000277932
0.000279009
0.000277743
0.000272547
0.0002646
0.000250376
0.000238331
0.000238737
0.000359239
0.000475393
0.000350516
0.000236396
0.000233645
0.000244631
0.000257612
0.000264883
0.000269516
0.000270527
0.000269346
0.000264561
0.000257229
0.000244292
0.000233409
0.000236168
0.000350013
0.00045884
0.000341524
0.000234216
0.00022954
0.000239396
0.000251054
0.000257666
0.000261882
0.000262819
0.000261733
0.000257387
0.000250731
0.000239121
0.000229358
0.000234028
0.000341062
0.000442705
0.000332863
0.00023249
0.000226324
0.00023511
0.000245469
0.000251372
0.00025513
0.000255982
0.000255002
0.000251139
0.000245206
0.000234897
0.000226196
0.000232343
0.000332444
0.000427039
0.00032459
0.000231247
0.000224009
0.000231793
0.000240903
0.000246089
0.000249371
0.000250129
0.000249266
0.000245901
0.000240696
0.000231637
0.000223931
0.000231141
0.000324213
0.000411884
0.000316757
0.000230514
0.000222599
0.000229457
0.000237369
0.000241841
0.000244652
0.000245312
0.000244568
0.000241696
0.000237216
0.000229355
0.000222571
0.00023045
0.000316424
0.000397278
0.00030942
0.000230318
0.000222098
0.000228112
0.000234879
0.000238642
0.000240984
0.000241544
0.000240922
0.000238537
0.000234776
0.00022806
0.000222115
0.000230296
0.00030913
0.000383275
0.000302633
0.000230689
0.000222502
0.00022776
0.000233438
0.0002365
0.000238379
0.000238835
0.000238336
0.000236433
0.000233382
0.000227755
0.000222562
0.000230709
0.000302386
0.000369981
0.000296455
0.000231656
0.000223805
0.000228402
0.000233049
0.000235422
0.000236843
0.000237195
0.00023682
0.00023539
0.000233036
0.00022844
0.000223907
0.000231717
0.000296252
0.000357526
0.000290944
0.00023325
0.000226002
0.000230032
0.000233709
0.000235409
0.000236382
0.000236629
0.000236376
0.00023541
0.000233736
0.00023011
0.000226142
0.000233351
0.000290785
0.000345992
0.000286162
0.0002355
0.000229082
0.000232641
0.000235415
0.00023646
0.000236996
0.00023714
0.000237008
0.000236492
0.000235478
0.000232756
0.000229258
0.00023564
0.000286046
0.000335435
0.000282173
0.000238437
0.000233036
0.000236218
0.000238155
0.000238572
0.000238684
0.000238726
0.000238711
0.000238631
0.000238252
0.000236365
0.000233244
0.000238616
0.000282102
2.56517e-06
2.02056e-06
1.67578e-06
1.82554e-06
1.85328e-06
1.86803e-06
1.87333e-06
1.87633e-06
1.87586e-06
1.87742e-06
1.87563e-06
1.87097e-06
1.85616e-06
1.82834e-06
1.67763e-06
2.02181e-06
8.47911e-07
6.05412e-07
4.89195e-07
5.52896e-07
5.65032e-07
5.77362e-07
5.81881e-07
5.84924e-07
5.85022e-07
5.85341e-07
5.82713e-07
5.78421e-07
5.65971e-07
5.53855e-07
4.89888e-07
6.05703e-07
3.25294e-06
2.16258e-06
1.71657e-06
2.00094e-06
2.05609e-06
2.12556e-06
2.15114e-06
2.16892e-06
2.17007e-06
2.17067e-06
2.15454e-06
2.12987e-06
2.05963e-06
2.00471e-06
1.71949e-06
2.16333e-06
1.08538e-05
7.25422e-06
5.78777e-06
6.74102e-06
6.92634e-06
7.16457e-06
7.25229e-06
7.31334e-06
7.31748e-06
7.31918e-06
7.26353e-06
7.17884e-06
6.93796e-06
6.75349e-06
5.7976e-06
7.25657e-06
2.62695e-05
1.77685e-05
1.42891e-05
1.65806e-05
1.70258e-05
1.76059e-05
1.78193e-05
1.7968e-05
1.79783e-05
1.7982e-05
1.7846e-05
1.76399e-05
1.70533e-05
1.66103e-05
1.43129e-05
1.7774e-05
5.14912e-05
3.53109e-05
2.86684e-05
3.3112e-05
3.39718e-05
3.5112e-05
3.55304e-05
3.58234e-05
3.58438e-05
3.58501e-05
3.55817e-05
3.51772e-05
3.40243e-05
3.31691e-05
2.8715e-05
3.5321e-05
8.70989e-05
6.06508e-05
4.97935e-05
5.71994e-05
5.86218e-05
6.05503e-05
6.12556e-05
6.17524e-05
6.17871e-05
6.17964e-05
6.13397e-05
6.06572e-05
5.87072e-05
5.72931e-05
4.98718e-05
6.06665e-05
0.00013179
9.3367e-05
7.76409e-05
8.86233e-05
9.07108e-05
9.3618e-05
9.46768e-05
9.54282e-05
9.54806e-05
9.54925e-05
9.47991e-05
9.37737e-05
9.08342e-05
8.87602e-05
7.77581e-05
9.33881e-05
0.000182517
0.000131816
0.000111201
0.000126005
0.000128784
0.000132778
0.000134225
0.000135262
0.000135334
0.000135347
0.000134387
0.000132984
0.000128946
0.000126187
0.00011136
0.000131842
0.000235417
0.00017355
0.000148702
0.000167141
0.000170556
0.000175647
0.000177482
0.000178808
0.0001789
0.000178914
0.00017768
0.000175899
0.000170753
0.000167365
0.000148904
0.000173578
0.000286981
0.000216008
0.000188095
0.000209626
0.000213562
0.000219681
0.000221873
0.000223475
0.000223585
0.000223597
0.000222102
0.000219972
0.000213788
0.000209885
0.000188337
0.000216035
0.000334765
0.000257092
0.00022753
0.00025141
0.000255728
0.000262758
0.000265262
0.000267113
0.00026724
0.000267249
0.000265515
0.000263079
0.000255974
0.000251698
0.000227807
0.000257117
0.000377474
0.000295412
0.000265631
0.000291064
0.000295622
0.000303436
0.000306202
0.000308274
0.000308415
0.000308421
0.000306472
0.000303778
0.000295882
0.000291372
0.000265937
0.000295434
0.000414723
0.000330246
0.000301528
0.000327765
0.000332442
0.000340914
0.000343897
0.000346161
0.000346313
0.000346316
0.000344178
0.000341269
0.000332708
0.000328086
0.000301859
0.000330263
0.000446761
0.000361406
0.000334776
0.000361161
0.000365859
0.000374876
0.000378035
0.000380468
0.000380628
0.000380627
0.000378324
0.000375239
0.000366126
0.00036149
0.000335126
0.00036142
0.000473869
0.00038903
0.00036522
0.000391229
0.000395876
0.000405342
0.000408645
0.00041122
0.000411388
0.000411383
0.000408937
0.000405708
0.000396143
0.000391563
0.000365587
0.00038904
0.000496433
0.000413266
0.000392917
0.000418172
0.000422706
0.000432536
0.000435956
0.000438657
0.000438832
0.000438823
0.000436249
0.000432902
0.000422969
0.000418508
0.000393297
0.000413273
0.000514883
0.000434327
0.000418034
0.000442151
0.000446521
0.00045664
0.000460157
0.000462971
0.000463151
0.000463136
0.000460447
0.000457002
0.000446777
0.000442485
0.000418425
0.000434329
0.000529649
0.000452458
0.000440703
0.000463351
0.000467519
0.000477859
0.000481455
0.000484372
0.000484557
0.000484536
0.000481739
0.000478212
0.000467764
0.00046368
0.000441101
0.000452456
0.000541132
0.000467912
0.000461063
0.00048197
0.000485905
0.000496408
0.000500072
0.000503083
0.000503273
0.000503245
0.000500348
0.00049675
0.000486138
0.000482291
0.000461466
0.000467904
0.000549688
0.000480933
0.000479258
0.000498209
0.00050189
0.000512503
0.000516226
0.000519322
0.000519517
0.00051948
0.000516491
0.00051283
0.000502108
0.00049852
0.000479665
0.00048092
0.000555627
0.000491753
0.000495431
0.000512259
0.000515671
0.000526343
0.000530115
0.000533289
0.000533488
0.000533441
0.000530368
0.000526653
0.000515872
0.000512559
0.000495838
0.000491734
0.000559214
0.00050058
0.000509717
0.0005243
0.000527431
0.000538108
0.000541919
0.000545159
0.000545363
0.000545305
0.000542157
0.000538399
0.000527613
0.000524587
0.000510123
0.000500554
0.000560673
0.0005076
0.000522247
0.000534491
0.000537329
0.000547952
0.00055179
0.000555086
0.000555295
0.000555224
0.000552012
0.000548221
0.000537492
0.000534763
0.000522649
0.000507567
0.000560202
0.000512977
0.00053314
0.000542972
0.000545507
0.000556009
0.000559863
0.000563202
0.000563417
0.000563331
0.000560067
0.000556256
0.000545648
0.000543229
0.000533537
0.000512936
0.000557977
0.000516852
0.000542508
0.000549867
0.000552085
0.0005624
0.000566255
0.000569624
0.000569845
0.000569744
0.000566441
0.000562622
0.000552206
0.000550108
0.000542898
0.000516804
0.000554163
0.000519349
0.000550449
0.000555283
0.000557172
0.000567227
0.000571069
0.000574453
0.000574683
0.000574563
0.000571237
0.000567424
0.000557271
0.000555508
0.000550829
0.000519294
0.00054892
0.000520575
0.000557045
0.000559314
0.000560861
0.000570582
0.000574397
0.000577781
0.000578019
0.000577879
0.000574544
0.000570753
0.000560939
0.000559523
0.000557415
0.000520512
0.000542403
0.000520624
0.00056237
0.000562045
0.000563234
0.000572549
0.000576319
0.000579687
0.000579935
0.000579774
0.000576446
0.000572693
0.000563291
0.000562239
0.000562729
0.000520554
0.000534731
0.00051958
0.000566487
0.000563552
0.000564368
0.000573202
0.000576913
0.000580247
0.000580507
0.000580322
0.000577019
0.000573319
0.000564403
0.00056373
0.000566832
0.000519502
0.000526015
0.000517519
0.00056945
0.000563905
0.000564331
0.000572614
0.000576249
0.000579533
0.000579806
0.000579595
0.000576333
0.000572703
0.000564344
0.000564067
0.000569782
0.000517435
0.000516362
0.000514512
0.000571308
0.000563169
0.000563188
0.000570853
0.000574396
0.000577614
0.0005779
0.000577663
0.000574459
0.000570915
0.000563181
0.000563316
0.000571625
0.000514422
0.000505878
0.000510626
0.000572107
0.000561407
0.000561003
0.00056799
0.000571424
0.000574557
0.000574858
0.000574593
0.000571465
0.000568023
0.000560975
0.000561539
0.000572408
0.00051053
0.00049466
0.000505925
0.000571887
0.000558681
0.000557837
0.00056409
0.0005674
0.000570434
0.00057075
0.000570457
0.000567419
0.000564096
0.000557788
0.000558798
0.000572171
0.000505823
0.000482806
0.000500473
0.000570687
0.000555051
0.000553751
0.000559224
0.000562396
0.000565315
0.000565646
0.000565324
0.000562392
0.000559201
0.000553681
0.000555152
0.000570954
0.000500366
0.000470409
0.000494335
0.000568547
0.000550574
0.000548806
0.000553462
0.000556482
0.000559272
0.00055962
0.000559267
0.000556455
0.00055341
0.000548714
0.00055066
0.000568795
0.000494224
0.00045756
0.000487579
0.000565503
0.000545311
0.000543062
0.000546876
0.000549733
0.000552382
0.000552745
0.000552363
0.000549683
0.000546795
0.000542948
0.00054538
0.000565733
0.000487463
0.000444345
0.000480272
0.000561595
0.00053932
0.000536582
0.000539538
0.000542223
0.000544721
0.0005451
0.000544688
0.00054215
0.000539429
0.000536445
0.000539373
0.000561806
0.000480151
0.00043085
0.000472485
0.000556862
0.000532658
0.000529427
0.000531525
0.000534031
0.00053637
0.000536764
0.000536323
0.000533935
0.000531387
0.000529267
0.000532694
0.000557053
0.00047236
0.000417158
0.00046429
0.000551345
0.000525385
0.000521662
0.000522915
0.000525237
0.000527413
0.00052782
0.000527352
0.000525117
0.000522747
0.000521477
0.000525402
0.000551517
0.00046416
0.000403349
0.000455755
0.000545089
0.000517557
0.00051335
0.000513786
0.000515925
0.000517935
0.000518356
0.000517861
0.000515782
0.00051359
0.000513141
0.000517555
0.00054524
0.000455622
0.000389504
0.000446936
0.000538138
0.000509233
0.000504562
0.000504225
0.000506183
0.00050803
0.000508461
0.000507942
0.000506016
0.000503999
0.000504327
0.000509212
0.000538268
0.0004468
0.000375703
0.00043785
0.000530537
0.000500478
0.000495369
0.000494319
0.0004961
0.000497788
0.000498229
0.000497688
0.000495909
0.000494062
0.000495107
0.000500436
0.000530646
0.000437711
0.000362026
0.00042852
0.000522324
0.00049136
0.000485848
0.000484153
0.000485765
0.0004873
0.000487748
0.000487187
0.00048555
0.000483867
0.000485558
0.000491297
0.000522412
0.000428379
0.000348555
0.000418981
0.000513529
0.000481954
0.000476079
0.000473805
0.000475249
0.000476635
0.000477087
0.000476511
0.000475011
0.000473491
0.000475761
0.000481868
0.000513596
0.00041884
0.000335373
0.000409273
0.000504171
0.000472337
0.000466132
0.000463313
0.000464575
0.000465805
0.00046626
0.000465671
0.000464318
0.000462975
0.000465787
0.000472229
0.000504216
0.000409131
0.000322566
0.000399434
0.000494269
0.000462572
0.000456041
0.000452668
0.000453736
0.000454804
0.000455258
0.000454661
0.000453462
0.00045231
0.000455675
0.000462442
0.000494294
0.000399291
0.000310221
0.000389501
0.000483855
0.000452671
0.000445804
0.00044188
0.000442746
0.000443648
0.000444098
0.000443497
0.000442457
0.000441504
0.00044542
0.000452524
0.000483861
0.000389359
0.000298421
0.000379512
0.00047298
0.000442633
0.000435434
0.00043098
0.000431635
0.000432369
0.000432813
0.000432211
0.000431334
0.000430589
0.000435035
0.000442472
0.000472967
0.000379372
0.000287237
0.000369506
0.000461724
0.000432483
0.000424965
0.000420002
0.000420436
0.000420996
0.00042143
0.000420834
0.000420125
0.0004196
0.000424554
0.000432309
0.000461696
0.000369367
0.000276724
0.000359519
0.000450204
0.000422255
0.000414432
0.000408981
0.000409182
0.000409563
0.000409984
0.000409397
0.000408864
0.00040857
0.000414013
0.000422072
0.000450164
0.000359384
0.000266909
0.000349595
0.000438569
0.000411989
0.000403875
0.000397952
0.000397908
0.000398106
0.000398509
0.000397938
0.000397586
0.000397537
0.00040345
0.000411799
0.000438519
0.000349464
0.0002578
0.000339775
0.000426986
0.000401725
0.000393331
0.000386956
0.000386656
0.000386666
0.000387048
0.000386498
0.000386333
0.00038654
0.000392906
0.000401531
0.00042693
0.000339648
0.000249397
0.000330099
0.000415602
0.000391501
0.000382845
0.000376038
0.000375473
0.000375294
0.00037565
0.000375127
0.000375152
0.000375624
0.000382422
0.000391305
0.000415544
0.000329978
0.000241686
0.000320606
0.000404478
0.000381357
0.000372461
0.000365245
0.000364412
0.000364045
0.000364374
0.000363881
0.000364097
0.000364838
0.000372044
0.000381162
0.000404417
0.000320491
0.000234642
0.000311334
0.000393525
0.000371328
0.000362222
0.000354628
0.00035353
0.00035298
0.000353278
0.00035282
0.000353223
0.000354231
0.000361814
0.000371136
0.000393462
0.000311226
0.000228232
0.00030232
0.000382686
0.00036145
0.000352165
0.000344229
0.000342874
0.000342149
0.000342416
0.000341995
0.000342577
0.000343844
0.000351769
0.000361261
0.000382623
0.000302219
0.000222422
0.000293603
0.000371996
0.000351755
0.000342326
0.000334088
0.000332487
0.000331597
0.00033183
0.000331449
0.000332201
0.000333718
0.000341944
0.000351571
0.000371933
0.00029351
0.00021718
0.000285219
0.000361488
0.000342276
0.000332738
0.000324241
0.000322406
0.000321364
0.000321564
0.000321223
0.000322134
0.000323888
0.000332373
0.0003421
0.000361427
0.000285134
0.000212476
0.000277207
0.000351198
0.000333045
0.000323432
0.000314721
0.000312669
0.000311487
0.000311654
0.000311354
0.000312411
0.000314387
0.000323084
0.000332876
0.000351139
0.00027713
0.000208294
0.000269605
0.000341159
0.00032409
0.000314437
0.000305562
0.000303311
0.000302006
0.000302139
0.000301881
0.00030307
0.000305248
0.00031411
0.000323931
0.000341102
0.000269535
0.000204626
0.000262451
0.000331406
0.000315441
0.000305785
0.000296803
0.000294375
0.000292963
0.000293064
0.000292847
0.000294152
0.000296511
0.00030548
0.000315292
0.000331353
0.000262389
0.000201479
0.000255782
0.000321975
0.000307127
0.00029751
0.00028848
0.000285902
0.000284402
0.000284472
0.000284296
0.000285698
0.000288212
0.000297227
0.000306989
0.000321926
0.000255728
0.000198874
0.000249639
0.000312903
0.000299179
0.000289644
0.000280629
0.000277929
0.000276362
0.000276403
0.000276267
0.000277744
0.000280385
0.000289385
0.000299054
0.000312859
0.000249591
0.000196842
0.000244057
0.000304233
0.000291631
0.000282222
0.000273286
0.000270493
0.000268881
0.000268894
0.000268797
0.000270328
0.000273067
0.000281987
0.000291518
0.000304193
0.000244016
0.000195416
0.000239072
0.00029601
0.000284517
0.00027528
0.000266488
0.000263634
0.000262
0.000261989
0.000261927
0.00026349
0.000266295
0.00027507
0.000284417
0.000295975
0.000239038
0.000194616
0.00023472
0.000288281
0.000277874
0.000268856
0.000260276
0.000257398
0.000255768
0.000255734
0.000255706
0.000257275
0.000260109
0.000268671
0.000277787
0.000288252
0.000234691
0.000194461
0.000231032
0.000281094
0.000271736
0.000262983
0.000254687
0.000251823
0.000250225
0.000250173
0.000250175
0.000251723
0.000254546
0.000262824
0.000271663
0.00028107
0.000231007
0.000194966
0.000228037
0.000274494
0.000266135
0.000257692
0.000249747
0.00024694
0.0002454
0.000245334
0.000245361
0.00024686
0.000249632
0.000257556
0.000266075
0.000274475
0.000228017
0.000196143
0.000225762
0.000268524
0.000261103
0.00025301
0.000245481
0.000242771
0.000241315
0.00024124
0.000241287
0.000242711
0.000245391
0.000252898
0.000261056
0.000268509
0.000225745
0.000197997
0.00022423
0.000263227
0.000256672
0.000248964
0.00024191
0.000239336
0.000237989
0.00023791
0.000237971
0.000239295
0.000241844
0.000248875
0.000256636
0.000263218
0.000224215
0.00020053
0.000223459
0.000258649
0.000252876
0.000245583
0.000239056
0.000236652
0.000235437
0.000235358
0.000235429
0.00023663
0.000239012
0.000245516
0.000252852
0.000258642
0.000223445
0.000203738
0.000223464
0.00025483
0.000249751
0.000242898
0.000236938
0.000234738
0.000233673
0.000233598
0.000233675
0.000234733
0.000236915
0.000242851
0.000249738
0.000254827
0.00022345
0.000207612
0.000224256
0.000251813
0.000247335
0.000240939
0.000235579
0.000233609
0.000232711
0.000232645
0.000232722
0.000233621
0.000235576
0.000240912
0.000247331
0.000251812
0.000224242
0.000212143
0.000225843
0.000249639