/*--------------------------------*- C++ -*----------------------------------*\
| =========                 |                                                 |
| \\      /  F ield         | OpenFOAM: The Open Source CFD Toolbox           |
|  \\    /   O peration     | Version:  v1912                                 |
|   \\  /    A nd           | Website:  www.openfoam.com                      |
|    \\/     M anipulation  |                                                 |
\*---------------------------------------------------------------------------*/
FoamFile
{
    version     2.0;
    format      ascii;
    class       volScalarField;
    location    "199.6";
    object      omega;
}
// * * * * * * * * * * * * * * * * * * * * * * * * * * * * * * * * * * * * * //

dimensions      [0 0 -1 0 0 0 0];


internalField   nonuniform List<scalar> 
10147
(
156509
156509
156509
156509
156509
156509
156509
156509
156509
156509
156509
156509
156509
156509
156509
156509
26873.7
26817.9
26491.8
27045.6
27042.5
27044.4
27044.1
27044.4
27044.2
27044.4
27044.1
27044.5
27042.5
27045.6
26499.1
26823.4
9153.58
9182.48
9125.01
9244.5
9241.57
9243.12
9242.72
9242.96
9242.77
9243
9242.76
9243.19
9241.61
9244.57
9126.75
9183.96
4381.06
4420.9
4414.88
4449.82
4446.88
4448.09
4447.61
4447.75
4447.57
4447.8
4447.67
4448.17
4446.94
4449.9
4415.57
4421.54
2549.57
2590.2
2600.46
2610.76
2607.69
2608.63
2608.07
2608.11
2607.93
2608.17
2608.14
2608.74
2607.77
2610.86
2600.86
2590.6
1684.68
1723.83
1740.81
1741.94
1738.79
1739.51
1738.86
1738.82
1738.64
1738.89
1738.96
1739.63
1738.9
1742.05
1741.12
1724.15
1217.16
1253.86
1273.62
1270.65
1267.57
1268.05
1267.35
1267.24
1267.06
1267.32
1267.46
1268.2
1267.69
1270.78
1273.88
1254.15
938.41
972.09
992.529
987.412
984.509
984.765
984.023
983.852
983.675
983.931
984.144
984.922
984.647
987.547
992.764
972.364
758.662
789.095
808.994
802.544
799.913
799.929
799.163
798.933
798.767
799.014
799.291
800.095
800.063
802.684
809.21
789.356
634.792
661.998
680.675
673.28
670.967
670.728
669.945
669.657
669.504
669.738
670.079
670.902
671.125
673.423
680.875
662.246
544.404
568.585
585.739
577.61
575.62
575.112
574.309
573.965
573.825
574.046
574.448
575.29
575.786
577.755
585.925
568.822
475.202
496.684
512.287
503.557
501.861
501.067
500.24
499.837
499.709
499.916
500.383
501.251
502.035
503.704
512.46
496.911
420.135
439.319
453.433
444.28
442.828
441.735
440.873
440.408
440.291
440.486
441.02
441.924
443.01
444.431
453.595
439.536
374.999
392.281
404.897
395.591
394.354
392.979
392.087
391.564
391.458
391.642
392.237
393.172
394.543
395.745
405.048
392.488
337.184
352.862
363.95
354.749
353.711
352.097
351.186
350.62
350.523
350.696
351.338
352.291
353.906
354.906
364.092
353.059
305.002
319.23
328.839
319.948
319.086
317.273
316.355
315.758
315.671
315.833
316.507
317.467
319.284
320.107
328.974
319.416
277.31
290.145
298.388
289.971
289.263
287.302
286.389
285.777
285.699
285.849
286.54
287.494
289.463
290.132
298.516
290.319
253.296
264.754
271.768
263.958
263.385
261.335
260.442
259.831
259.763
259.9
260.589
261.523
263.584
264.119
271.89
264.914
232.368
242.438
248.373
241.272
240.819
238.759
237.912
237.324
237.266
237.39
238.052
238.94
241.015
241.432
248.491
242.582
214.005
222.765
227.741
221.441
221.098
219.118
218.337
217.772
217.722
217.834
218.469
219.288
221.287
221.597
227.854
222.901
197.797
205.426
209.504
204.098
203.854
202.001
201.279
200.734
200.691
200.794
201.404
202.161
204.033
204.247
209.612
205.552
183.424
190.125
193.38
188.932
188.766
187.031
186.359
185.84
185.802
185.897
186.477
187.183
188.935
189.073
193.483
190.239
170.621
176.601
179.15
175.635
175.516
173.902
173.283
172.783
172.747
172.837
173.392
174.045
175.677
175.768
179.246
176.704
159.227
164.6
166.557
163.856
163.767
162.282
161.71
161.233
161.198
161.284
161.813
162.416
163.919
163.982
166.646
164.694
149.08
153.877
155.408
153.392
153.32
151.964
151.431
150.98
150.947
151.029
151.528
152.091
153.465
153.512
155.492
153.961
140.015
144.26
145.507
144.065
144.006
142.768
142.269
141.847
141.816
141.893
142.362
142.888
144.143
144.179
145.586
144.333
131.891
135.607
136.622
135.71
135.676
134.541
134.075
133.682
133.653
133.725
134.162
134.654
135.805
135.818
136.695
135.671
124.586
127.798
128.616
128.19
128.19
127.15
126.718
126.352
126.325
126.393
126.799
127.256
128.311
128.292
128.684
127.853
117.997
120.728
121.374
121.392
121.429
120.483
120.085
119.747
119.721
119.786
120.161
120.581
121.542
121.488
121.437
120.775
112.032
114.306
114.794
115.217
115.296
114.442
114.081
113.771
113.746
113.807
114.151
114.533
115.4
115.307
114.853
114.345
106.615
108.454
108.791
109.585
109.705
108.945
108.621
108.34
108.316
108.373
108.684
109.027
109.802
109.669
108.844
108.484
101.677
103.102
103.289
104.423
104.587
103.919
103.633
103.383
103.36
103.413
103.691
103.994
104.674
104.5
103.337
103.124
97.161
98.1899
98.223
99.6697
99.8771
99.3034
99.0562
98.8361
98.8148
98.863
99.1075
99.3699
99.9567
99.7406
98.2653
98.2051
93.0151
93.6669
93.5349
95.2709
95.523
95.0436
94.8359
94.6467
94.6271
94.6707
94.881
95.1021
95.5944
95.3352
93.5718
93.675
89.1963
89.4876
89.1756
91.1791
91.477
91.0932
90.9257
90.7676
90.75
90.7887
90.9646
91.1437
91.5398
91.2365
89.2072
89.4889
85.6671
85.6119
85.1021
87.3522
87.697
87.4112
87.2848
87.1582
87.1429
87.1764
87.3175
87.4537
87.7511
87.4026
85.1285
85.6067
82.3949
82.0027
81.2779
83.7534
84.146
83.9616
83.8774
83.7829
83.7701
83.7982
83.904
83.996
84.1911
83.7969
81.2992
81.9912
79.351
78.6268
77.672
80.3507
80.7917
80.7127
80.6722
80.6105
80.6004
80.623
80.6925
80.739
80.8277
80.3872
77.6881
78.6095
76.5099
75.4553
74.2581
77.1158
77.606
77.6368
77.6415
77.6138
77.6066
77.6233
77.6557
77.6549
77.633
77.1452
74.2693
75.4324
73.8492
72.4627
71.0146
74.0254
74.5651
74.71
74.7617
74.7691
74.7651
74.7757
74.7696
74.7198
74.5832
74.0475
71.0211
72.4346
71.3494
69.627
67.9239
71.0631
71.6507
71.9128
72.0134
72.0571
72.0565
72.0607
72.015
71.9145
71.6598
71.0777
67.9257
69.5941
68.993
66.9292
64.9715
68.217
68.85
69.2272
69.3773
69.4579
69.4609
69.4587
69.3726
69.2211
68.8504
68.2242
64.9689
66.8919
66.7651
64.3531
62.1459
65.4773
66.1528
66.6401
66.8386
66.9555
66.9624
66.9535
66.828
66.6265
66.1446
65.4772
62.1392
64.3118
64.653
61.885
59.4382
62.8342
63.5495
64.1406
64.387
64.5401
64.5511
64.5354
64.3708
64.1196
63.5329
62.8272
59.4275
61.8402
62.6458
59.5132
56.8413
60.2763
61.0294
61.7183
62.0141
62.2052
62.2206
62.1979
61.9924
61.6902
61.0044
60.2625
56.8269
59.4653
60.7352
57.2272
54.3498
57.7937
58.5818
59.3664
59.716
59.9504
59.9707
59.9406
59.6888
59.3312
58.5483
57.773
54.3321
57.1767
58.9145
55.0174
51.9598
55.3792
56.1985
57.083
57.4903
57.7653
57.7904
57.7531
57.4578
57.0409
56.1568
55.3518
51.939
54.9649
57.1699
52.8754
49.6683
53.0297
53.876
54.8691
55.329
55.6418
55.6714
55.6273
55.2917
54.8205
53.8267
52.9962
49.6447
52.8212
55.4833
50.7935
47.4703
50.7462
51.6164
52.7197
53.2272
53.5743
53.6083
53.5577
53.1855
52.6654
51.5603
50.7073
47.4443
50.7382
53.8417
48.7655
45.3619
48.5331
49.4265
50.6323
51.1817
51.5595
51.5977
51.541
51.1361
50.5728
49.3647
48.4893
45.334
48.7096
52.2343
46.7982
43.3434
46.3937
47.3125
48.605
49.1907
49.5952
49.6372
49.575
49.1417
48.5411
47.2459
46.3455
43.3138
46.7423
50.6515
44.9084
41.4154
44.3274
45.2732
46.6363
47.2522
47.6791
47.7247
47.6575
47.2002
46.5688
45.2022
44.2755
41.3846
44.8529
49.0853
43.0949
39.5784
42.3406
43.2987
44.7242
45.3637
45.8084
45.8574
45.7856
45.3093
44.6536
43.2243
42.2865
39.5467
43.0402
47.5302
41.354
37.8323
40.4429
41.3948
42.8666
43.5226
43.9804
44.0324
43.9566
43.4662
42.7936
41.3187
40.388
37.8001
41.3005
45.9825
39.683
36.1758
38.6409
39.5718
41.066
41.7276
42.1922
42.2467
42.1677
41.6699
40.9917
39.4955
38.5861
36.1434
39.6312
44.4392
38.0799
34.607
36.9349
37.8375
39.3207
39.9855
40.448
40.5038
40.4232
39.9273
39.2463
37.7618
36.8806
34.5745
38.0295
42.8976
36.5418
33.1222
35.3204
36.1927
37.6453
38.3003
38.76
38.8159
38.7348
38.2424
37.5717
36.1181
35.2668
33.09
36.4931
41.3547
35.0666
31.7177
33.7909
34.6332
36.0452
36.6839
37.1341
37.1888
37.1089
36.6268
35.9728
34.5599
33.738
31.6859
35.0197
39.8081
33.6526
30.3898
32.3391
33.1525
34.5178
35.1376
35.5755
35.6288
35.5507
35.0815
34.4467
33.0806
32.287
30.3587
33.6075
38.259
32.2984
29.1354
30.9584
31.7438
33.0579
33.6578
34.082
34.1338
34.0574
33.6026
32.9882
31.6734
30.9072
29.1051
32.2554
36.7258
31.0039
27.9519
29.6429
30.4004
31.6574
32.2367
32.6462
32.6969
32.6219
32.1829
31.5892
30.3317
29.5927
27.9226
30.9629
35.243
29.7696
26.8374
28.3879
29.1193
30.3245
30.8829
31.2758
31.3252
31.2523
30.8309
30.2584
29.0526
28.3388
26.8091
29.7309
33.832
28.5971
25.7903
27.1897
27.8999
29.0531
29.5913
29.9683
30.0168
29.9455
29.5409
28.989
27.8352
27.1418
25.7633
28.5607
32.4977
27.4881
24.81
26.0459
26.7375
27.8385
28.3564
28.7177
28.7653
28.6955
28.3078
27.7765
26.6748
25.9995
24.7844
27.454
31.2437
26.4439
23.8964
24.9553
25.6294
26.6774
27.1746
27.5198
27.5667
27.4984
27.1278
26.6176
25.5689
24.9105
23.8723
26.4121
30.0619
25.4645
23.0499
23.9222
24.5739
25.5679
26.0437
26.3723
26.4184
26.3516
25.9986
25.5104
24.5159
23.8797
23.0275
25.4349
28.9414
24.5497
22.2715
22.9568
23.5717
24.5091
24.9625
25.274
25.3193
25.2541
24.9194
24.4541
23.5167
22.9181
22.2508
24.5223
27.8806
23.6993
21.5621
22.0809
22.6312
23.5012
23.9303
24.2239
24.2682
24.2048
23.8893
23.4488
22.5808
22.047
21.5431
23.6742
26.8786
22.9141
20.9224
21.3057
21.7768
22.5499
22.9532
23.2293
23.2724
23.2112
22.9146
22.5011
21.733
21.2766
20.9052
22.8913
25.9339
22.1962
20.3534
20.6297
21.0271
21.6822
22.0449
22.2989
22.3405
22.282
22.0099
21.6394
20.9902
20.6047
20.3381
22.1756
25.0463
21.5481
19.856
20.05
20.3849
20.9297
21.24
21.4595
21.4976
21.4447
21.2101
20.8936
20.3543
20.0288
19.8424
21.5298
24.2161
20.9721
19.4313
19.5646
19.8485
20.2994
20.5624
20.7452
20.779
20.7329
20.5378
20.2696
19.8237
19.5467
19.4195
20.9561
23.4446
20.4701
19.0805
19.1718
19.4162
19.7876
20.0093
20.1606
20.1901
20.1504
19.9891
19.763
19.3965
19.1569
19.0704
20.4561
22.7342
20.0437
18.8051
18.8706
19.0839
19.3887
19.5734
19.6977
19.723
19.6894
19.557
19.3687
19.0674
18.8583
18.7967
20.0317
22.0913
19.695
18.607
18.6604
18.8488
19.0988
19.2499
19.3506
19.3717
19.3439
19.2368
19.0827
18.8352
18.6505
18.6002
19.6849
21.5321
19.4266
18.4881
18.5411
18.7103
18.915
19.0355
19.1152
19.1323
19.11
19.0252
18.9022
18.6994
18.5333
18.4827
19.4183
21.0728
19.2413
18.4533
18.5133
18.6688
18.8358
18.9284
18.9892
19.0023
18.9852
18.9206
18.826
18.6602
18.5074
18.4495
19.2347
20.7196
19.1422
18.5041
18.5792
18.7239
18.8589
18.926
18.9709
18.9802
18.968
18.9204
18.8517
18.7174
18.575
18.5016
19.1372
20.4745
19.1328
18.6424
18.7389
18.876
18.984
19.028
19.0591
19.0648
19.0572
19.0242
18.9791
18.8713
18.7362
18.641
19.1294
156509
156509
156509
156509
156509
156509
156509
156509
156509
156509
156509
156509
156509
156509
156509
156509
27056.6
26993.6
26956.8
26975.7
26978.2
26980.1
26980.8
26981.2
26981.2
26981.3
26981
26980.4
26978.4
26975.9
26956.9
26993.7
9257.8
9202.99
9169.88
9186.51
9188.67
9190.28
9190.86
9191.24
9191.24
9191.33
9191.06
9190.53
9188.91
9186.74
9170.02
9203.07
4466.63
4418.44
4388.22
4402.92
4404.91
4406.31
4406.82
4407.12
4407.12
4407.21
4407
4406.54
4405.15
4403.15
4388.37
4418.52
2630.74
2586.9
2558.04
2571.67
2573.59
2574.86
2575.32
2575.57
2575.57
2575.66
2575.52
2575.1
2573.83
2571.91
2558.21
2586.99
1763.21
1723.74
1696.18
1708.85
1710.67
1711.81
1712.22
1712.41
1712.42
1712.51
1712.42
1712.06
1710.92
1709.1
1696.36
1723.85
1290.82
1256.69
1231.12
1242.53
1244.15
1245.12
1245.46
1245.57
1245.58
1245.67
1245.66
1245.38
1244.41
1242.78
1231.3
1256.81
1004.44
976.501
953.709
963.477
964.832
965.567
965.798
965.833
965.841
965.929
965.992
965.816
965.086
963.725
953.897
976.629
815.143
793.732
774.296
782.15
783.181
783.644
783.752
783.701
783.707
783.794
783.939
783.884
783.427
782.389
774.481
793.867
680.998
665.919
650.081
655.911
656.607
656.787
656.769
656.632
656.635
656.722
656.947
657.016
656.844
656.139
650.261
666.059
580.733
571.357
559.036
562.899
563.282
563.193
563.057
562.842
562.84
562.928
563.224
563.41
563.508
563.112
559.208
571.5
502.83
498.292
489.159
491.239
491.352
491.03
490.789
490.508
490.503
490.59
490.948
491.235
491.568
491.439
489.323
498.438
440.622
439.982
433.574
434.137
434.035
433.519
433.194
432.86
432.851
432.939
433.345
433.714
434.242
434.326
433.729
440.132
389.84
392.352
388.14
387.489
387.224
386.561
386.171
385.797
385.785
385.873
386.315
386.748
387.423
387.667
388.287
392.506
347.623
352.61
350.231
348.672
348.288
347.521
347.086
346.687
346.673
346.76
347.224
347.699
348.48
348.842
350.371
352.76
312.066
318.889
318.099
315.859
315.389
314.556
314.095
313.686
313.669
313.756
314.226
314.725
315.572
316.019
318.232
319.033
281.845
289.921
290.486
287.74
287.213
286.348
285.878
285.473
285.454
285.54
286.002
286.509
287.388
287.89
290.613
290.059
255.98
264.8
266.476
263.398
262.84
261.976
261.515
261.123
261.103
261.186
261.632
262.128
263.007
263.539
266.596
264.932
233.669
242.861
245.41
242.162
241.595
240.792
240.341
239.967
239.944
240.027
240.452
240.935
241.752
242.295
245.524
242.981
214.33
223.612
226.797
223.528
222.973
222.224
221.788
221.431
221.406
221.488
221.891
222.359
223.122
223.653
226.904
223.723
197.489
206.627
210.26
207.06
206.532
205.84
205.422
205.085
205.057
205.139
205.519
205.967
206.673
207.178
210.361
206.728
182.692
191.558
195.489
192.424
191.936
191.296
190.898
190.579
190.548
190.63
190.99
191.416
192.068
192.534
195.584
191.65
169.625
178.126
182.22
179.344
178.904
178.309
177.931
177.632
177.601
177.68
178.017
178.422
179.03
179.448
182.309
178.209
158.03
166.103
170.297
167.661
167.271
166.727
166.371
166.093
166.062
166.138
166.452
166.833
167.39
167.759
170.381
166.177
147.696
155.319
159.551
157.184
156.844
156.353
156.019
155.762
155.731
155.805
156.096
156.452
156.955
157.275
159.629
155.386
138.451
145.617
149.837
147.749
147.459
147.02
146.71
146.473
146.443
146.514
146.781
147.113
147.563
147.835
149.909
145.677
130.153
136.858
141.023
139.219
138.979
138.589
138.303
138.087
138.057
138.125
138.37
138.676
139.077
139.3
141.091
136.91
122.687
128.922
133.001
131.476
131.287
130.943
130.681
130.484
130.455
130.519
130.743
131.024
131.379
131.552
133.063
128.968
115.955
121.708
125.672
124.421
124.282
123.98
123.742
123.564
123.537
123.597
123.8
124.055
124.367
124.491
125.729
121.747
109.857
115.128
118.954
117.965
117.878
117.615
117.401
117.242
117.216
117.272
117.454
117.684
117.957
118.031
119.006
115.16
104.309
109.107
112.774
112.037
111.999
111.775
111.585
111.444
111.419
111.472
111.633
111.838
112.072
112.098
112.821
109.133
99.2424
103.581
107.068
106.57
106.583
106.395
106.23
106.106
106.083
106.132
106.273
106.452
106.65
106.627
107.11
103.6
94.6014
98.4921
101.78
101.512
101.574
101.422
101.281
101.175
101.154
101.198
101.32
101.472
101.635
101.564
101.818
98.5054
90.3363
93.7939
96.8621
96.8126
96.9242
96.8074
96.6918
96.6038
96.5846
96.624
96.7263
96.8522
96.9791
96.86
96.895
93.8014
86.4043
89.4448
92.2714
92.431
92.5915
92.5115
92.4217
92.3513
92.3345
92.3689
92.4515
92.5502
92.6404
92.4738
92.2997
89.4468
82.7683
85.4008
87.9708
88.3308
88.5403
88.4986
88.4354
88.3829
88.3687
88.398
88.4606
88.5313
88.5828
88.3688
87.9946
85.3978
79.3955
81.5969
83.9278
84.4805
84.7391
84.7384
84.7028
84.6685
84.6572
84.6811
84.7232
84.7649
84.7752
84.5135
83.9472
81.589
76.2576
78.0127
80.1144
80.8527
81.1614
81.2048
81.1979
81.1825
81.1742
81.1925
81.2135
81.225
81.1909
80.8807
80.1294
78.0003
73.3291
74.6327
76.5061
77.4244
77.7845
77.876
77.8993
77.9034
77.8984
77.9109
77.91
77.8898
77.8073
77.4471
76.5169
74.6158
70.588
71.4443
73.0822
74.1762
74.5904
74.7345
74.7894
74.8141
74.8125
74.819
74.7951
74.7417
74.6063
74.1936
73.0889
71.4233
68.0145
68.4371
69.8245
71.0925
71.5649
71.7665
71.855
71.9013
71.9032
71.9036
71.8555
71.7672
71.5737
71.1043
69.8272
68.4122
65.5913
65.5987
66.7179
68.161
68.6771
68.9273
69.0482
69.118
69.1243
69.1174
69.0433
68.9208
68.6785
68.1671
66.7167
65.5704
63.3031
62.9099
63.7498
65.3599
65.8978
66.1864
66.3417
66.4358
66.4464
66.4324
66.3312
66.1727
65.8918
65.3599
63.7448
62.8786
61.1365
60.3539
60.9095
62.6696
63.2099
63.547
63.7386
63.858
63.8728
63.8519
63.7227
63.5263
63.1965
62.6631
60.901
60.3197
59.0801
57.9205
58.1884
60.0758
60.6166
61.0116
61.2402
61.3856
61.4044
61.3769
61.2191
60.984
60.5956
60.0629
58.1764
57.8839
57.124
55.6017
55.5789
57.5715
58.1202
58.576
58.8396
59.0094
59.0322
58.9985
58.8139
58.5425
58.0919
57.5522
55.5638
55.5629
55.2594
53.3909
53.0748
55.1593
55.7167
56.2277
56.5238
56.7162
56.7427
56.7033
56.4941
56.189
55.6822
55.1336
53.0566
53.3502
53.4777
51.2829
50.671
52.8317
53.3954
53.9576
54.285
54.499
54.529
54.4843
54.2517
53.9143
53.3555
52.8005
50.65
51.2406
51.7707
49.2735
48.3638
50.5788
51.1493
51.764
52.1209
52.3551
52.3884
52.3388
52.0843
51.7164
51.1046
50.5428
48.3403
49.2299
50.1301
47.3598
46.1519
48.3976
48.9782
49.6453
50.0296
50.2825
50.3188
50.2647
49.99
49.5939
48.9292
48.3572
46.1262
47.315
48.548
45.5264
44.0365
46.2889
46.8823
47.6004
48.0094
48.2792
48.3182
48.2602
47.9672
47.5457
46.8296
46.2443
44.009
45.4807
47.0121
43.7472
42.0228
44.2537
44.8618
45.6283
46.0589
46.3435
46.3849
46.3235
46.0145
45.5708
44.8058
44.2052
41.994
43.7009
45.5112
42.0218
40.118
42.2936
42.9168
43.728
44.1767
44.4737
44.5171
44.4527
44.1304
43.6681
42.8582
42.2426
40.0884
41.9753
44.0394
40.3524
38.3281
40.4144
41.0477
41.8982
42.361
42.6679
42.7129
42.6462
42.3132
41.8364
40.9869
40.362
38.2981
40.3062
42.592
38.7403
36.6501
38.6199
39.2555
40.1384
40.6115
40.9254
40.9716
40.9033
40.5628
40.0755
39.1932
38.5671
36.6198
38.6948
41.1651
37.1862
35.0647
36.9106
37.5418
38.4504
38.9306
39.2493
39.2963
39.2269
38.8815
38.387
37.4789
36.8582
35.0344
37.1417
39.7562
35.6905
33.558
35.2828
35.9074
36.8353
37.3201
37.642
37.6896
37.6196
37.2711
36.7719
35.8442
35.2314
33.5279
35.6472
38.3646
34.2533
32.1289
33.7312
34.3514
35.2929
35.7801
36.1036
36.1515
36.0813
35.7315
35.23
34.2884
33.6809
32.0992
34.2113
36.9911
32.8746
30.7755
32.2549
32.8726
33.8224
34.3098
34.6334
34.6814
34.6114
34.2617
33.7601
32.81
32.2059
30.7464
32.8343
35.6394
31.5548
29.4957
30.8526
31.4687
32.4222
32.9077
33.23
33.278
33.2083
32.8605
32.3608
31.4069
30.8049
29.4674
31.5162
34.3163
30.2944
28.2869
29.5223
30.1379
31.0925
31.5742
31.8939
31.9416
31.8727
31.5276
31.0323
30.077
29.4761
28.2594
30.2576
33.0306
29.0941
27.1466
28.2622
28.8743
29.8137
30.289
30.6059
30.6534
30.5848
30.2428
29.7541
28.8145
28.2174
27.1201
29.0592
31.7904
27.9548
26.0728
27.0706
27.67
28.5841
29.0491
29.3599
29.4069
29.3389
29.0036
28.5257
27.6116
27.0274
26.0473
27.922
30.602
26.8778
25.0642
25.9463
26.5244
27.4042
27.8551
28.1568
28.2032
28.1361
27.8106
27.3472
26.4678
25.9047
25.04
26.8471
29.4694
25.8642
24.1211
24.8895
25.4385
26.2752
26.708
26.9978
27.0433
26.9776
26.6649
26.2202
25.3842
24.8499
24.0982
25.8356
28.3945
24.915
23.2451
23.9001
24.4153
25.2009
25.6113
25.8862
25.9303
25.8667
25.5699
25.1483
24.3639
23.8628
23.2237
24.8885
27.3779
24.0313
22.4384
22.9838
23.4604
24.1885
24.5734
24.8315
24.8738
24.8129
24.5342
24.1389
23.4126
22.9494
22.4186
24.007
26.4201
23.2144
21.7026
22.1464
22.5802
23.2451
23.6025
23.8427
23.883
23.8253
23.566
23.199
22.5365
22.1152
21.6844
23.1922
25.5217
22.4655
21.0385
21.3922
21.781
22.3769
22.705
22.9262
22.9643
22.9101
22.6714
22.3346
21.7419
21.3643
21.022
22.4454
24.6834
21.7863
20.4469
20.7236
21.0709
21.5919
21.8884
22.0893
22.1248
22.0745
21.858
21.5538
21.0361
20.6989
20.4321
21.7682
23.9066
21.1785
19.9286
20.142
20.4506
20.898
21.1616
21.3407
21.3734
21.3276
21.1348
20.8645
20.4198
20.1206
19.9155
21.1624
23.1933
20.6438
19.4849
19.6485
19.9205
20.3008
20.5321
20.6893
20.7188
20.6778
20.5089
20.2717
19.8935
19.63
19.4735
20.6296
22.5462
20.184
19.1172
19.2435
19.4816
19.8039
20.0039
20.1402
20.1666
20.1305
19.9842
19.7793
19.4579
19.2278
19.1073
20.1717
21.9692
19.801
18.8271
18.9276
19.1366
19.4108
19.5784
19.6959
19.719
19.6877
19.562
19.3903
19.117
18.9144
18.8188
19.7904
21.4677
19.4966
18.6165
18.7015
18.8873
19.1206
19.2587
19.3566
19.3766
19.35
19.2454
19.1037
18.8713
18.6906
18.6097
19.4877
21.0481
19.273
18.4878
18.566
18.7339
18.9325
19.0457
19.1258
19.1421
19.1205
19.0351
18.9189
18.7209
18.5572
18.4824
19.2656
20.7169
19.1326
18.4434
18.5225
18.6771
18.8466
18.9386
19.0031
19.0161
18.9991
18.9304
18.8358
18.6668
18.5155
18.4393
19.1267
20.4796
19.0787
18.4848
18.5722
18.7174
18.8622
18.9354
18.9872
18.9969
18.9843
18.9294
18.8539
18.7092
18.5668
18.482
19.0741
20.3402
19.1129
18.6161
18.7171
18.8561
18.98
19.0362
19.0765
19.0832
19.0746
19.032
18.9738
18.8499
18.7131
18.6144
19.1096
156509
156509
156509
156509
156509
156509
156509
156509
156509
156509
156509
156509
156509
156509
156509
156509
25916.7
26284.3
26326.5
26875.4
26816.4
26803.8
26796.8
26784.3
26786.2
26788.3
26802.2
26811
26824.7
26883.6
26331.8
26289
8942.58
9066.74
9090.42
9204.47
9188.54
9186.83
9184.92
9182.16
9182.48
9183.18
9186.3
9188.72
9190.68
9206.59
9091.73
9067.95
4311.1
4385.23
4407.27
4440.25
4433.57
4434.02
4433.14
4432.37
4432.35
4432.75
4433.64
4434.71
4434.31
4440.98
4407.81
4385.78
2521.78
2578.52
2601.61
2611.02
2606.94
2607.89
2607.24
2607.01
2606.88
2607.21
2607.49
2608.23
2607.27
2611.35
2601.95
2578.89
1673.67
1721.62
1745.6
1746.08
1742.88
1743.88
1743.25
1743.18
1742.99
1743.31
1743.43
1744.11
1743.09
1746.28
1745.86
1721.92
1214.28
1256.05
1279.98
1276.5
1273.75
1274.6
1273.95
1273.9
1273.7
1274
1274.1
1274.79
1273.91
1276.67
1280.22
1256.32
940.134
976.524
999.429
994.001
991.573
992.202
991.526
991.443
991.238
991.537
991.664
992.382
991.728
994.15
999.647
976.775
763.343
794.728
815.839
809.343
807.23
807.584
806.884
806.753
806.555
806.841
807.02
807.759
807.384
809.489
816.043
794.966
641.518
668.248
687.131
679.974
678.17
678.22
677.499
677.312
677.126
677.395
677.634
678.393
678.327
680.12
687.321
668.472
552.563
575.078
591.628
583.999
582.482
582.21
581.467
581.219
581.049
581.298
581.602
582.383
582.644
584.147
591.805
575.289
484.297
503.138
517.527
509.5
508.233
507.628
506.859
506.547
506.394
506.623
506.995
507.802
508.401
509.652
517.693
503.336
429.717
445.492
457.966
449.673
448.606
447.66
446.859
446.481
446.343
446.553
446.996
447.836
448.782
449.831
458.123
445.679
384.655
397.978
408.691
400.35
399.451
398.197
397.372
396.935
396.812
397.006
397.51
398.375
399.634
400.512
408.838
398.152
346.547
357.977
367.013
358.824
358.075
356.58
355.752
355.273
355.165
355.342
355.889
356.757
358.264
358.99
367.152
358.146
313.759
323.69
331.206
323.331
322.709
321.047
320.238
319.739
319.645
319.805
320.372
321.222
322.901
323.499
331.337
323.852
285.228
293.928
300.104
292.696
292.184
290.474
289.715
289.222
289.143
289.285
289.843
290.643
292.375
292.863
300.228
294.082
260.169
267.897
272.889
266.147
265.731
264.102
263.4
262.921
262.855
262.981
263.522
264.261
265.917
266.31
273.008
268.04
238.025
245.026
248.974
243.123
242.793
241.261
240.619
240.154
240.101
240.212
240.735
241.411
242.97
243.278
249.087
245.161
218.384
224.873
227.963
223.137
222.863
221.363
220.743
220.28
220.232
220.335
220.855
221.507
223.03
223.283
228.07
224.997
200.924
207.134
209.551
205.593
205.358
203.89
203.293
202.835
202.791
202.888
203.4
204.027
205.518
205.732
209.65
207.245
185.456
191.509
193.325
190.12
189.917
188.489
187.917
187.468
187.428
187.518
188.019
188.621
190.07
190.253
193.418
191.609
171.746
177.61
178.988
176.422
176.249
174.871
174.324
173.887
173.851
173.935
174.421
174.996
176.394
176.549
179.075
177.7
159.59
165.204
166.251
164.256
164.109
162.79
162.27
161.849
161.815
161.895
162.363
162.909
164.248
164.377
166.332
165.286
148.805
154.1
154.886
153.414
153.293
152.041
151.55
151.146
151.115
151.189
151.637
152.154
153.425
153.529
154.963
154.174
139.229
144.134
144.712
143.719
143.625
142.447
141.984
141.6
141.571
141.642
142.067
142.553
143.75
143.828
144.784
144.2
130.716
135.165
135.572
135.021
134.954
133.854
133.422
133.059
133.032
133.099
133.5
133.955
135.072
135.124
135.639
135.222
123.118
127.069
127.332
127.189
127.15
126.133
125.732
125.392
125.366
125.429
125.805
126.227
127.261
127.286
127.394
127.119
116.311
119.741
119.878
120.112
120.102
119.17
118.8
118.484
118.46
118.518
118.868
119.257
120.206
120.203
119.936
119.783
110.194
113.086
113.112
113.692
113.712
112.867
112.529
112.237
112.215
112.27
112.592
112.948
113.809
113.776
113.165
113.122
104.677
107.025
106.946
107.844
107.897
107.139
106.834
106.567
106.547
106.597
106.891
107.214
107.986
107.923
106.995
107.054
99.6723
101.484
101.308
102.497
102.583
101.913
101.64
101.4
101.38
101.427
101.693
101.981
102.664
102.569
101.352
101.506
95.1034
96.4
96.1316
97.5857
97.706
97.1245
96.8853
96.6706
96.6529
96.6955
96.9326
97.1859
97.7802
97.6523
96.1716
96.4165
90.9096
91.7174
91.3609
93.0559
93.2112
92.7178
92.5124
92.3241
92.3082
92.3467
92.5546
92.7725
93.2781
93.1163
91.3964
91.7281
87.0486
87.386
86.9466
88.8591
89.0499
88.6444
88.4733
88.3119
88.2978
88.332
88.5104
88.6925
89.1094
88.9133
86.9776
87.3911
83.4828
83.3705
82.8459
84.9532
85.1798
84.8618
84.7258
84.5915
84.5795
84.6091
84.7578
84.9033
85.2318
85.0012
82.8725
83.3701
80.1796
79.6675
79.0215
81.3017
81.5636
81.3332
81.2328
81.1261
81.1162
81.1412
81.2596
81.368
81.6082
81.3436
79.0436
79.662
77.1104
76.2416
75.4408
77.8728
78.1689
78.0259
77.9619
77.8832
77.8757
77.8957
77.9836
78.054
78.206
77.9083
75.4586
76.2312
74.2507
73.0577
72.0759
74.6385
74.9671
74.9115
74.8846
74.8344
74.8295
74.8445
74.9012
74.933
74.9967
74.6677
72.0893
73.0428
71.5794
70.0837
68.9024
71.5747
71.9327
71.965
71.9759
71.9547
71.9525
71.9623
71.9874
71.9799
71.9548
71.5977
68.9116
70.0644
69.0785
67.2921
65.8995
68.6606
69.0423
69.1624
69.2122
69.221
69.2217
69.226
69.2185
69.1705
69.0568
68.6771
65.9045
67.2688
66.7327
64.6591
63.0494
65.8723
66.2905
66.5106
66.6023
66.6408
66.644
66.6436
66.6037
66.5123
66.2975
65.8823
63.0505
64.632
64.5297
62.1635
60.3372
63.2027
63.6766
64.0099
64.1435
64.2123
64.2182
64.2127
64.1399
64.005
63.676
63.2063
60.3344
62.133
62.4596
59.7869
57.7504
60.6488
61.1948
61.6362
61.8114
61.9105
61.9194
61.9086
61.8029
61.6248
61.1866
60.6462
57.7439
59.7534
60.5121
57.5134
55.2787
58.2074
58.8261
59.3695
59.5856
59.7146
59.7266
59.7103
59.5721
59.3516
58.8104
58.1985
55.2686
57.4772
58.6626
55.3291
52.9138
55.873
56.5549
57.1931
57.4486
57.6065
57.6219
57.6
57.4304
57.1689
56.532
55.858
52.9004
55.2905
56.8834
53.2221
50.6491
53.632
54.3681
55.0927
55.3859
55.5713
55.5901
55.5625
55.363
55.0625
54.3383
53.6112
50.6326
53.1815
55.1585
51.1822
48.4799
51.4735
52.255
53.0567
53.385
53.5961
53.6185
53.5851
53.3578
53.0207
52.2188
51.4473
48.4605
51.14
53.478
49.2165
46.401
49.3885
50.207
51.0755
51.4362
51.6706
51.6968
51.6576
51.4048
51.0341
50.1648
49.3574
46.3789
49.1729
51.8345
47.3264
44.4078
47.3703
48.2173
49.1416
49.5313
49.7866
49.8164
49.7716
49.4961
49.0954
48.1697
47.335
44.3835
47.2818
50.2225
45.5088
42.4987
45.4141
46.2812
47.2494
47.6643
47.9372
47.9708
47.9204
47.6256
47.1988
46.2288
45.3752
42.4725
45.4634
48.6372
43.7595
40.673
43.5167
44.3952
45.3946
45.8304
46.1178
46.1551
46.0993
45.7886
45.34
44.3386
43.475
40.6452
43.7136
47.0746
42.076
38.9306
41.6767
42.5571
43.5744
44.0265
44.3247
44.3657
44.3047
43.9821
43.5165
42.4971
41.6325
38.9015
42.03
45.5315
40.454
37.2705
39.8948
40.7674
41.7894
42.2576
42.566
42.6099
42.545
42.2111
41.7289
40.7049
39.8487
37.2405
40.4081
44.0051
38.89
35.6911
38.1801
39.0337
40.0522
40.5338
40.8513
40.8974
40.8295
40.4859
39.9901
38.9699
38.133
35.6604
38.8446
42.493
37.382
34.1892
36.5417
37.369
38.3756
38.8644
39.1878
39.2357
39.1656
38.8159
38.313
37.3051
36.4943
34.1582
37.3372
40.9933
35.9285
32.7615
34.9835
35.7816
36.7716
37.2606
37.5857
37.6341
37.5634
37.2123
36.7092
35.7183
34.936
32.7304
35.8846
39.5047
34.5288
31.4054
33.505
34.2718
35.2451
35.7304
36.0538
36.102
36.0318
35.6825
35.1833
34.2094
33.4576
31.3744
34.486
38.0278
33.1826
30.1187
32.0994
32.8347
33.795
34.2748
34.5952
34.6427
34.5735
34.2277
33.7341
32.7731
32.0524
30.0881
33.1412
36.5675
31.8903
28.8995
30.7605
31.4669
32.4175
32.8908
33.2076
33.2542
33.1862
32.8445
32.3575
31.4063
30.714
28.8696
31.8504
35.1402
30.6524
27.7464
29.4826
30.1697
31.1092
31.5741
31.8865
31.9323
31.8655
31.5287
31.0505
30.1101
29.4368
27.7172
30.6142
33.7699
29.4701
26.6581
28.2599
28.9358
29.863
30.3201
30.6269
30.6718
30.6063
30.2755
29.8054
28.8773
28.215
26.6299
29.4337
32.4747
28.3447
25.6339
27.0954
27.7602
28.6727
29.1218
29.4233
29.4674
29.403
29.0781
28.6162
27.7027
27.0512
25.6069
28.3101
31.2629
27.2775
24.6736
25.9852
26.6389
27.5338
27.9746
28.2704
28.3139
28.2504
27.9317
27.4785
26.5826
25.942
24.6478
27.2449
30.1236
26.2697
23.7773
24.9276
25.569
26.4436
26.8752
27.1647
27.2077
27.1451
26.8333
26.3896
25.514
24.8853
23.753
26.239
29.0423
25.3219
22.9458
23.9222
24.549
25.4002
25.8218
26.1045
26.1469
26.0852
25.781
25.3477
24.4955
23.8813
22.923
25.2933
28.0175
24.4347
22.1799
22.9768
23.5786
24.4031
24.8139
25.0892
25.1311
25.0705
24.7743
24.3522
23.527
22.9385
22.1587
24.408
27.0491
23.6086
21.4809
22.112
22.6651
23.4527
23.8518
24.1193
24.1607
24.1011
23.8136
23.4036
22.6168
22.0774
21.4615
23.584
26.1359
22.845
20.8498
21.3412
21.8312
22.5533
22.9371
23.196
23.2369
23.1784
22.9005
22.507
21.7878
21.3108
20.8322
22.8224
25.277
22.1458
20.2879
20.6649
21.0925
21.7283
22.0815
22.3249
22.3648
22.3083
22.0478
21.6868
21.0547
20.6383
20.2721
22.1254
24.472
21.5136
19.7964
20.0816
20.4541
21.0041
21.3151
21.5319
21.569
21.5171
21.2855
20.9682
20.4218
20.0586
19.7825
21.4953
23.7215
20.9504
19.3767
19.5904
19.9154
20.3874
20.6568
20.844
20.8772
20.8312
20.6315
20.3566
19.8875
19.5707
19.3646
20.9343
23.0274
20.4585
19.0303
19.1908
19.4738
19.8764
20.1075
20.2673
20.2965
20.2564
20.0859
19.8499
19.4498
19.1741
19.0201
20.4444
22.3947
20.0401
18.7591
18.8825
19.129
19.4679
19.6665