-0.0075 	373
-0.00715932 	361.494
-0.00676191 	359.701
-0.00629832 	358.979
-0.00575752 	358.531
-0.00512667 	358.177
-0.00439077 	357.857
-0.00353231 	357.545
-0.00253089 	357.223
-0.00136271 	356.875
0 	356.488
0.00136271 	356.064
0.00253089 	355.619
0.00353231 	355.16
0.00439077 	354.673
0.00512667 	354.118
0.00575752 	353.413
0.00629832 	352.37
0.00676191 	350.123
0.00715932 	338.757
0.0075 	313
