/*--------------------------------*- C++ -*----------------------------------*\
| =========                 |                                                 |
| \\      /  F ield         | OpenFOAM: The Open Source CFD Toolbox           |
|  \\    /   O peration     | Version:  v1912                                 |
|   \\  /    A nd           | Website:  www.openfoam.com                      |
|    \\/     M anipulation  |                                                 |
\*---------------------------------------------------------------------------*/
FoamFile
{
    version     2.0;
    format      ascii;
    class       volScalarField;
    location    "100";
    object      alphat;
}
// * * * * * * * * * * * * * * * * * * * * * * * * * * * * * * * * * * * * * //

dimensions      [1 -1 -1 0 0 0 0];


internalField   nonuniform List<scalar> 
2000
(
3.09194e-06
2.31612e-05
5.0558e-05
6.4973e-05
6.72533e-05
6.80347e-05
6.72515e-05
6.49746e-05
5.05662e-05
2.31763e-05
1.30783e-05
0.000446829
0.000697658
0.000807632
0.000830533
0.000837702
0.000830517
0.000807633
0.0006977
0.000446942
8.32969e-05
0.00191355
0.00212425
0.00227102
0.00230714
0.00232162
0.0023071
0.00227098
0.00212428
0.00191363
0.00086437
0.00341127
0.00372223
0.00394099
0.00399622
0.00401918
0.00399616
0.00394089
0.0037223
0.00341135
0.00263128
0.0052198
0.00555854
0.00577347
0.00584691
0.00587901
0.0058468
0.00577331
0.0055586
0.00521993
0.00509748
0.0075616
0.00777603
0.00782467
0.00790706
0.00794621
0.00790687
0.00782439
0.00777594
0.00756169
0.00819642
0.010842
0.00961914
0.00958793
0.00970487
0.00975963
0.00970458
0.0095874
0.00961878
0.0108419
0.0120646
0.014178
0.0115222
0.0111724
0.0112679
0.0113251
0.0112675
0.0111717
0.0115215
0.0141772
0.0168692
0.016913
0.0137232
0.0132313
0.0133439
0.0133953
0.0133436
0.0132307
0.0137225
0.0169122
0.0211466
0.0189652
0.0166362
0.0165879
0.0167776
0.0168166
0.0167777
0.016588
0.0166361
0.0189646
1.42591e-05
6.80752e-05
9.75436e-05
0.000109921
0.000116716
0.00011883
0.000116718
0.000109926
9.75589e-05
6.80927e-05
6.3998e-05
0.00083799
0.0009931
0.00106784
0.00111913
0.00113285
0.00111914
0.00106787
0.000993183
0.0008381
0.000684424
0.00300169
0.00307321
0.00316327
0.00325005
0.00327512
0.00325008
0.00316333
0.00307329
0.00300175
0.00255721
0.00504667
0.00536425
0.00555843
0.00567701
0.00571716
0.00567707
0.00555854
0.00536438
0.00504685
0.00443888
0.00691789
0.00779485
0.0080917
0.00823971
0.0082945
0.0082398
0.00809185
0.00779511
0.00691828
0.0063873
0.00900167
0.0105707
0.0108945
0.0110642
0.0111283
0.0110643
0.0108947
0.0105711
0.00900227
0.00827828
0.0115749
0.0137389
0.0140985
0.0142983
0.0143652
0.0142984
0.0140988
0.0137394
0.0115757
0.0102516
0.0145382
0.0172747
0.0175933
0.017838
0.0178894
0.0178383
0.0175939
0.0172752
0.0145391
0.0128768
0.0162166
0.0193999
0.0199627
0.0202045
0.0202473
0.020205
0.0199635
0.0194006
0.0162174
0.0128976
0.0166322
0.0192227
0.0196268
0.0198001
0.019834
0.0198005
0.0196275
0.0192231
0.0166329
1.16177e-05
7.40468e-05
9.36845e-05
9.94157e-05
0.000102959
0.000103568
0.00010296
9.94187e-05
9.36937e-05
7.40703e-05
0.000293177
0.000783065
0.000846101
0.000862297
0.000876272
0.000877891
0.000876264
0.000862296
0.000846141
0.00078318
0.00245586
0.00281547
0.00257416
0.00258487
0.00261465
0.00262164
0.00261464
0.00258486
0.00257419
0.00281546
0.00530578
0.00506156
0.00448854
0.00450618
0.00455992
0.00457634
0.0045599
0.00450613
0.00448852
0.00506147
0.00760334
0.00696684
0.00629521
0.00631594
0.0063942
0.00642294
0.00639414
0.0063158
0.00629514
0.00696678
0.00963752
0.00891714
0.00815311
0.00810342
0.0081938
0.00823569
0.00819366
0.00810314
0.00815295
0.00891711
0.0117374
0.0114642
0.00991395
0.00980141
0.00988063
0.0099339
0.00988033
0.00980084
0.00991346
0.0114642
0.0142845
0.014839
0.0116331
0.0111844
0.0112676
0.0113284
0.0112672
0.0111836
0.0116323
0.0148382
0.0178122
0.0172297
0.0137586
0.0131678
0.0132617
0.0133209
0.0132614
0.0131672
0.0137578
0.0172288
0.0211819
0.0189527
0.0164974
0.0163499
0.0165487
0.0166035
0.0165487
0.0163499
0.0164973
0.0189521
5.76522e-05
9.10894e-05
0.000104057
0.000113748
0.000120869
0.00012301
0.00012087
0.000113751
0.000104067
9.11078e-05
0.000742352
0.00093854
0.000997957
0.00105553
0.00110012
0.00111313
0.00110011
0.00105554
0.000998006
0.00093864
0.00336982
0.00336012
0.00316566
0.00320725
0.00328469
0.00330606
0.0032847
0.00320729
0.00316568
0.00336013
0.00649168
0.00620076
0.00586821
0.00589811
0.00600964
0.00604391
0.0060097
0.00589822
0.00586822
0.00620078
0.00910893
0.00870743
0.00852636
0.0086066
0.00875245
0.00880278
0.00875256
0.00860679
0.00852644
0.00870762
0.0106295
0.0105976
0.0111306
0.0113177
0.0115002
0.0115648
0.0115004
0.011318
0.0111308
0.0105981
0.0116266
0.0125199
0.0140057
0.0143933
0.014619
0.0146952
0.0146192
0.0143936
0.0140062
0.0125206
0.0124236
0.0148923
0.017455
0.0179976
0.0181684
0.0182192
0.0181687
0.0179981
0.0174557
0.0148933
0.0127004
0.0165448
0.0196732
0.0202517
0.0204285
0.020469
0.020429
0.0202525
0.0196739
0.0165458
0.0120631
0.0166652
0.0192539
0.0197029
0.0198391
0.0198639
0.0198396
0.0197037
0.0192543
0.0166659
3.19062e-05
8.33511e-05
9.77753e-05
0.000100457
0.000102491
0.000102461
0.00010249
0.000100457
9.77804e-05
8.33719e-05
0.000455309
0.000747906
0.000839076
0.000851029
0.000861383
0.000861363
0.000861361
0.000851012
0.000839097
0.000748019
0.00285145
0.00258673
0.00251201
0.00251766
0.00253523
0.00253692
0.00253518
0.00251762
0.00251202
0.00258678
0.00642997
0.00507089
0.00460108
0.00454857
0.00457532
0.00457929
0.00457526
0.00454848
0.00460101
0.00507079
0.0100426
0.00770459
0.00674709
0.00660806
0.00664731
0.00665932
0.00664721
0.00660789
0.0067469
0.00770429
0.0127232
0.0103609
0.00859575
0.0084921
0.00853767
0.00857098
0.00853749
0.00849174
0.00859547
0.0103605
0.0147658
0.0129664
0.0103042
0.010018
0.0100616
0.0101047
0.0100614
0.0100175
0.0103036
0.0129659
0.0169496
0.0155983
0.0119432
0.0113457
0.0113805
0.0114282
0.0113801
0.0113449
0.0119423
0.0155975
0.0198837
0.0177679
0.0138633
0.0131357
0.01319
0.0132376
0.0131897
0.0131351
0.0138625
0.0177671
0.0218135
0.0191259
0.0164069
0.0162053
0.016398
0.0164442
0.016398
0.0162053
0.0164068
0.0191253
0.000101807
9.60647e-05
0.000104791
0.00011277
0.000118904
0.000120889
0.000118904
0.000112771
0.000104798
9.60775e-05
0.00108052
0.000938619
0.000988868
0.00104599
0.00109119
0.00110595
0.00109118
0.00104599
0.000988897
0.000938673
0.00395482
0.00321838
0.00311228
0.00317506
0.00325076
0.00327615
0.00325076
0.00317507
0.00311227
0.00321831
0.00748421
0.0062629
0.00583814
0.00585717
0.00595725
0.00598957
0.00595727
0.00585723
0.00583808
0.00626274
0.0103947
0.00922452
0.00869665
0.00867544
0.00879741
0.00883596
0.00879749
0.00867557
0.00869659
0.0092245
0.0122638
0.0116402
0.0114923
0.0115327
0.0116829
0.0117318
0.011683
0.0115329
0.0114924
0.0116405
0.0130638
0.0137357
0.0144776
0.0146965
0.01488
0.0149399
0.0148802
0.0146968
0.0144779
0.0137362
0.0129123
0.0155338
0.0178591
0.0182028
0.0183616
0.0184098
0.018362
0.0182034
0.0178596
0.0155346
0.0123625
0.0166935
0.0198949
0.0204425
0.0206011
0.0206409
0.0206015
0.0204433
0.0198957
0.0166945
0.0115599
0.0167389
0.0193918
0.0198499
0.0199527
0.0199774
0.0199532
0.0198507
0.0193923
0.0167397
3.4095e-05
9.02853e-05
0.000104915
0.000106541
0.000107823
0.000107672
0.00010782
0.000106538
0.000104916
9.02987e-05
0.000223389
0.000741441
0.000854875
0.000860607
0.0008657
0.000864183
0.000865676
0.000860581
0.000854881
0.000741522
0.0016061
0.00243099
0.00251955
0.00253584
0.00254823
0.00254903
0.00254819
0.00253578
0.00251955
0.00243101
0.00453903
0.00477937
0.0047048
0.00467372
0.00469104
0.00469358
0.00469097
0.00467359
0.00470479
0.0047793
0.00880149
0.00761899
0.00684274
0.00677556
0.00681194
0.0068278
0.00681184
0.00677535
0.00684259
0.0076186
0.013099
0.0107439
0.00885225
0.00865493
0.00869035
0.00871692
0.00869018
0.00865456
0.00885188
0.0107433
0.0158621
0.0136394
0.0106019
0.0101963
0.0102182
0.0102544
0.010218
0.0101957
0.0106013
0.0136387
0.0182043
0.0161271
0.0121226
0.0114264
0.01143
0.011471
0.0114297
0.0114256
0.0121216
0.0161263
0.0211886
0.0180713
0.0138292
0.0130428
0.01308
0.0131226
0.0130797
0.0130421
0.0138284
0.0180704
0.0228813
0.0191792
0.0162271
0.0160403
0.0162353
0.0162819
0.0162353
0.0160403
0.0162271
0.0191786
0.000121686
8.97722e-05
9.82117e-05
0.000105521
0.000111319
0.000113311
0.000111318
0.00010552
9.82178e-05
8.97839e-05
0.0013568
0.000909464
0.00095594
0.00100786
0.00105175
0.00106707
0.00105174
0.00100785
0.000955977
0.000909531
0.0043676
0.00293399
0.00291862
0.00300318
0.00308099
0.00310991
0.00308098
0.00300318
0.00291866
0.00293399
0.00815313
0.00556956
0.00544474
0.00553355
0.00563993
0.00567855
0.00563994
0.0055336
0.00544476
0.00556953
0.0111977
0.00857533
0.0083161
0.00836287
0.00849504
0.00853909
0.0084951
0.00836297
0.0083161
0.00857538
0.0125467
0.0113182
0.0114267
0.0114307
0.0115848
0.0116319
0.0115849
0.0114309
0.0114267
0.0113184
0.0123532
0.0135469
0.0147807
0.0148476
0.0150191
0.015068
0.0150193
0.0148478
0.0147808
0.0135473
0.0115841
0.0154384
0.0178909
0.0182163
0.0183934
0.0184361
0.0183938
0.018217
0.0178914
0.0154391
0.0114026
0.0167841
0.0200182
0.0205422
0.020709
0.0207434
0.0207095
0.020543
0.0200189
0.0167852
0.0112176
0.0169475
0.0196182
0.0200549
0.0201421
0.020163
0.0201426
0.0200557
0.0196187
0.0169483
4.08985e-05
9.44399e-05
0.000111587
0.000114651
0.000116853
0.000117232
0.00011685
0.000114649
0.000111588
9.44526e-05
0.000170204
0.000752006
0.000891971
0.000902943
0.000907059
0.000906388
0.000907034
0.000902921
0.000891975
0.000752097
0.000729831
0.00244792
0.00270249
0.00272398
0.00274675
0.00275173
0.00274671
0.00272393
0.00270248
0.00244805
0.00242831
0.00479387
0.00482196
0.0048491
0.00489068
0.00490041
0.00489061
0.004849
0.00482194
0.0047938
0.00661137
0.00769385
0.00698563
0.00693641
0.00698438
0.00700253
0.00698428
0.00693621
0.00698549
0.00769339
0.0107493
0.0107822
0.0089293
0.00874899
0.0087888
0.00881657
0.00878865
0.00874863
0.00892896
0.0107813
0.0137426
0.0135906
0.0105314
0.0101599
0.0101834
0.0102212
0.0101831
0.0101594
0.0105308
0.0135898
0.0166578
0.0160365
0.0119231
0.0112918
0.0112992
0.0113434
0.0112989
0.0112911
0.0119222
0.0160354
0.020397
0.0178347
0.0135929
0.0128941
0.0129448
0.0129911
0.0129445
0.0128935
0.0135921
0.0178337
0.0240713
0.0190111
0.0160866
0.0159514
0.0161552
0.0162063
0.0161552
0.0159514
0.0160865
0.0190105
6.02413e-05
4.56854e-05
6.03359e-05
7.14036e-05
7.75485e-05
7.94414e-05
7.75474e-05
7.14034e-05
6.03437e-05
4.57024e-05
0.0012731
0.000616754
0.00065789
0.000717979
0.000764934
0.000780139
0.000764926
0.00071797
0.000657924
0.000616842
0.00343874
0.00208951
0.00226704
0.00241232
0.00249848
0.0025267
0.00249847
0.00241233
0.00226713
0.00208974
0.00569771
0.00424967
0.00462432
0.0048406
0.0049893
0.00503497
0.00498931
0.00484066
0.00462448
0.00425012
0.00953156
0.00747286
0.00770338
0.00780962
0.00799393
0.00804859
0.00799396
0.00780969
0.00770341
0.00747324
0.0118292
0.0105509
0.0109191
0.0109521
0.0111674
0.011227
0.0111675
0.0109522
0.0109191
0.0105515
0.0105825
0.0131793
0.0141484
0.0142348
0.0144612
0.0145202
0.0144614
0.0142351
0.0141484
0.01318
0.00987113
0.0154419
0.0171074
0.01741
0.0176441
0.0176968
0.0176444
0.0174106
0.0171077
0.0154427
0.0103006
0.0168412
0.019322
0.0198754
0.020099
0.0201406
0.0200996
0.0198763
0.0193227
0.016842
0.0108418
0.0169737
0.0194019
0.0198868
0.0200053
0.0200283
0.0200058
0.0198876
0.0194025
0.0169744
0.0211602
0.0192678
0.0188875
0.0194429
0.0197045
0.0197285
0.0197049
0.0194436
0.0188883
0.0192675
0.0178879
0.0176254
0.0185262
0.0190563
0.0192174
0.0192091
0.0192178
0.0190569
0.018527
0.0176257
0.0145611
0.0148781
0.0159951
0.0164982
0.0166144
0.0166008
0.0166145
0.0164985
0.0159958
0.0148784
0.0118165
0.0124567
0.0132287
0.0136351
0.013721
0.0137137
0.0137209
0.0136352
0.0132292
0.0124569
0.00956332
0.00994697
0.0103586
0.0106069
0.0106327
0.0106216
0.0106326
0.0106068
0.0103589
0.00994714
0.0071085
0.00717664
0.00730957
0.00744049
0.00743572
0.0074271
0.00743562
0.00744038
0.00730965
0.00717673
0.00437475
0.00424625
0.00422907
0.00428321
0.00426527
0.00425964
0.00426521
0.00428313
0.00422904
0.00424627
0.00182703
0.00169398
0.00163841
0.0016536
0.00164187
0.0016392
0.00164184
0.00165355
0.00163836
0.00169397
0.00011719
0.000103339
9.76576e-05
0.000100237
0.000100142
0.000100123
0.00010014
0.000100234
9.76544e-05
0.000103338
8.77901e-06
8.42159e-06
8.27293e-06
8.50816e-06
8.59304e-06
8.61394e-06
8.59298e-06
8.50818e-06
8.27304e-06
8.42176e-06
0.013225
0.0154112
0.0162704
0.0163361
0.0163877
0.0164095
0.0163877
0.0163362
0.0162703
0.0154117
0.0135509
0.0139511
0.0135636
0.0134813
0.0134816
0.01351
0.0134813
0.0134809
0.0135632
0.0139499
0.0131587
0.0123418
0.0118896
0.0119126
0.0119367
0.011979
0.0119363
0.0119121
0.0118893
0.0123421
0.0116286
0.0107827
0.0105005
0.0105835
0.0106248
0.0106758
0.0106245
0.0105832
0.0105002
0.010783
0.0094558
0.00878517
0.00869512
0.00880829
0.00884881
0.00889676
0.00884872
0.00880815
0.00869493
0.00878538
0.00678084
0.00643465
0.00647138
0.00659186
0.00663968
0.00668658
0.00663971
0.00659189
0.00647125
0.00643479
0.0039104
0.0037054
0.0038091
0.00391309
0.00395441
0.00399112
0.00395451
0.00391319
0.00380905
0.00370548
0.00165911
0.00162379
0.00168527
0.00173061
0.00175648
0.0017713
0.00175652
0.00173065
0.00168527
0.00162381
0.000104836
9.87649e-05
0.000115223
0.000124856
0.000130931
0.000134183
0.000130943
0.00012487
0.000115222
9.87657e-05
4.75766e-06
4.56769e-06
5.0336e-06
5.41487e-06
5.64845e-06
5.75321e-06
5.64883e-06
5.41537e-06
5.03382e-06
4.56782e-06
0.0211852
0.0191512
0.0188344
0.0193031
0.019562
0.0195982
0.0195624
0.0193037
0.0188351
0.019151
0.0182064
0.0173724
0.0183517
0.0189155
0.0191162
0.0191247
0.0191166
0.0189161
0.0183524
0.0173738
0.0145714
0.0147281
0.015915
0.0164405
0.0165962
0.0165982
0.0165965
0.0164408
0.0159155
0.0147283
0.0115547
0.0120718
0.012977
0.0133875
0.0135116
0.0135128
0.0135117
0.0133876
0.0129774
0.012072
0.00888614
0.00924603
0.0098468
0.010123
0.0102081
0.0102205
0.0102081
0.010123
0.00984711
0.00924623
0.00624529
0.00628317
0.00676945
0.0069335
0.00697218
0.0069712
0.00697209
0.00693343
0.00676959
0.0062832
0.00343388
0.0034281
0.00368593
0.00377026
0.00381013
0.00382134
0.00381011
0.00377028
0.00368591
0.00342809
0.00159544
0.00155342
0.00158296
0.00159173
0.00159984
0.00160055
0.00159978
0.00159168
0.00158292
0.0015534
9.40257e-05
8.80607e-05
9.54819e-05
9.65687e-05
9.87816e-05
9.95118e-05
9.87782e-05
9.65676e-05
9.54764e-05
8.80582e-05
3.04029e-06
2.8099e-06
3.1581e-06
3.3174e-06
3.44412e-06
3.50243e-06
3.44416e-06
3.31748e-06
3.15795e-06
2.80983e-06
0.0124511
0.0151636
0.0161767
0.0162288
0.0162506
0.0162646
0.0162507
0.0162289
0.0161767
0.015164
0.0131193
0.0133178
0.01323
0.0131809
0.0131993
0.0132303
0.0131989
0.0131806
0.0132297
0.0133182
0.0123834
0.0116592
0.0113484
0.011388
0.0114559
0.0115052
0.0114555
0.0113876
0.0113481
0.0116595
0.010519
0.0098447
0.00970053
0.00979437
0.00989184
0.0099496
0.00989157
0.00979414
0.00970025
0.00984499
0.00814204
0.00779515
0.00793722
0.0080666
0.00817762
0.00822528
0.00817749
0.00806655
0.00793707
0.00779532
0.00553176
0.00536208
0.0055507
0.00565473
0.00575213
0.00578674
0.00575211
0.0056548
0.0055507
0.00536224
0.0034635
0.003423
0.00352641
0.00358812
0.00365147
0.00367129
0.00365146
0.00358817
0.00352643
0.00342308
0.00178046
0.00178685
0.00181851
0.00184933
0.0018765
0.00188355
0.00187649
0.00184935
0.00181854
0.00178688
0.000121723
0.000124948
0.000137076
0.000144198
0.000151965
0.000153701
0.000151969
0.000144208
0.000137085
0.000124952
3.20543e-06
3.24486e-06
3.71012e-06
3.97855e-06
4.24156e-06
4.31857e-06
4.24176e-06
3.97895e-06
3.71039e-06
3.24497e-06
0.0212336
0.0190626
0.0186816
0.0191315
0.019418
0.019455
0.0194183
0.0191321
0.0186822
0.0190624
0.017986
0.0171503
0.0180827
0.0186799
0.0189324
0.018948
0.0189328
0.0186805
0.0180834
0.0171504
0.0140542
0.0143799
0.0156256
0.0161785
0.0163813
0.0163922
0.0163816
0.0161788
0.0156262
0.0143802
0.0110866
0.0116207
0.0123289
0.0126606
0.0127917
0.0128132
0.0127918
0.0126607
0.0123291
0.0116208
0.00837988
0.00851542
0.00917068
0.00942352
0.00953061
0.00954937
0.00953064
0.00942363
0.00917085
0.0085155
0.00573415
0.00597552
0.006392
0.0065334
0.00660728
0.00661861
0.00660725
0.00653341
0.00639211
0.00597556
0.00365906
0.00381471
0.00396164
0.00402477
0.00406067
0.00406288
0.00406059
0.0040247
0.00396169
0.00381472
0.00180989
0.00185017
0.00187181
0.00189654
0.00190811
0.00190822
0.00190806
0.00189648
0.00187182
0.00185017
0.000116596
0.000116745
0.00011909
0.000121124
0.000123202
0.000123314
0.000123197
0.000121118
0.000119089
0.000116743
2.73344e-06
2.64401e-06
2.81965e-06
2.89024e-06
2.98113e-06
3.00417e-06
2.98107e-06
2.89024e-06
2.81962e-06
2.64398e-06
0.0119576
0.0151221
0.0161438
0.0161989
0.0161929
0.0162068
0.0161929
0.016199
0.0161438
0.0151225
0.0126165
0.0130782
0.0130509
0.0130328
0.0130483
0.0130823
0.0130479
0.0130325
0.0130506
0.0130784
0.0118815
0.0114197
0.0112166
0.0112908
0.0113726
0.0114258
0.0113722
0.0112904
0.0112164
0.0114197
0.0101618
0.00977862
0.00966173
0.0097671
0.00987961
0.00993709
0.00987929
0.00976684
0.00966154
0.00977888
0.00778979
0.00764145
0.0077571
0.00788244
0.00800804
0.00804882
0.00800792
0.00788241
0.00775709
0.00764168
0.00558636
0.00557066
0.00563968
0.00576187
0.00586159
0.00588575
0.00586152
0.00576186
0.00563974
0.00557084
0.00365858
0.00369588
0.00372073
0.00381625
0.00387875
0.00389271
0.00387872
0.00381624
0.00372079
0.00369599
0.00183402
0.00185783
0.00188182
0.00193292
0.00196337
0.00197142
0.00196337
0.00193292
0.00188185
0.00185787
0.000126647
0.00013352
0.000142484
0.000153804
0.000161643
0.000163368
0.000161646
0.00015381
0.000142494
0.000133524
3.29217e-06
3.46035e-06
3.78563e-06
4.08664e-06
4.33218e-06
4.38665e-06
4.33231e-06
4.0869e-06
3.78595e-06
3.46046e-06
0.0215937
0.0189631
0.018487
0.0189838
0.0192985
0.0193412
0.0192989
0.0189843
0.0184877
0.0189629
0.0178651
0.0170346
0.0178928
0.0185475
0.0188338
0.0188576
0.0188342
0.018548
0.0178936
0.0170347
0.0138265
0.0143084
0.0151928
0.0155095
0.0157012
0.0157276
0.0157013
0.0155097
0.0151931
0.0143089
0.0109066
0.011043
0.0116033
0.0119448
0.012089
0.0121033
0.012089
0.0119449
0.0116036
0.0110431
0.00795468
0.00825743
0.00877889
0.00903975
0.00913525
0.00914148
0.00913522
0.00903977
0.00877909
0.00825754
0.00581987
0.0061387
0.00644709
0.00660859
0.00666106
0.00666461
0.00666099
0.00660851
0.00644718
0.00613875
0.00392176
0.00410383
0.00423268
0.00431928
0.00434345
0.00434713
0.00434338
0.00431916
0.0042327
0.00410383
0.00192385
0.00197709
0.00201485
0.00205019
0.00206075
0.0020641
0.00206072
0.00205013
0.00201485
0.00197708
0.000122883
0.000124126
0.00012654
0.000129879
0.000131388
0.000131689
0.000131382
0.000129871
0.000126536
0.000124123
2.66178e-06
2.61382e-06
2.70426e-06
2.79942e-06
2.86747e-06
2.88059e-06
2.86736e-06
2.79929e-06
2.70418e-06
2.61378e-06
0.0116323
0.0152411
0.016273
0.0163105
0.0162749
0.0162832
0.016275
0.0163106
0.016273
0.0152415
0.0121998
0.0130659
0.0130518
0.0129895
0.0129696
0.0129996
0.0129693
0.0129892
0.0130515
0.0130662
0.0116069
0.0113958
0.0113182
0.0113778
0.0114394
0.0114965
0.0114389
0.0113775
0.0113179
0.0113962
0.0102675
0.0101051
0.0100689
0.0102333
0.0103468
0.010402
0.0103465
0.0102331
0.0100688
0.0101053
0.00816752
0.00815906
0.00824511
0.00839559
0.00851533
0.00855382
0.0085152
0.00839549
0.00824516
0.00815927
0.00618674
0.00627535
0.00631147
0.00645779
0.0065568
0.00658417
0.00655672
0.00645772
0.00631155
0.00627552
0.00400483
0.00408514
0.00409195
0.00420822
0.00427657
0.00429525
0.00427654
0.00420819
0.00409202
0.00408525
0.00185117
0.00187939
0.00189868
0.00195653
0.00199058
0.00200094
0.00199059
0.00195654
0.00189871
0.00187943
0.000128952
0.000137121
0.00014478
0.00015674
0.000164607
0.000166586
0.00016461
0.000156745
0.00014479
0.000137126
3.55909e-06
3.81215e-06
4.11524e-06
4.47365e-06
4.73582e-06
4.80167e-06
4.73594e-06
4.47387e-06
4.11556e-06
3.81223e-06
0.0221459
0.0189411
0.018392
0.0189361
0.0192599
0.0193081
0.0192603
0.0189366
0.0183927
0.0189409
0.0179813
0.0170754
0.0178957
0.0185805
0.0188679
0.0188957
0.0188683
0.0185812
0.0178965
0.0170755
0.013869
0.0144237
0.0151981
0.0155435
0.0157361
0.0157614
0.0157361
0.0155437
0.0151984
0.0144239
0.0109732
0.0113654
0.0118093
0.0121737
0.012311
0.0123181
0.0123109
0.0121738
0.0118096
0.0113654
0.00815924
0.00849095
0.00889589
0.00917347
0.00925269
0.00925047
0.00925262
0.00917343
0.0088961
0.00849108
0.00578361
0.00606096
0.00631092
0.00649335
0.0065316
0.00653358
0.00653152
0.00649325
0.00631099
0.00606105
0.00375694
0.00388612
0.00401654
0.00411285
0.00412655
0.00413274
0.00412649
0.00411276
0.00401653
0.00388615
0.00185249
0.0018879
0.00193835
0.00196714
0.00197016
0.0019741
0.00197012
0.00196709
0.00193833
0.0018879
0.000116463
0.000115736
0.000118466
0.000120698
0.000120773
0.000121113
0.000120767
0.000120691
0.000118459
0.000115735
2.33001e-06
2.27127e-06
2.33899e-06
2.4667e-06
2.52635e-06
2.54376e-06
2.52623e-06
2.46657e-06
2.33886e-06
2.27127e-06
0.0113076
0.0153211
0.0164669
0.0165498
0.0165266
0.01653
0.0165267
0.01655
0.0164669
0.0153215
0.0124471
0.0139658
0.0138721
0.0136373
0.0135419
0.0135508
0.0135416
0.013637
0.0138717
0.0139661
0.0118625
0.0122259
0.0120433
0.0119579
0.0119353
0.0119649
0.0119349
0.0119574
0.012043
0.0122263
0.0106717
0.0105451
0.010487
0.0105698
0.0106561
0.0107031
0.0106559
0.0105697
0.0104868
0.0105452
0.00879344
0.00879233
0.00890068
0.00907968
0.00919502
0.00924757
0.00919495
0.0090796
0.00890065
0.00879255
0.00724755
0.00742605
0.00756255
0.00770877
0.00779886
0.0078412
0.00779882
0.00770871
0.0075626
0.00742622
0.00547164
0.00567222
0.00569832
0.00572908
0.00576349
0.00578036
0.00576345
0.005729
0.00569838
0.00567231
0.00287604
0.00291578
0.00287753
0.00289751
0.00292109
0.00293133
0.0029211
0.00289751
0.00287758
0.00291581
0.000302885
0.000313409
0.000310517
0.000317308
0.00032467
0.000327043
0.000324673
0.000317311
0.000310534
0.000313409
1.22699e-05
1.31678e-05
1.39126e-05
1.44116e-05
1.48417e-05
1.49884e-05
1.48419e-05
1.4412e-05
1.39133e-05
1.3168e-05
)
;

boundaryField
{
    leftWall
    {
        type            compressible::alphatWallFunction;
        Prt             0.85;
        value           uniform 0;
    }
    rightWall
    {
        type            compressible::alphatWallFunction;
        Prt             0.85;
        value           uniform 0;
    }
    leftSides_periodic0
    {
        type            cyclic;
    }
    leftSides_periodic1
    {
        type            cyclic;
    }
    rightSides_periodic0
    {
        type            cyclic;
    }
    rightSides_periodic1
    {
        type            cyclic;
    }
    leftInOut_periodic0
    {
        type            cyclic;
    }
    leftInOut_periodic1
    {
        type            cyclic;
    }
    rightInOut_periodic0
    {
        type            cyclic;
    }
    rightInOut_periodic1
    {
        type            cyclic;
    }
}


// ************************************************************************* //
