/*--------------------------------*- C++ -*----------------------------------*\
| =========                 |                                                 |
| \\      /  F ield         | OpenFOAM: The Open Source CFD Toolbox           |
|  \\    /   O peration     | Version:  v1912                                 |
|   \\  /    A nd           | Website:  www.openfoam.com                      |
|    \\/     M anipulation  |                                                 |
\*---------------------------------------------------------------------------*/
FoamFile
{
    version     2.0;
    format      ascii;
    class       volScalarField;
    location    "100";
    object      k;
}
// * * * * * * * * * * * * * * * * * * * * * * * * * * * * * * * * * * * * * //

dimensions      [0 2 -2 0 0 0 0];


internalField   nonuniform List<scalar> 
2000
(
8.0425e-06
6.02349e-05
0.000131464
0.000168999
0.00017491
0.000176938
0.000174905
0.000169003
0.000131485
6.02742e-05
1.41056e-05
0.000294145
0.000481466
0.000559551
0.000579826
0.000585268
0.000579813
0.00055955
0.000481501
0.000294233
3.9568e-05
0.000805405
0.000849433
0.000876243
0.000895531
0.000900912
0.000895518
0.000876225
0.000849434
0.000805429
0.000258433
0.000946829
0.000880751
0.000889215
0.000902708
0.000907573
0.000902697
0.000889191
0.00088074
0.000946782
0.000817007
0.000903338
0.000789163
0.000798661
0.000808464
0.000813381
0.000808454
0.000798638
0.000789149
0.000903265
0.00135823
0.000845924
0.00067988
0.000685259
0.000693255
0.000698126
0.000693246
0.000685238
0.000679859
0.00084584
0.00152788
0.000787709
0.000576317
0.000569057
0.000574359
0.000578648
0.000574348
0.000569034
0.000576284
0.000787619
0.0013719
0.000716187
0.000485577
0.000462186
0.000464065
0.000467221
0.000464056
0.000462163
0.000485534
0.000716094
0.00110049
0.000628593
0.000419836
0.000392448
0.000393252
0.000395159
0.000393249
0.000392435
0.0004198
0.000628512
0.000835874
0.000535719
0.000405479
0.000395993
0.000399889
0.000401015
0.000399897
0.000396
0.000405472
0.000535668
3.70551e-05
0.000177669
0.00025506
0.000287665
0.000305609
0.000311189
0.000305613
0.000287677
0.0002551
0.000177714
3.67527e-05
0.00051741
0.000654114
0.00072393
0.00076443
0.000775925
0.000764432
0.000723946
0.000654179
0.000517505
0.000196393
0.000982069
0.00102731
0.00107262
0.00111102
0.00112212
0.00111102
0.00107263
0.00102734
0.000982123
0.000563471
0.00112853
0.00109851
0.00112178
0.00115373
0.00116352
0.00115374
0.00112179
0.00109851
0.00112852
0.000967115
0.00111271
0.00105756
0.00106861
0.00109349
0.00110165
0.00109351
0.00106863
0.00105755
0.00111268
0.00122304
0.00101735
0.000967533
0.000972429
0.000990694
0.000997292
0.000990713
0.000972458
0.000967527
0.00101732
0.00121222
0.000885946
0.000854133
0.000855542
0.000868429
0.000873558
0.000868454
0.000855578
0.000854133
0.000885925
0.000987122
0.000742734
0.000729628
0.000728429
0.000736787
0.000740349
0.000736815
0.000728468
0.000729631
0.000742719
0.000725222
0.000598166
0.000597932
0.000596916
0.000602139
0.000604258
0.000602166
0.000596952
0.000597937
0.000598154
0.000505748
0.000464188
0.00047222
0.000473506
0.000476992
0.00047807
0.000477012
0.000473533
0.000472226
0.000464183
3.0269e-05
0.000193335
0.000244724
0.000259657
0.000268938
0.000270526
0.000268939
0.000259665
0.000244748
0.000193396
0.000145473
0.000494391
0.000569976
0.000590985
0.000602459
0.000604339
0.000602451
0.000590982
0.000570009
0.000494489
0.000590145
0.000848074
0.000862378
0.00088569
0.000897922
0.00090173
0.00089791
0.000885675
0.000862393
0.000848104
0.00101284
0.000956998
0.000881435
0.000899332
0.000913079
0.000917873
0.000913067
0.000899313
0.000881429
0.000956956
0.00136723
0.000961363
0.000802477
0.000812306
0.000825794
0.000830811
0.000825784
0.000812286
0.000802456
0.000961269
0.00159467
0.000902326
0.000688899
0.000688804
0.000700112
0.000704944
0.000700103
0.000688783
0.000688865
0.00090221
0.00160934
0.000812182
0.000573557
0.000560709
0.000568513
0.0005728
0.000568504
0.000560686
0.000573513
0.000812067
0.00141868
0.000714916
0.000475365
0.000448364
0.000452627
0.000456052
0.000452619
0.000448343
0.000475317
0.000714811
0.00112587
0.000612637
0.000409857
0.00038048
0.00038294
0.000385319
0.000382938
0.000380468
0.00040982
0.000612554
0.000840807
0.000520309
0.000399337
0.000388369
0.000392736
0.000394307
0.000392744
0.000388375
0.000399329
0.00052026
0.000150295
0.000238082
0.000272242
0.000297835
0.000316672
0.000322333
0.000316673
0.000297843
0.000272269
0.000238131
0.000429842
0.000607354
0.000678176
0.000731138
0.000767706
0.000779186
0.000767701
0.000731145
0.000678218
0.000607439
0.00086561
0.000986016
0.00102516
0.00106775
0.00110034
0.00111119
0.00110034
0.00106775
0.00102518
0.000986055
0.00110098
0.00110599
0.00109999
0.00112961
0.00115744
0.00116684
0.00115744
0.00112962
0.0011
0.00110599
0.00125265
0.00111935
0.00107013
0.00108772
0.00111112
0.00111892
0.00111113
0.00108774
0.00107013
0.00111931
0.00129942
0.00104587
0.00098218
0.000990827
0.00100964
0.00101585
0.00100966
0.000990857
0.000982172
0.00104582
0.00120058
0.000909154
0.00085909
0.000863433
0.000877673
0.000882461
0.000877697
0.00086347
0.000859088
0.000909113
0.000962391
0.000745957
0.000725843
0.000728248
0.000737879
0.000741182
0.000737906
0.000728288
0.000725846
0.000745931
0.000682596
0.000587291
0.000593128
0.000595285
0.00060103
0.000602951
0.000601056
0.000595322
0.000593135
0.000587278
0.000462528
0.000452055
0.000469637
0.000472524
0.000475398
0.000476237
0.000475417
0.00047255
0.000469644
0.000452052
8.32328e-05
0.000217816
0.000255524
0.000262406
0.000267697
0.000267597
0.000267692
0.000262407
0.000255537
0.000217871
0.000250529
0.000492819
0.000578216
0.000592552
0.000602098
0.000603035
0.000602082
0.00059254
0.000578235
0.000492911
0.000702346
0.000778685
0.000843334
0.000867536
0.000878437
0.000882176
0.00087842
0.00086752
0.000843351
0.000778729
0.00101075
0.000859308
0.000853912
0.000877673
0.000888579
0.000893271
0.000888564
0.000877654
0.000853916
0.00085929
0.00125462
0.000892204
0.00078829
0.000802237
0.000812512
0.000817106
0.0008125
0.000802216
0.000788276
0.000892132
0.00142738
0.000888635
0.000691783
0.000692179
0.000700979
0.000705188
0.00070097
0.000692156
0.000691751
0.000888528
0.00148463
0.00083592
0.000582661
0.000566419
0.000572765
0.000576333
0.000572757
0.000566396
0.000582616
0.000835801
0.0013794
0.00073987
0.000478491
0.00044846
0.000451932
0.000454674
0.000451925
0.000448438
0.000478443
0.000739759
0.00113098
0.000622268
0.000406163
0.000375265
0.000377434
0.000379304
0.000377431
0.000375252
0.000406127
0.000622183
0.000841084
0.000517643
0.000394369
0.000382957
0.000387401
0.000388734
0.000387408
0.000382963
0.000394362
0.000517597
0.000266693
0.000251201
0.000274201
0.000295278
0.00031149
0.000316736
0.000311488
0.000295279
0.000274218
0.000251235
0.000679308
0.000625036
0.000678364
0.000726012
0.000762574
0.000774549
0.000762568
0.000726011
0.000678392
0.000625092
0.00105973
0.000990549
0.00102925
0.0010713
0.00110531
0.00111713
0.0011053
0.0010713
0.00102926
0.000990567
0.00118685
0.00108608
0.00109839
0.00113301
0.00116169
0.00117208
0.0011617
0.00113302
0.00109839
0.00108606
0.00120956
0.00107508
0.00106191
0.00108817
0.00111141
0.00111989
0.00111142
0.00108819
0.0010619
0.00107504
0.00115482
0.00100006
0.000971605
0.000989909
0.00100833
0.00101492
0.00100835
0.00098994
0.000971602
0.00100002
0.00102124
0.000880513
0.000852528
0.000864274
0.000878449
0.000883341
0.000878473
0.000864312
0.000852529
0.000880473
0.000819142
0.000734703
0.000722631
0.000729724
0.000739674
0.000743009
0.000739701
0.000729765
0.000722636
0.000734675
0.000599298
0.000583651
0.000591529
0.000596401
0.000602306
0.000604245
0.000602332
0.000596438
0.000591538
0.000583637
0.0004202
0.000449925
0.000469359
0.00047345
0.000475883
0.000476724
0.000475902
0.000473477
0.000469367
0.000449923
8.89039e-05
0.000236122
0.000274407
0.000278487
0.000281789
0.000281367
0.000281783
0.000278481
0.000274411
0.000236157
0.000132802
0.000499383
0.000594496
0.000603188
0.000608728
0.000608292
0.00060871
0.000603171
0.000594505
0.000499453
0.000425932
0.00073682
0.000833939
0.000859253
0.000868898
0.000871612
0.000868883
0.000859239
0.000833961
0.000736871
0.000687726
0.000798163
0.000841006
0.000867968
0.000879292
0.000883687
0.000879279
0.000867952
0.00084102
0.000798168
0.000957659
0.000840403
0.000781632
0.000799401
0.000810103
0.000814959
0.000810093
0.000799382
0.000781625
0.000840351
0.00118968
0.000859794
0.000694329
0.000695687
0.000703935
0.000708344
0.000703926
0.000695665
0.0006943
0.000859699
0.0013274
0.000828962
0.000586685
0.000570146
0.000575299
0.000578913
0.000575291
0.000570122
0.000586641
0.000828848
0.00130704
0.000742294
0.00047791
0.000447658
0.000450068
0.000452761
0.000450061
0.000447635
0.000477862
0.000742183
0.00110928
0.000621559
0.00040007
0.000370003
0.000371827
0.000373656
0.000371825
0.00036999
0.000400035
0.000621473
0.000830965
0.000511553
0.000387275
0.000377363
0.000382106
0.000383445
0.000382113
0.000377369
0.000387269
0.000511508
0.000319488
0.000234555
0.0002568
0.0002761
0.000291403
0.00029666
0.0002914
0.000276098
0.000256816
0.000234586
0.000897212
0.000621318
0.000663294
0.000704872
0.000740076
0.000752008
0.000740069
0.000704867
0.000663324
0.000621377
0.00131262
0.000988134
0.00101482
0.00105473
0.00108882
0.00110089
0.00108881
0.00105473
0.00101484
0.000988159
0.0013599
0.00104019
0.00106766
0.00110767
0.00113701
0.00114788
0.00113702
0.00110769
0.00106768
0.00104019
0.00123705
0.00098922
0.00101965
0.00105703
0.00108153
0.00109069
0.00108154
0.00105705
0.00101966
0.000989209
0.00104208
0.000906144
0.000936436
0.000966547
0.000986421
0.000993673
0.000986439
0.000966581
0.000936446
0.000906129
0.000829184
0.000809994
0.000834522
0.00085509
0.000870373
0.000875759
0.000870396
0.000855129
0.000834529
0.000809976
0.000642496
0.000700186
0.000717366
0.000729702
0.000740321
0.00074395
0.000740348
0.000729743
0.000717373
0.000700168
0.000499641
0.000576056
0.000592166
0.00059949
0.000605657
0.000607712
0.000605683
0.000599528
0.000592174
0.000576043
0.000381476
0.000451613
0.000472232
0.000477202
0.000479482
0.000480288
0.000479502
0.00047723
0.000472241
0.00045161
0.000106629
0.000247113
0.000292078
0.00029995
0.000305694
0.000306675
0.000305686
0.000299946
0.000292082
0.000247146
0.000106727
0.000509386
0.000620729
0.000632045
0.000636339
0.00063606
0.000636321
0.00063203
0.000620736
0.000509457
0.000190063
0.000739692
0.000863578
0.000888505
0.000899259
0.000901383
0.000899245
0.000888492
0.000863596
0.000739757
0.000353781
0.000813851
0.000871548
0.000897206
0.000910305
0.000914311
0.000910295
0.000897193
0.000871561
0.000813861
0.00068942
0.000852027
0.000805797
0.000822845
0.000834429
0.00083934
0.000834421
0.000822829
0.000805793
0.000851975
0.00103141
0.000852279
0.000700848
0.000704628
0.00071285
0.00071764
0.000712843
0.000704608
0.000700824
0.000852182
0.00125286
0.00080508
0.000580347
0.000568177
0.00057289
0.000576965
0.000572882
0.000568154
0.000580309
0.000804968
0.00126181
0.00071478
0.000468556
0.000442824
0.000444912
0.000448007
0.000444904
0.000442801
0.000468512
0.000714674
0.00107244
0.000601826
0.000392785
0.00036622
0.000368084
0.00037019
0.000368081
0.000366206
0.000392752
0.000601746
0.000813102
0.000502641
0.000382352
0.000374532
0.000379599
0.000381088
0.000379606
0.000374538
0.000382347
0.000502599
0.00015692
0.000118765
0.000157085
0.000186111
0.000202218
0.000207179
0.000202215
0.00018611
0.000157105
0.000118809
0.000879348
0.000468271
0.00050013
0.000543116
0.000581269
0.000593705
0.000581263
0.000543109
0.000500157
0.000468342
0.00136818
0.000861883
0.000892646
0.000935547
0.000968219
0.000979525
0.000968218
0.000935551
0.000892673
0.000861946
0.0015217
0.00092329
0.00097798
0.00102437
0.00105352
0.00106344
0.00105353
0.00102438
0.000978008
0.000923348
0.00133307
0.00090328
0.000969318
0.00101112
0.00103708
0.0010457
0.00103709
0.00101115
0.00096934
0.000903322
0.00102002
0.000852861
0.000918068
0.000950757
0.000972361
0.000979531
0.000972378
0.000950792
0.000918084
0.000852883
0.000732699
0.000785577
0.00083364
0.000855113
0.000871098
0.000876555
0.000871121
0.000855152
0.000833649
0.000785575
0.000552088
0.000695757
0.0007215
0.000733895
0.00074443
0.000748094
0.000744458
0.000733936
0.000721508
0.000695741
0.000453327
0.000579613
0.000596206
0.000603567
0.000609564
0.000611578
0.000609591
0.000603605
0.000596215
0.000579596
0.000366202
0.000455328
0.000476051
0.000481021
0.000483346
0.000484062
0.000483367
0.00048105
0.00047606
0.000455322
0.000625333
0.000480587
0.000460869
0.000478556
0.000487649
0.000488832
0.000487666
0.00047858
0.000460893
0.000480577
0.000517275
0.000504896
0.000566688
0.000602708
0.000616043
0.000617825
0.00061606
0.000602736
0.000566731
0.000504918
0.000525901
0.00059653
0.000695631
0.000741528
0.000757835
0.000760436
0.000757847
0.000741551
0.000695683
0.000596567
0.000623614
0.000726741
0.000829275
0.000877576
0.00089469
0.000897955
0.000894694
0.00087759
0.000829326
0.000726781
0.000753113
0.00084452
0.000928479
0.000971754
0.000986671
0.00099
0.000986667
0.000971756
0.00092852
0.000844552
0.000841323
0.000894486
0.000949063
0.000983055
0.000993994
0.00099696
0.000993984
0.000983047
0.000949086
0.000894504
0.000836226
0.000843504
0.000867316
0.000890104
0.000896063
0.000898302
0.00089605
0.000890086
0.000867315
0.000843508
0.000692759
0.000659543
0.000651444
0.000662349
0.00066292
0.000663708
0.000662905
0.000662326
0.000651422
0.000659538
0.000129253
0.000115197
0.000109187
0.000112219
0.000112427
0.000112504
0.000112424
0.000112215
0.000109184
0.000115196
6.21453e-05
5.95682e-05
5.84612e-05
6.01057e-05
6.06908e-05
6.0832e-05
6.06903e-05
6.01058e-05
5.84619e-05
5.95694e-05
0.000384779
0.000382221
0.000394203
0.000399007
0.000402137
0.00040312
0.000402142
0.000399016
0.000394207
0.000382229
0.00039126
0.000401023
0.000413525
0.000423695
0.000428576
0.0004308
0.000428566
0.000423687
0.000413527
0.000401047
0.000489823
0.00050146
0.000516415
0.000533594
0.00054155
0.000545631
0.000541534
0.00053358
0.000516417
0.000501496
0.000630494
0.0006393
0.000655775
0.000677761
0.000688188
0.000694073
0.000688175
0.00067775
0.000655776
0.000639339
0.000767078
0.00076625
0.000783473
0.000808034
0.000820392
0.000827812
0.000820386
0.000808029
0.000783472
0.000766284
0.000860198
0.000852763
0.00087256
0.000899562
0.000914873
0.000923738
0.000914875
0.000899566
0.000872558
0.000852791
0.000884244
0.000874901
0.000900808
0.000931603
0.000950424
0.000960057
0.000950435
0.000931617
0.000900811
0.000874923
0.000766364
0.000762299
0.000797146
0.000829938
0.000851242
0.000860253
0.000851259
0.000829964
0.000797156
0.000762317
0.000120214
0.000113797
0.000131836
0.00014361
0.000151086
0.000154875
0.000151099
0.000143627
0.000131837
0.000113799
3.35368e-05
3.21755e-05
3.54924e-05
3.81925e-05
3.98436e-05
4.05862e-05
3.98463e-05
3.8196e-05
3.54939e-05
3.21764e-05
0.00062587
0.000478328
0.000460962
0.000477715
0.000486299
0.000487649
0.000486315
0.000477738
0.000460986
0.000478321
0.000527112
0.000517229
0.000572834
0.000608329
0.000620426
0.000622049
0.000620444
0.000608357
0.000572876
0.000517251
0.000543596
0.00061209
0.000699831
0.000744003
0.000758401
0.000760607
0.000758416
0.000744026
0.00069988
0.000612126
0.000627623
0.000722774
0.00081369
0.000858777
0.000874215
0.000876953
0.000874223
0.000858791
0.000813737
0.000722807
0.000724166
0.000810372
0.000887294
0.000927704
0.000942662
0.000945513
0.00094266
0.000927705
0.000887334
0.000810398
0.000803036
0.000861559
0.000917263
0.000949658
0.000962136
0.000963794
0.000962118
0.000949642
0.000917293
0.000861575
0.000832821
0.000857446
0.000889891
0.000912924
0.00092302
0.000923892
0.000922991
0.000912899
0.000889902
0.000857452
0.000747683
0.000729
0.00073673
0.000745411
0.000750489
0.000750931
0.000750456
0.000745377
0.000736715
0.000728993
0.000105057
9.799e-05
0.000105857
0.000107654
0.000110159
0.000111021
0.000110155
0.000107652
0.000105851
9.79874e-05
2.13895e-05
1.97505e-05
2.2215e-05
2.33293e-05
2.42212e-05
2.46328e-05
2.42215e-05
2.33299e-05
2.22139e-05
1.975e-05
0.000360502
0.000376137
0.000393121
0.000397857
0.000399589
0.000400287
0.000399593
0.000397865
0.000393125
0.000376147
0.000385165
0.000396348
0.000408893
0.000418242
0.000421758
0.00042372
0.000421747
0.000418233
0.000408894
0.000396373
0.000480863
0.000485372
0.000495791
0.000510788
0.000517679
0.000521375
0.000517662
0.000510774
0.000495792
0.000485406
0.000600625
0.00059988
0.000608899
0.000627393
0.000637167
0.000642168
0.000637149
0.000627379
0.000608899
0.000599918
0.0007248
0.000720969
0.000729577
0.000750162
0.000762063
0.000767696
0.000762047
0.00075015
0.000729577
0.000721005
0.00084858
0.000846153
0.000854471
0.000877231
0.00089143
0.000897389
0.000891416
0.000877219
0.000854476
0.000846186
0.000948407
0.000953604
0.000965484
0.000992475
0.00100996
0.00101634
0.00100995
0.000992468
0.000965498
0.000953632
0.000883461
0.000892342
0.000921474
0.000953371
0.000975568
0.000982133
0.000975569
0.000953381
0.000921498
0.000892361
0.000135236
0.000138634
0.000153239
0.000162584
0.000172071
0.000174377
0.000172076
0.000162596
0.00015325
0.00013864
2.25605e-05
2.28396e-05
2.6139e-05
2.80321e-05
2.9894e-05
3.04379e-05
2.98954e-05
2.8035e-05
2.61409e-05
2.28404e-05
0.00062291
0.000475192
0.000458937
0.000475258
0.000483887
0.000485239
0.000483902
0.00047528
0.000458961
0.000475188
0.000529
0.000515978
0.000570615
0.000605099
0.000616804
0.000618472
0.000616822
0.000605126
0.000570656
0.000516002
0.000545176
0.000609041
0.000694078
0.000736414
0.000749771
0.000751884
0.000749786
0.000736438
0.000694125
0.000609076
0.00063486
0.000727424
0.000814947
0.000858074
0.000871978
0.000874526
0.000871985
0.000858087
0.000814992
0.000727457
0.00076145
0.000851055
0.000925442
0.000966186
0.00098001
0.00098271
0.000980006
0.000966183
0.000925482
0.00085108
0.00088407
0.000959889
0.0010104
0.00104685
0.00105978
0.00106242
0.00105977
0.00104683
0.00101043
0.000959905
0.000950026
0.000995441
0.00102266
0.00105342
0.00106457
0.00106684
0.00106455
0.00105339
0.00102268
0.000995446
0.000823035
0.00082903
0.000843462
0.000862521
0.000871175
0.000873034
0.000871149
0.000862488
0.000843461
0.000829024
0.000125037
0.000124651
0.000128127
0.000130964
0.00013352
0.00013384
0.000133514
0.000130958
0.000128126
0.000124649
1.92505e-05
1.86119e-05
1.98449e-05
2.0332e-05
2.09704e-05
2.11312e-05
2.097e-05
2.03319e-05
1.98447e-05
1.86118e-05
0.000340933
0.000373774
0.000392877
0.000397417
0.000398186
0.000398856
0.000398191
0.000397425
0.000392881
0.000373785
0.000376615
0.000392366
0.000406738
0.000415142
0.000417781
0.000419729
0.00041777
0.000415134
0.000406739
0.000392391
0.000479551
0.000484522
0.000496344
0.00051036
0.00051678
0.000520438
0.000516762
0.000510345
0.000496345
0.000484557
0.000611749
0.000614061
0.000622069
0.000640129
0.000649798
0.000654653
0.000649777
0.000640113
0.000622071
0.000614101
0.000753721
0.000755372
0.000759333
0.000781668
0.000794028
0.000799553
0.00079401
0.000781652
0.000759335
0.000755412
0.0008894
0.00089338
0.00089658
0.000924405
0.000939517
0.000945757
0.000939503
0.000924391
0.000896586
0.000893417
0.000976235
0.000984826
0.000998392
0.00103285
0.00105229
0.0010598
0.00105228
0.00103285
0.000998404
0.000984855
0.000874468
0.000889849
0.000922892
0.000961749
0.000986631
0.000994663
0.000986639
0.000961762
0.000922915
0.000889868
0.000138498
0.000146043
0.00015743
0.000170915
0.000180544
0.000182801
0.000180548
0.000170922
0.000157441
0.000146048
2.31956e-05
2.43913e-05
2.66942e-05
2.88246e-05
3.05636e-05
3.09474e-05
3.05646e-05
2.88265e-05
2.66964e-05
2.43921e-05
0.000618836
0.000471308
0.00045564
0.00047266
0.000481833
0.00048323
0.000481847
0.000472681
0.000455665
0.000471305
0.000533889
0.000517865
0.000571189
0.000604725
0.000616823
0.000618477
0.00061684
0.000604752
0.00057123
0.00051789
0.000557297
0.000617859
0.000698674
0.000738425
0.000751589
0.000753533
0.000751602
0.000738446
0.000698719
0.000617894
0.000658804
0.000748092
0.00083117
0.000872825
0.000886115
0.000888501
0.000886121
0.000872836
0.000831213
0.000748125
0.000804268
0.000897184
0.000971076
0.00101182
0.00102479
0.00102798
0.00102479
0.00101181
0.000971113
0.000897208
0.000954196
0.00103139
0.00108934
0.00112769
0.00114035
0.00114463
0.00114034
0.00112767
0.00108937
0.0010314
0.00101825
0.00106595
0.00110825
0.00114146
0.00115356
0.00115831
0.00115354
0.00114144
0.00110827
0.00106595
0.000851757
0.000864615
0.000887759
0.000909362
0.000918555
0.000921976
0.000918533
0.000909332
0.000887756
0.000864605
0.00013033
0.000131359
0.000134733
0.00013887
0.000140865
0.000141358
0.000140859
0.000138861
0.000134729
0.000131356
1.87453e-05
1.83994e-05
1.90261e-05
1.9689e-05
2.0165e-05
2.02555e-05
2.01643e-05
1.96881e-05
1.90255e-05
1.83991e-05
0.000323213
0.000375544
0.000396233
0.000399855
0.000399892
0.000400363
0.000399897
0.000399864
0.000396237
0.000375554
0.000369356
0.000395692
0.00041081
0.000416525
0.000418032
0.000419746
0.000418021
0.000416517
0.000410809
0.000395718
0.000488975
0.000499711
0.000513295
0.000525444
0.000531108
0.000534734
0.000531089
0.000525428
0.000513294
0.000499747
0.000649201
0.000657868
0.000670746
0.000690108
0.000699963
0.000705076
0.000699944
0.000690092
0.000670749
0.000657909
0.000815663
0.000824639
0.000834619
0.000859752
0.000873234
0.00087949
0.000873219
0.000859738
0.000834627
0.00082468
0.000943405
0.000951351
0.000959502
0.000990038
0.00100711
0.00101447
0.0010071
0.00099003
0.000959512
0.000951388
0.000981443
0.000990571
0.00100561
0.00104153
0.00106298
0.00107135
0.00106298
0.00104153
0.00100563
0.000990602
0.000841368
0.000857531
0.000885432
0.000923926
0.000948885
0.000957153
0.000948895
0.000923943
0.000885456
0.000857553
0.000140314
0.000149517
0.000159318
0.000173554
0.000183217
0.000185729
0.000183221
0.000173561
0.00015933
0.000149522
2.51151e-05
2.69164e-05
2.90636e-05
3.16047e-05
3.34628e-05
3.39275e-05
3.34637e-05
3.16062e-05
2.90659e-05
2.6917e-05
0.000617254
0.000469222
0.000453521
0.000471602
0.000481315
0.000482813
0.000481329
0.000471623
0.000453545
0.000469219
0.000544112
0.000523149
0.000576736
0.000611019
0.000623981
0.000625769
0.000623997
0.000611044
0.000576777
0.000523174
0.00057896
0.000635821
0.000716843
0.000757378
0.000771457
0.000773495
0.000771469
0.000757397
0.000716889
0.000635857
0.000684312
0.000770984
0.000852565
0.000894847
0.000908612
0.000911051
0.000908617
0.000894856
0.00085261
0.000771018
0.000812756
0.000896912
0.000970199
0.00101103
0.00102382
0.00102722
0.00102382
0.00101103
0.000970235
0.000896936
0.000933551
0.000999902
0.00106359
0.00110128
0.00111298
0.00111769
0.00111297
0.00110127
0.00106362
0.000999915
0.00100015
0.00104194
0.00109438
0.0011249
0.00113453
0.00113964
0.00113452
0.00112489
0.00109439
0.00104194
0.000865134
0.000878894
0.000906497
0.00092272
0.000927381
0.000930325
0.000927358
0.000922691
0.000906486
0.000878883
0.000123563
0.000122925
0.000126507
0.000129502
0.000129959
0.000130419
0.000129952
0.000129494
0.0001265
0.000122924
1.63786e-05
1.59552e-05
1.64194e-05
1.7312e-05
1.77279e-05
1.78489e-05
1.7727e-05
1.7311e-05
1.64185e-05
1.59552e-05
0.000312001
0.00037762
0.000400289
0.000403447
0.000403571
0.0004039
0.000403577
0.000403457
0.000400294
0.00037763
0.000359989
0.000399975
0.000416049
0.000420181
0.000421291
0.000422771
0.000421281
0.000420172
0.000416046
0.000400001
0.000483264
0.000505088
0.000519739
0.000530627
0.000535785
0.000539337
0.000535768
0.000530612
0.000519736
0.000505125
0.000652513
0.000668906
0.000688872
0.000709081
0.000719491
0.000725344
0.000719476
0.000709068
0.000688873
0.000668948
0.000846655
0.000868878
0.000894652
0.000921889
0.000937012
0.000944798
0.000937003
0.000921882
0.000894661
0.000868918
0.00102933
0.00105804
0.0010831
0.00111253
0.0011308
0.00113928
0.0011308
0.00111252
0.00108312
0.00105807
0.00112374
0.00115188
0.00116991
0.00119875
0.00121892
0.00122677
0.00121892
0.00119875
0.00116994
0.00115191
0.00101838
0.00103509
0.00104528
0.00107564
0.00109787
0.00110513
0.00109787
0.00107565
0.00104531
0.00103511
0.000296972
0.000309891
0.000312535
0.000323935
0.000334333
0.000337659
0.000334338
0.000323941
0.000312555
0.000309892
8.73262e-05
9.37306e-05
9.90076e-05
0.000102513
0.000105551
0.000106588
0.000105553
0.000102516
9.90125e-05
9.37315e-05
)
;

boundaryField
{
    leftWall
    {
        type            kqRWallFunction;
        value           nonuniform List<scalar> 
100
(
8.0425e-06
3.70551e-05
3.0269e-05
0.000150295
8.32328e-05
0.000266693
8.89039e-05
0.000319488
0.000106629
0.00015692
6.02349e-05
0.000177669
0.000193335
0.000238082
0.000217816
0.000251201
0.000236122
0.000234555
0.000247113
0.000118765
0.000131464
0.00025506
0.000244724
0.000272242
0.000255524
0.000274201
0.000274407
0.0002568
0.000292078
0.000157085
0.000168999
0.000287665
0.000259657
0.000297835
0.000262406
0.000295278
0.000278487
0.0002761
0.00029995
0.000186111
0.00017491
0.000305609
0.000268938
0.000316672
0.000267697
0.00031149
0.000281789
0.000291403
0.000305694
0.000202218
0.000176938
0.000311189
0.000270526
0.000322333
0.000267597
0.000316736
0.000281367
0.00029666
0.000306675
0.000207179
0.000174905
0.000305613
0.000268939
0.000316673
0.000267692
0.000311488
0.000281783
0.0002914
0.000305686
0.000202215
0.000169003
0.000287677
0.000259665
0.000297843
0.000262407
0.000295279
0.000278481
0.000276098
0.000299946
0.00018611
0.000131485
0.0002551
0.000244748
0.000272269
0.000255537
0.000274218
0.000274411
0.000256816
0.000292082
0.000157105
6.02742e-05
0.000177714
0.000193396
0.000238131
0.000217871
0.000251235
0.000236157
0.000234586
0.000247146
0.000118809
)
;
    }
    rightWall
    {
        type            kqRWallFunction;
        value           nonuniform List<scalar> 
100
(
6.21453e-05
3.35368e-05
2.13895e-05
2.25605e-05
1.92505e-05
2.31956e-05
1.87453e-05
2.51151e-05
1.63786e-05
8.73262e-05
5.95682e-05
3.21755e-05
1.97505e-05
2.28396e-05
1.86119e-05
2.43913e-05
1.83994e-05
2.69164e-05
1.59552e-05
9.37306e-05
5.84612e-05
3.54924e-05
2.2215e-05
2.6139e-05
1.98449e-05
2.66942e-05
1.90261e-05
2.90636e-05
1.64194e-05
9.90076e-05
6.01057e-05
3.81925e-05
2.33293e-05
2.80321e-05
2.0332e-05
2.88246e-05
1.9689e-05
3.16047e-05
1.7312e-05
0.000102513
6.06908e-05
3.98436e-05
2.42212e-05
2.9894e-05
2.09704e-05
3.05636e-05
2.0165e-05
3.34628e-05
1.77279e-05
0.000105551
6.0832e-05
4.05862e-05
2.46328e-05
3.04379e-05
2.11312e-05
3.09474e-05
2.02555e-05
3.39275e-05
1.78489e-05
0.000106588
6.06903e-05
3.98463e-05
2.42215e-05
2.98954e-05
2.097e-05
3.05646e-05
2.01643e-05
3.34637e-05
1.7727e-05
0.000105553
6.01058e-05
3.8196e-05
2.33299e-05
2.8035e-05
2.03319e-05
2.88265e-05
1.96881e-05
3.16062e-05
1.7311e-05
0.000102516
5.84619e-05
3.54939e-05
2.22139e-05
2.61409e-05
1.98447e-05
2.66964e-05
1.90255e-05
2.90659e-05
1.64185e-05
9.90125e-05
5.95694e-05
3.21764e-05
1.975e-05
2.28404e-05
1.86118e-05
2.43921e-05
1.83991e-05
2.6917e-05
1.59552e-05
9.37315e-05
)
;
    }
    leftSides_periodic0
    {
        type            cyclic;
    }
    leftSides_periodic1
    {
        type            cyclic;
    }
    rightSides_periodic0
    {
        type            cyclic;
    }
    rightSides_periodic1
    {
        type            cyclic;
    }
    leftInOut_periodic0
    {
        type            cyclic;
    }
    leftInOut_periodic1
    {
        type            cyclic;
    }
    rightInOut_periodic0
    {
        type            cyclic;
    }
    rightInOut_periodic1
    {
        type            cyclic;
    }
}


// ************************************************************************* //
