/*--------------------------------*- C++ -*----------------------------------*\
| =========                 |                                                 |
| \\      /  F ield         | OpenFOAM: The Open Source CFD Toolbox           |
|  \\    /   O peration     | Version:  v1906                                 |
|   \\  /    A nd           | Web:      www.OpenFOAM.com                      |
|    \\/     M anipulation  |                                                 |
\*---------------------------------------------------------------------------*/
FoamFile
{
    version     2.0;
    format      ascii;
    class       volScalarField;
    location    "200";
    object      alphat;
}
// * * * * * * * * * * * * * * * * * * * * * * * * * * * * * * * * * * * * * //

dimensions      [1 -1 -1 0 0 0 0];


internalField   nonuniform List<scalar> 
255960
(
1.32484e-08
1.28539e-08
8.66209e-09
8.25541e-09
7.57474e-09
8.0204e-09
7.84149e-09
8.65223e-09
8.70849e-09
9.34129e-09
9.46837e-09
9.69833e-09
1.00377e-08
9.66158e-09
1.0385e-08
1.01395e-08
1.05669e-08
1.04828e-08
1.32486e-08
1.28541e-08
8.66219e-09
8.25555e-09
7.57483e-09
8.02068e-09
7.8417e-09
8.65253e-09
8.70876e-09
9.34153e-09
9.46864e-09
9.69855e-09
1.0038e-08
9.66176e-09
1.03853e-08
1.01397e-08
1.05671e-08
1.04831e-08
1.32488e-08
1.28543e-08
8.66229e-09
8.25569e-09
7.57492e-09
8.02095e-09
7.8419e-09
8.65281e-09
8.70901e-09
9.34176e-09
9.4689e-09
9.69876e-09
1.00383e-08
9.66194e-09
1.03856e-08
1.01399e-08
1.05674e-08
1.04833e-08
1.3249e-08
1.28545e-08
8.66237e-09
8.25582e-09
7.74536e-09
8.02121e-09
7.84209e-09
8.65306e-09
8.70923e-09
9.34198e-09
9.46913e-09
9.69895e-09
1.00386e-08
9.66211e-09
1.03858e-08
1.01401e-08
1.05677e-08
1.04835e-08
1.32491e-08
1.28547e-08
8.66245e-09
8.25595e-09
7.57512e-09
8.02145e-09
7.84228e-09
8.6533e-09
8.70944e-09
9.34218e-09
9.46935e-09
9.69914e-09
1.00388e-08
9.66226e-09
1.0386e-08
1.01403e-08
1.05679e-08
1.04837e-08
7.35278e-08
7.1255e-08
4.79392e-08
4.93846e-08
4.69381e-08
8.49488e-08
8.17741e-08
7.98704e-08
7.88725e-08
7.9346e-08
8.0417e-08
7.85904e-08
8.16943e-08
7.69147e-08
8.26927e-08
7.96481e-08
8.34164e-08
8.23601e-08
7.35324e-08
7.12598e-08
4.79418e-08
4.93882e-08
4.69404e-08
8.4956e-08
8.17794e-08
7.98766e-08
7.8878e-08
7.93516e-08
8.04232e-08
7.85953e-08
8.17008e-08
7.69188e-08
8.26993e-08
7.9653e-08
8.34227e-08
8.23659e-08
7.35369e-08
7.12645e-08
4.79445e-08
4.93918e-08
4.69426e-08
8.4963e-08
8.17846e-08
7.98825e-08
7.88834e-08
7.9357e-08
8.04292e-08
7.86e-08
8.17072e-08
7.69228e-08
8.27057e-08
7.96578e-08
8.34289e-08
8.23714e-08
7.35413e-08
7.12691e-08
4.7947e-08
4.93952e-08
4.69448e-08
8.49697e-08
8.17897e-08
7.98883e-08
7.88887e-08
7.93623e-08
8.0435e-08
7.86046e-08
8.17133e-08
7.69267e-08
8.27119e-08
7.96624e-08
8.34348e-08
8.23768e-08
7.35456e-08
7.12737e-08
4.79495e-08
4.93985e-08
4.6947e-08
8.49762e-08
8.17946e-08
7.98939e-08
7.88937e-08
7.93674e-08
8.04406e-08
7.86091e-08
8.17191e-08
7.69305e-08
8.27178e-08
7.96669e-08
8.34405e-08
8.2382e-08
6.27092e-07
6.0813e-07
3.94621e-07
4.05496e-07
4.00607e-07
7.02631e-07
6.8512e-07
6.7479e-07
6.67706e-07
6.66307e-07
6.72538e-07
6.6125e-07
6.79257e-07
6.57334e-07
6.86129e-07
6.68447e-07
6.92433e-07
6.86309e-07
6.27129e-07
6.08168e-07
3.9464e-07
4.05522e-07
4.00624e-07
7.02685e-07
6.8516e-07
6.74836e-07
6.67748e-07
6.66349e-07
6.72584e-07
6.61286e-07
6.79306e-07
6.51253e-07
6.86178e-07
6.68484e-07
6.92481e-07
6.86352e-07
6.27166e-07
6.08207e-07
3.9466e-07
4.05548e-07
4.0064e-07
7.02737e-07
6.85199e-07
6.74881e-07
6.67789e-07
6.6639e-07
6.7263e-07
6.61322e-07
6.79353e-07
6.57395e-07
6.86226e-07
6.6852e-07
6.92527e-07
6.86394e-07
6.27203e-07
6.08246e-07
3.94679e-07
4.05574e-07
4.00656e-07
7.02788e-07
6.85237e-07
6.74925e-07
6.67829e-07
6.6643e-07
6.72674e-07
6.61357e-07
6.794e-07
6.57425e-07
6.86273e-07
6.68555e-07
6.92573e-07
6.86435e-07
6.27241e-07
6.08285e-07
3.94698e-07
4.05599e-07
4.00672e-07
7.02836e-07
6.85274e-07
6.74968e-07
6.67867e-07
6.66469e-07
6.72716e-07
6.61391e-07
6.79445e-07
6.51342e-07
6.86319e-07
6.6859e-07
6.92617e-07
6.86475e-07
3.42292e-06
3.32426e-06
2.09945e-06
2.13176e-06
2.15887e-06
3.50616e-06
3.45995e-06
3.48429e-06
3.45744e-06
3.44073e-06
3.4612e-06
3.43647e-06
3.49521e-06
3.43568e-06
3.53026e-06
3.47424e-06
3.56734e-06
3.548e-06
3.42309e-06
3.32444e-06
2.09953e-06
2.13187e-06
2.15894e-06
3.50639e-06
3.46012e-06
3.48449e-06
3.45762e-06
3.44091e-06
3.4614e-06
3.43663e-06
3.49543e-06
3.40503e-06
3.53047e-06
3.4744e-06
3.56755e-06
3.54819e-06
3.42327e-06
3.32463e-06
2.09961e-06
2.13198e-06
2.15901e-06
3.50661e-06
3.46029e-06
3.48469e-06
3.4578e-06
3.44109e-06
3.4616e-06
3.43678e-06
3.49563e-06
3.40516e-06
3.53068e-06
3.47455e-06
3.56775e-06
3.54837e-06
3.42345e-06
3.32482e-06
2.0997e-06
2.13209e-06
2.15908e-06
3.50683e-06
3.46045e-06
3.48488e-06
3.45798e-06
3.44126e-06
3.46179e-06
3.43694e-06
3.49584e-06
3.40529e-06
3.53089e-06
3.47471e-06
3.56795e-06
3.54855e-06
3.42363e-06
3.32501e-06
2.09978e-06
2.1322e-06
3.32513e-06
3.50704e-06
3.46061e-06
3.48507e-06
3.45815e-06
3.44143e-06
3.46198e-06
3.43709e-06
3.49604e-06
3.43621e-06
3.53109e-06
3.47486e-06
3.56814e-06
3.54873e-06
1.31347e-05
1.27676e-05
7.85999e-06
7.89068e-06
8.09165e-06
1.23437e-05
1.22864e-05
1.2658e-05
1.25875e-05
1.25184e-05
1.2566e-05
1.25714e-05
1.27072e-05
1.25046e-05
1.28391e-05
1.27167e-05
1.29885e-05
1.29465e-05
1.31353e-05
1.27682e-05
7.86023e-06
7.891e-06
8.09186e-06
1.23444e-05
1.22869e-05
1.26586e-05
1.25881e-05
1.25189e-05
1.25666e-05
1.25719e-05
1.27079e-05
1.2505e-05
1.28397e-05
1.27172e-05
1.29892e-05
1.2947e-05
1.31359e-05
1.27689e-05
7.86048e-06
7.89133e-06
8.09207e-06
1.23451e-05
1.22874e-05
1.26592e-05
1.25886e-05
1.25195e-05
1.25672e-05
1.25723e-05
1.27085e-05
1.25054e-05
1.28404e-05
1.27177e-05
1.29898e-05
1.29476e-05
1.31365e-05
1.27695e-05
7.86073e-06
7.89167e-06
8.09228e-06
1.23457e-05
1.22879e-05
1.26598e-05
1.25892e-05
1.252e-05
1.25678e-05
1.25728e-05
1.27092e-05
1.25058e-05
1.2841e-05
1.27181e-05
1.29904e-05
1.29482e-05
1.31371e-05
1.27702e-05
7.86099e-06
7.89201e-06
8.09249e-06
1.23464e-05
1.22884e-05
1.26604e-05
1.25897e-05
1.25206e-05
1.25684e-05
1.25733e-05
1.27098e-05
1.25062e-05
1.28416e-05
1.27186e-05
1.2991e-05
1.29487e-05
3.92446e-05
3.8168e-05
2.2811e-05
2.26362e-05
3.22178e-05
3.36462e-05
3.37128e-05
3.56022e-05
3.54725e-05
3.5322e-05
3.54089e-05
3.56654e-05
3.59116e-05
3.55726e-05
3.63162e-05
3.61207e-05
3.67827e-05
3.6716e-05
3.92462e-05
3.81697e-05
2.28116e-05
2.26369e-05
3.22188e-05
3.36478e-05
3.37139e-05
3.56036e-05
3.54738e-05
3.53233e-05
3.54104e-05
3.56665e-05
3.59131e-05
3.55736e-05
3.63177e-05
3.61219e-05
3.67842e-05
3.67173e-05
3.92479e-05
3.81715e-05
2.28122e-05
2.26377e-05
2.33242e-05
3.36493e-05
3.37151e-05
3.56051e-05
3.54751e-05
3.53246e-05
3.54118e-05
3.56677e-05
3.59147e-05
3.59234e-05
3.63193e-05
3.6123e-05
3.67857e-05
3.67187e-05
3.92496e-05
3.81732e-05
2.28128e-05
2.26385e-05
3.22207e-05
3.36508e-05
3.37162e-05
3.56065e-05
3.54764e-05
3.53259e-05
3.54132e-05
3.56689e-05
3.59162e-05
3.55756e-05
3.63209e-05
3.61242e-05
3.67872e-05
3.67201e-05
3.92513e-05
3.81751e-05
2.28134e-05
2.26393e-05
3.22217e-05
3.36523e-05
3.37173e-05
3.56079e-05
3.54777e-05
3.53272e-05
3.54147e-05
3.567e-05
3.59178e-05
3.55766e-05
3.63224e-05
3.61254e-05
3.67887e-05
3.67214e-05
9.69055e-05
9.42766e-05
5.44995e-05
5.33882e-05
7.20821e-05
7.50115e-05
7.55859e-05
8.19547e-05
8.18242e-05
8.1743e-05
8.18744e-05
8.30344e-05
8.34e-05
8.30041e-05
8.44704e-05
8.42674e-05
8.56755e-05
8.56081e-05
9.69091e-05
9.42804e-05
5.45006e-05
5.33896e-05
7.20839e-05
7.50144e-05
7.55881e-05
8.19575e-05
8.18268e-05
8.17456e-05
8.18773e-05
8.30367e-05
8.3403e-05
8.3006e-05
8.44735e-05
8.42697e-05
8.56785e-05
8.56108e-05
9.69129e-05
9.42843e-05
5.45017e-05
5.33911e-05
5.49703e-05
7.50173e-05
7.55902e-05
8.19604e-05
8.18294e-05
8.17481e-05
8.18801e-05
8.3039e-05
8.34061e-05
8.3008e-05
8.44765e-05
8.4272e-05
8.56815e-05
8.56135e-05
9.69168e-05
9.42884e-05
5.45029e-05
5.33927e-05
7.20875e-05
7.502e-05
7.55922e-05
8.19632e-05
8.18319e-05
8.17507e-05
8.18829e-05
8.30413e-05
8.34091e-05
8.30099e-05
8.44796e-05
8.42744e-05
8.56845e-05
8.56162e-05
9.69207e-05
9.42926e-05
5.45042e-05
5.33944e-05
5.49724e-05
7.50227e-05
7.55943e-05
8.1966e-05
8.18345e-05
8.17532e-05
8.18857e-05
8.30436e-05
8.34122e-05
8.30119e-05
8.44827e-05
8.42767e-05
8.56875e-05
8.56189e-05
0.000204593
0.000199067
0.00011114
0.000107324
0.000109965
0.00014177
0.000143559
0.000159785
0.000159881
0.000160498
0.000160675
0.000164069
0.000164539
0.00016434
0.000167008
0.00016698
0.000169658
0.000169656
0.0002046
0.000199075
0.000111142
0.000107326
0.000109967
0.000141774
0.000143563
0.000159789
0.000159885
0.000160502
0.000160679
0.000164073
0.000164544
0.000164343
0.000167013
0.000166984
0.000169663
0.000169661
0.000204607
0.000199082
0.000111144
0.000107328
0.000136697
0.000141779
0.000143566
0.000159794
0.000159889
0.000160506
0.000160684
0.000164077
0.000164549
0.000164347
0.000167018
0.000166988
0.000169668
0.000169665
0.000204615
0.00019909
0.000111146
0.000107331
0.00010997
0.000141783
0.000143569
0.000159799
0.000159894
0.00016051
0.000160689
0.00016408
0.000164554
0.00016435
0.000167023
0.000166992
0.000169673
0.00016967
0.000204622
0.000199098
0.000111148
0.000107334
0.000136702
0.000141787
0.000143572
0.000159803
0.000159898
0.000160515
0.000160693
0.000164084
0.000164559
0.000164353
0.000167028
0.000166996
0.000169678
0.000169674
0.000377665
0.000367438
0.000198193
0.000188582
0.000225846
0.000233483
0.000237394
0.00027081
0.000271545
0.000274068
0.000274304
0.000281919
0.000282501
0.000282881
0.000287441
0.000287856
0.00029248
0.000292641
0.000377677
0.00036745
0.000198195
0.000188585
0.000191788
0.000233489
0.000237398
0.000270817
0.000271551
0.000274074
0.00027431
0.000281924
0.000282508
0.000282886
0.000287449
0.000287861
0.000292487
0.000292648
0.000377689
0.000367463
0.000198198
0.000188588
0.000225853
0.000233494
0.000237402
0.000270823
0.000271557
0.000274079
0.000274316
0.000281929
0.000282516
0.00028289
0.000287456
0.000287867
0.000292494
0.000292654
0.000377701
0.000367475
0.0001982
0.000188592
0.000191793
0.0002335
0.000237407
0.00027083
0.000271563
0.000274085
0.000274323
0.000281934
0.000282523
0.000282895
0.000287463
0.000287872
0.000292501
0.00029266
0.000377713
0.000367488
0.000198204
0.000188597
0.000191796
0.000233505
0.00023741
0.000270836
0.000271569
0.000274091
0.000274329
0.00028194
0.00028253
0.0002829
0.00028747
0.000287878
0.000292508
0.000292667
0.000621165
0.000604203
0.00031473
0.000295345
0.000327193
0.000336887
0.000344075
0.000408685
0.000410538
0.000416395
0.000416725
0.000430832
0.000431608
0.000432918
0.000440222
0.000441323
0.000448648
0.000449064
0.000621181
0.00060422
0.000314733
0.000295349
0.000297896
0.000336892
0.000344079
0.000408693
0.000410545
0.000416402
0.000416732
0.000430839
0.000431616
0.000432923
0.00044023
0.000441329
0.000448657
0.000449072
0.000621198
0.000604238
0.000314736
0.000295353
0.000297899
0.000336898
0.000344083
0.0004087
0.000410552
0.000416409
0.00041674
0.000430845
0.000431625
0.000432929
0.000440239
0.000441336
0.000448665
0.000449079
0.000621215
0.000604256
0.00031474
0.000295358
0.000297902
0.000336903
0.000344087
0.000408708
0.000410559
0.000416416
0.000416748
0.000430852
0.000431634
0.000432934
0.000440248
0.000441343
0.000448674
0.000449087
0.000621232
0.000604274
0.000314744
0.000295364
0.000297906
0.000336909
0.000344091
0.000408716
0.000410566
0.000416424
0.000416756
0.000430859
0.000431643
0.000440176
0.000440258
0.00044135
0.000448683
0.000449096
0.000927048
0.000901379
0.000445389
0.000411302
0.000410052
0.000440143
0.000451617
0.000551565
0.000556045
0.000568955
0.000569303
0.000595343
0.000596261
0.000599009
0.000610157
0.000612254
0.000623926
0.000624691
0.000927069
0.000901401
0.000445392
0.000411305
0.000410054
0.000440147
0.00045162
0.000551573
0.000556052
0.000568962
0.00056931
0.00059535
0.00059627
0.000599014
0.000610166
0.000612261
0.000623935
0.000624699
0.000927091
0.000901424
0.000445395
0.000411309
0.000410057
0.000440151
0.000451624
0.000551581
0.00055606
0.000568969
0.000569318
0.000595356
0.000596279
0.00059902
0.000610176
0.000612268
0.000623945
0.000624707
0.000927112
0.000901446
0.000445398
0.000411314
0.00041006
0.000440156
0.000451627
0.000551589
0.000556067
0.000568976
0.000569326
0.000595364
0.000596289
0.000599026
0.000610186
0.000612275
0.000623955
0.000624716
0.000927133
0.000901469
0.000445403
0.000411321
0.000410064
0.000440161
0.000451631
0.000551597
0.000556074
0.000568983
0.000569334
0.000595371
0.000596298
0.000599033
0.000610196
0.000612283
0.000623965
0.000624725
0.00127545
0.00123874
0.000583892
0.000531553
0.000524811
0.000528949
0.000544429
0.000681261
0.000687715
0.00070833
0.000709176
0.000746266
0.000748186
0.000753153
0.000770185
0.000773933
0.000789612
0.00079104
0.00127547
0.00123876
0.000583894
0.000531555
0.000524812
0.000528953
0.000544432
0.000681268
0.000687721
0.000708335
0.000709182
0.000746272
0.000748193
0.000753157
0.000770192
0.000773938
0.000789619
0.000791047
0.0012755
0.00123879
0.000583897
0.000531559
0.000516814
0.000528957
0.000544435
0.000681274
0.000687727
0.000708341
0.000709188
0.000746278
0.000748201
0.000753162
0.0007702
0.000773944
0.000789627
0.000791054
0.00127552
0.00123882
0.000583901
0.000531564
0.000524818
0.000528962
0.000544439
0.000681281
0.000687733
0.000708347
0.000709195
0.000746284
0.000748209
0.000753168
0.000770209
0.000773951
0.000789636
0.000791062
0.00127554
0.00123884
0.000583905
0.000531572
0.000524823
0.000528967
0.000544442
0.000681288
0.000687739
0.000708354
0.000709202
0.000746291
0.000748218
0.000753173
0.000770218
0.000773957
0.000789645
0.00079107
0.00165215
0.00160348
0.000725457
0.00065276
0.000639942
0.000609682
0.000627502
0.000793584
0.000801124
0.000823538
0.00082448
0.000872519
0.000874941
0.00088037
0.000901343
0.000905439
0.000925409
0.000926957
0.00165218
0.00160351
0.000725459
0.000652762
0.000639942
0.000609686
0.000627505
0.000793589
0.00080113
0.000823543
0.000824485
0.000872523
0.000874947
0.000880374
0.000901349
0.000905443
0.000925415
0.000926962
0.00165221
0.00160354
0.000725463
0.000652766
0.000639945
0.00060969
0.000627508
0.000793595
0.000801135
0.000823548
0.00082449
0.000872528
0.000874953
0.000880378
0.000901356
0.000905448
0.000925421
0.000926968
0.00165224
0.00160357
0.000725467
0.000652772
0.000639949
0.000609694
0.000627511
0.000793601
0.00080114
0.000823554
0.000824497
0.000872533
0.00087496
0.000880382
0.000901363
0.000905454
0.000925428
0.000926975
0.00165226
0.00160359
0.000725472
0.000652782
0.000639956
0.0006097
0.000627515
0.000793608
0.000801146
0.00082356
0.000824504
0.000872539
0.000874968
0.000902497
0.000901371
0.00090546
0.000925436
0.000926981
0.00203172
0.00197114
0.000871915
0.000778017
0.000758387
0.000687835
0.000707705
0.000895456
0.000904135
0.000928985
0.000929898
0.000984584
0.000986983
0.000993463
0.00101645
0.00102129
0.00104343
0.00104525
0.00203175
0.00197117
0.000871918
0.000778018
0.000758387
0.000687839
0.000707707
0.000895461
0.00090414
0.000928989
0.000929902
0.000984588
0.000986989
0.0010182
0.00101646
0.00102129
0.00104344
0.00104526
0.00203177
0.0019712
0.000871921
0.000778022
0.00075839
0.000687843
0.00070771
0.000895467
0.000904145
0.000928994
0.000929908
0.000984593
0.000986995
0.0010182
0.00101646
0.00102129
0.00104345
0.00104526
0.0020318
0.00197123
0.000871925
0.00077803
0.000758396
0.000687848
0.000707714
0.000895473
0.000904151
0.000929
0.000929914
0.000984598
0.000987003
0.000993475
0.00101647
0.0010213
0.00104345
0.00104527
0.00203182
0.00197126
0.000871931
0.000778042
0.000758404
0.000687853
0.000707718
0.00089548
0.000904157
0.000929006
0.000929922
0.000984604
0.00098701
0.00099348
0.00101648
0.00102131
0.00104346
0.00104528
0.00238032
0.00230916
0.00101325
0.000900407
0.000874134
0.000762675
0.000784332
0.000993554
0.00100338
0.00103078
0.00103168
0.00109268
0.00109507
0.00110261
0.00112754
0.00113312
0.00115725
0.00115935
0.00238035
0.00230918
0.00101325
0.000900408
0.000751718
0.000762678
0.000784334
0.00099356
0.00100339
0.00103079
0.00103168
0.00109269
0.00109508
0.00110261
0.00112754
0.00113312
0.00115726
0.00115936
0.00238037
0.00230921
0.00101326
0.000900412
0.000874137
0.000762682
0.000784337
0.000993565
0.00100339
0.00103079
0.00103169
0.00109269
0.00109508
0.00110262
0.00112755
0.00113313
0.00115727
0.00115936
0.0023804
0.00230923
0.00101326
0.000900422
0.000751724
0.000762687
0.000784341
0.000993572
0.0010034
0.0010308
0.0010317
0.0010927
0.00109509
0.00112991
0.00112756
0.00113313
0.00115727
0.00115937
0.00238042
0.00230925
0.00101327
0.000900435
0.000874153
0.000762693
0.000784345
0.000993579
0.00100341
0.00103081
0.0010317
0.0010927
0.0010951
0.00112991
0.00112757
0.00113314
0.00115728
0.00115938
0.00269637
0.00261602
0.00113915
0.0010128
0.000825022
0.000834714
0.000857894
0.00108909
0.00110007
0.00113003
0.00113093
0.00119836
0.00120082
0.00120933
0.00123633
0.00124259
0.00126876
0.00127111
0.00269639
0.00261605
0.00113915
0.0010128
0.000825023
0.000834717
0.000857896
0.00108909
0.00110007
0.00113003
0.00113094
0.00119836
0.00120083
0.00120933
0.00123633
0.0012426
0.00126876
0.00127111
0.00269641
0.00261607
0.00113916
0.00101281
0.000981005
0.000834721
0.000857899
0.0010891
0.00110008
0.00113004
0.00113094
0.00119837
0.00120083
0.00120934
0.00123634
0.0012426
0.00126877
0.00127112
0.00269643
0.00261609
0.00113916
0.00101282
0.000981012
0.000834726
0.000857903
0.00108911
0.00110008
0.00113004
0.00113095
0.00119837
0.00120084
0.00123921
0.00123635
0.00124261
0.00126878
0.00127112
0.00299854
0.00290985
0.00127108
0.00113081
0.00109271
0.000906118
0.000930681
0.00118413
0.00119628
0.00122883
0.00122977
0.00130394
0.0013066
0.00131595
0.00134516
0.00135202
0.00138029
0.00138286
0.00299857
0.00290987
0.00127108
0.0011308
0.00109271
0.000906119
0.000930683
0.00118413
0.00119629
0.00122883
0.00122978
0.00130395
0.0013066
0.00131595
0.00134516
0.00135202
0.00138029
0.00138286
0.0029986
0.0029099
0.00127108
0.0011308
0.00109271
0.000906122
0.000930685
0.00118414
0.00119629
0.00122883
0.00122978
0.00130395
0.00130661
0.00131595
0.00134517
0.00135202
0.0013803
0.00138287
0.00299862
0.00290993
0.00127109
0.00113081
0.00109271
0.000906126
0.000930688
0.00118414
0.0011963
0.00122884
0.00122979
0.00130396
0.00130661
0.00131596
0.00134517
0.00135203
0.0013803
0.00138287
0.00299864
0.00290995
0.00127109
0.00113082
0.000898217
0.000906131
0.000930692
0.00118415
0.00119631
0.00122885
0.00122979
0.00130396
0.00130662
0.00131596
0.00134518
0.00135203
0.00138031
0.00138288
0.00332482
0.00322735
0.00141482
0.00125902
0.00121347
0.000978935
0.00100492
0.00128212
0.00129556
0.00133
0.00133105
0.00141395
0.00141697
0.00142703
0.00145864
0.001466
0.00149653
0.00149929
0.00332486
0.00322739
0.00141483
0.00125902
0.00121346
0.000978936
0.00100492
0.00128212
0.00129557
0.00133
0.00133106
0.00141395
0.00141698
0.00142703
0.00145864
0.001466
0.00149653
0.00149929
0.00332489
0.00322742
0.00141483
0.00125902
0.000973318
0.000978938
0.00100492
0.00128213
0.00129557
0.00133001
0.00133106
0.00141396
0.00141698
0.00142704
0.00145865
0.00146601
0.00149654
0.0014993
0.00332492
0.00322745
0.00141484
0.00125903
0.00121347
0.000978943
0.00100493
0.00128214
0.00129558
0.00133001
0.00133107
0.00141396
0.00141699
0.00142704
0.00145866
0.00146601
0.00149655
0.0014993
0.00332494
0.00322748
0.00141484
0.00125904
0.00121348
0.000978949
0.00100493
0.00128215
0.00129558
0.00133002
0.00133108
0.00141397
0.001417
0.00142705
0.00145867
0.00146602
0.00149656
0.00149931
0.00368971
0.00358262
0.00157541
0.00140162
0.00105275
0.0010556
0.0010833
0.00138566
0.00140057
0.00143844
0.00143971
0.00153325
0.001537
0.00154754
0.00158238
0.00159013
0.00162385
0.00162678
0.00368975
0.00358266
0.00157541
0.00140162
0.00134712
0.0010556
0.0010833
0.00138566
0.00140057
0.00143845
0.00143972
0.00153326
0.001537
0.00154755
0.00158239
0.00159013
0.00162386
0.00162679
0.00368979
0.0035827
0.00157542
0.00140162
0.00105275
0.00105561
0.00108331
0.00138567
0.00140058
0.00143845
0.00143972
0.00153326
0.00153701
0.00154755
0.0015824
0.00159014
0.00162387
0.00162679
0.00368982
0.00358273
0.00157542
0.00140163
0.00134712
0.00105561
0.00108331
0.00138568
0.00140059
0.00143846
0.00143973
0.00153327
0.00153702
0.00154756
0.00158241
0.00159015
0.00162388
0.0016268
0.00368985
0.00358277
0.00157543
0.00140164
0.00134714
0.00105562
0.00108331
0.00138569
0.0014006
0.00143847
0.00143974
0.00153328
0.00153703
0.00154756
0.00158242
0.00159016
0.00162389
0.00162681
0.0041005
0.00398278
0.00175748
0.00156256
0.00149736
0.00113872
0.00116867
0.00150194
0.00151871
0.00156175
0.00156333
0.00166682
0.00167169
0.00168255
0.00171945
0.00172741
0.00176176
0.0017648
0.00410055
0.00398283
0.00175748
0.00156255
0.00149736
0.00113872
0.00116867
0.00150195
0.00151872
0.00156175
0.00156334
0.00166683
0.0016717
0.00168255
0.00171946
0.00172741
0.00176177
0.00176481
0.00410059
0.00398288
0.00175749
0.00156255
0.00149736
0.00113872
0.00116867
0.00150196
0.00151872
0.00156176
0.00156335
0.00166684
0.00167171
0.00168256
0.00171947
0.00172742
0.00176177
0.00176482
0.00410063
0.00398292
0.00175749
0.00156256
0.00113908
0.00113872
0.00116868
0.00150197
0.00151873
0.00156177
0.00156336
0.00166685
0.00167172
0.00168257
0.00171948
0.00172743
0.00176179
0.00176483
0.00410067
0.00398296
0.0017575
0.00156258
0.00113909
0.00113873
0.00116868
0.00150198
0.00151874
0.00156178
0.00156337
0.00166686
0.00167174
0.00168257
0.00171949
0.00172744
0.0017618
0.00176484
0.00454931
0.00442032
0.00196195
0.00174319
0.00123448
0.00123044
0.00126324
0.00163001
0.00164922
0.00170248
0.00170439
0.00180953
0.00181505
0.00182658
0.00186368
0.00187154
0.00190611
0.00190904
0.00454936
0.00442038
0.00196196
0.00174318
0.00123448
0.00123044
0.00126324
0.00163002
0.00164923
0.00170249
0.0017044
0.00180954
0.00181506
0.00182658
0.00186368
0.00187154
0.00190612
0.00190905
0.00454941
0.00442043
0.00196197
0.00174319
0.00123448
0.00123044
0.00126324
0.00163003
0.00164924
0.0017025
0.00170441
0.00180955
0.00181507
0.00182659
0.00186369
0.00187155
0.00190613
0.00190906
0.00454946
0.00442048
0.00196197
0.0017432
0.00123449
0.00123045
0.00126325
0.00163004
0.00164925
0.00170251
0.00170442
0.00180955
0.00181508
0.0018266
0.0018637
0.00187156
0.00190614
0.00190907
0.0045495
0.00442052
0.00196199
0.00174322
0.00123449
0.00123046
0.00126325
0.00163005
0.00164926
0.00170252
0.00170444
0.00180957
0.00181509
0.0018266
0.00186372
0.00187157
0.00190616
0.00190908
0.00501599
0.00487588
0.00218312
0.00194019
0.00133847
0.00132983
0.00136479
0.00176127
0.00178343
0.00184189
0.00184334
0.00195231
0.00195699
0.00196761
0.00200255
0.00201034
0.00204571
0.00204866
0.00501605
0.00487595
0.00218312
0.00194019
0.00184948
0.00132983
0.00136479
0.00176128
0.00178344
0.0018419
0.00184334
0.00195232
0.00195699
0.00196761
0.00200256
0.00201034
0.00204572
0.00204866
0.0050161
0.004876
0.00218313
0.00194019
0.00133847
0.00132983
0.0013648
0.00176129
0.00178345
0.00184191
0.00184335
0.00195232
0.001957
0.00196762
0.00200256
0.00201035
0.00204573
0.00204867
0.00501615
0.00487605
0.00218314
0.00194021
0.00184949
0.00132984
0.0013648
0.0017613
0.00178346
0.00184192
0.00184337
0.00195233
0.00195702
0.0020064
0.00200258
0.00201036
0.00204574
0.00204868
0.00501619
0.00487609
0.00218315
0.00194023
0.0018495
0.00132985
0.00136481
0.00176131
0.00178347
0.00184193
0.00184338
0.00195234
0.00195703
0.00196763
0.00200259
0.00201037
0.00204575
0.00204869
0.0054789
0.00532861
0.00241619
0.0021507
0.0020466
0.00143555
0.00147067
0.00188442
0.00190794
0.00197371
0.0019755
0.00208303
0.00208825
0.00209912
0.00213579
0.00214394
0.00218206
0.00218516
0.00547896
0.00532868
0.0024162
0.0021507
0.00145014
0.00143555
0.00147067
0.00188443
0.00190795
0.00197372
0.0019755
0.00208303
0.00208826
0.00209912
0.00213579
0.00214394
0.00218207
0.00218517
0.00547902
0.00532873
0.00241621
0.0021507
0.00145015
0.00143555
0.00147067
0.00188444
0.00190796
0.00197372
0.00197551
0.00208304
0.00208827
0.00209913
0.0021358
0.00214395
0.00218208
0.00218518
0.00547906
0.00532878
0.00241622
0.00215072
0.00204661
0.00143556
0.00147068
0.00188445
0.00190797
0.00197373
0.00197552
0.00208305
0.00208828
0.00213949
0.00213582
0.00214396
0.00218209
0.00218519
0.0054791
0.00532882
0.00241623
0.00215075
0.00145016
0.00143557
0.00147069
0.00188446
0.00190798
0.00197374
0.00197553
0.00208306
0.00208829
0.00209915
0.00213583
0.00214397
0.0021821
0.0021852
0.00592606
0.00576692
0.00265681
0.0023712
0.00225399
0.00155094
0.00158503
0.00200132
0.00202579
0.00209586
0.0020979
0.00220839
0.00221397
0.00222516
0.00226315
0.00227167
0.00231214
0.00231538
0.00592613
0.00576699
0.00265682
0.0023712
0.00225399
0.00155095
0.00158503
0.00200133
0.0020258
0.00209586
0.0020979
0.0022084
0.00221398
0.00222516
0.00226316
0.00227167
0.00231215
0.00231539
0.00592618
0.00576705
0.00265683
0.0023712
0.00225399
0.00155095
0.00158503
0.00200134
0.00202581
0.00209587
0.00209791
0.0022084
0.00221399
0.00222517
0.00226317
0.00227168
0.00231216
0.0023154
0.00592623
0.00576709
0.00265684
0.00237122
0.00157249
0.00155096
0.00158504
0.00200135
0.00202582
0.00209588
0.00209792
0.00220841
0.002214
0.00222517
0.00226318
0.00227169
0.00231217
0.00231541
0.00592626
0.00576713
0.00265686
0.00237125
0.00225402
0.00155097
0.00158505
0.00200136
0.00202583
0.00209589
0.00209794
0.00220842
0.00221401
0.00222518
0.00226319
0.0022717
0.00231218
0.00231542
0.0063524
0.00618559
0.00289678
0.00259328
0.00246413
0.0016759
0.0017078
0.00211452
0.00213948
0.00221245
0.0022146
0.0023242
0.00232954
0.00234079
0.00237802
0.00238676
0.00242825
0.00243158
0.00635247
0.00618566
0.00289679
0.00259328
0.00246412
0.0016759
0.0017078
0.00211453
0.00213949
0.00221246
0.0022146
0.0023242
0.00232954
0.00238192
0.00237802
0.00238676
0.00242826
0.00243158
0.00635252
0.00618572
0.0028968
0.00259328
0.00246412
0.00167591
0.00170781
0.00211454
0.00213949
0.00221246
0.00221461
0.00232421
0.00232955
0.0023408
0.00237803
0.00238677
0.00242826
0.00243159
0.00635257
0.00618576
0.00289681
0.0025933
0.00246414
0.00167592
0.00170782
0.00211455
0.0021395
0.00221247
0.00221462
0.00232421
0.00232956
0.00234081
0.00237804
0.00238678
0.00242827
0.0024316
0.0063526
0.0061858
0.00289683
0.00259334
0.00246416
0.00167594
0.00170783
0.00211456
0.00213951
0.00221248
0.00221463
0.00232422
0.00232957
0.00234082
0.00237805
0.00238679
0.00242829
0.00243161
0.00675515
0.00658085
0.00313555
0.00281614
0.0026764
0.00180707
0.00183616
0.00222234
0.00224713
0.00232147
0.00232354
0.00242647
0.00243086
0.00244192
0.00247576
0.00248457
0.00252532
0.00252867
0.00675522
0.00658092
0.00313556
0.00281614
0.00267639
0.00180707
0.00183616
0.00222235
0.00224714
0.00232148
0.00232355
0.00242647
0.00243086
0.00244193
0.00247576
0.00248457
0.00252533
0.00252867
0.00675527
0.00658098
0.00313557
0.00281615
0.00267639
0.00180708
0.00183617
0.00222236
0.00224714
0.00232148
0.00232356
0.00242648
0.00243087
0.00244193
0.00247577
0.00248457
0.00252533
0.00252868
0.00675532
0.00658102
0.00313558
0.00281617
0.0026764
0.00180709
0.00183618
0.00222236
0.00224715
0.00232149
0.00232357
0.00242649
0.00243088
0.00244194
0.00247578
0.00248458
0.00252534
0.00252869
0.00675534
0.00658106
0.0031356
0.0028162
0.00267643
0.00180711
0.00183619
0.00222237
0.00224716
0.0023215
0.00232358
0.00242649
0.00243089
0.00244194
0.00247579
0.00248459
0.00252535
0.00252869
0.00714229
0.00696156
0.00337615
0.00304267
0.00199022
0.00194961
0.00197432
0.00232394
0.00234781
0.00242163
0.00242346
0.00251396
0.00251669
0.00252734
0.00255519
0.00256392
0.00260207
0.00260539
0.00714236
0.00696163
0.00337617
0.00304267
0.00199022
0.00194962
0.00197433
0.00232395
0.00234782
0.00242163
0.00242346
0.00251396
0.00251669
0.00252734
0.00255519
0.00256392
0.00260207
0.00260539
0.00714242
0.00696169
0.00337618
0.00304268
0.00289352
0.00194963
0.00197433
0.00232395
0.00234783
0.00242164
0.00242347
0.00251397
0.0025167
0.00252734
0.0025552
0.00256393
0.00260208
0.00260539
0.00714246
0.00696174
0.0033762
0.0030427
0.00289353
0.00194964
0.00197434
0.00232396
0.00234783
0.00242165
0.00242348
0.00251397
0.0025167
0.00252735
0.0025552
0.00256393
0.00260208
0.0026054
0.00714249
0.00696177
0.00337621
0.00304274
0.00199025
0.00194966
0.00197436
0.00232397
0.00234784
0.00242166
0.00242349
0.00251398
0.00251671
0.00252735
0.00255521
0.00256394
0.00260209
0.00260541
0.0075184
0.0073324
0.00362836
0.00328283
0.00312476
0.00210517
0.00212377
0.00242038
0.00244255
0.00251346
0.00251491
0.00258788
0.00258832
0.00259838
0.00261795
0.00262648
0.00266027
0.0026635
0.00751847
0.00733247
0.00362837
0.00328283
0.00215275
0.00210517
0.00212377
0.00242039
0.00244255
0.00251347
0.00251491
0.00258788
0.00258832
0.00259838
0.00261795
0.00262648
0.00266026
0.00266349
0.00751853
0.00733253
0.00362839
0.00328284
0.00215276
0.00210518
0.00212378
0.00242039
0.00244256
0.00251347
0.00251492
0.00258788
0.00258832
0.00259838
0.00261795
0.00262648
0.00266027
0.0026635
0.00751857
0.00733258
0.00362841
0.00328287
0.00312477
0.0021052
0.00212379
0.0024204
0.00244256
0.00251348
0.00251493
0.00258788
0.00258833
0.00259838
0.00261796
0.00262649
0.00266027
0.0026635
0.0075186
0.00733261
0.00362843
0.00328291
0.0031248
0.00210522
0.00212381
0.00242041
0.00244257
0.00251349
0.00251494
0.00258789
0.00258834
0.00259839
0.00261796
0.00262649
0.00266028
0.00266351
0.00788625
0.00769612
0.00389506
0.00353943
0.00337262
0.00227276
0.00228381
0.00251473
0.00253445
0.00259984
0.00260073
0.00265187
0.00264958
0.00265884
0.00266832
0.0026765
0.00270423
0.00270731
0.00788632
0.0076962
0.00389507
0.00353943
0.00337261
0.00227277
0.00228381
0.00251473
0.00253446
0.00259985
0.00260074
0.00265186
0.00264958
0.00265884
0.00266832
0.0026765
0.00270423
0.00270731
0.00788638
0.00769626
0.00389509
0.00353945
0.00232842
0.00227278
0.00228382
0.00251474
0.00253446
0.00259985
0.00260075
0.00265187
0.00264958
0.00265884
0.00266832
0.0026765
0.00270423
0.00270731
0.00788642
0.0076963
0.00389512
0.00353948