/*--------------------------------*- C++ -*----------------------------------*\
| =========                 |                                                 |
| \\      /  F ield         | OpenFOAM: The Open Source CFD Toolbox           |
|  \\    /   O peration     | Version:  v1906                                 |
|   \\  /    A nd           | Web:      www.OpenFOAM.com                      |
|    \\/     M anipulation  |                                                 |
\*---------------------------------------------------------------------------*/
FoamFile
{
    version     2.0;
    format      ascii;
    class       volScalarField;
    location    "200";
    object      heatTransferCoeff(T);
}
// * * * * * * * * * * * * * * * * * * * * * * * * * * * * * * * * * * * * * //

dimensions      [1 0 -3 -1 0 0 0];


internalField   uniform 0;

boundaryField
{
    leftWall
    {
        type            calculated;
        value           nonuniform List<scalar> 
324
(
-27.0286
-27.0286
-486.718
-486.718
-486.718
-338.169
-338.169
-349.427
-349.427
-270.814
-270.814
-323.904
-323.904
-323.904
-247.625
-247.625
-320.76
-320.76
-27.0286
-27.0286
-486.718
-486.718
-338.169
-338.169
-338.169
-349.427
-349.427
-270.814
-270.814
-323.904
-323.904
-247.625
-247.625
-247.625
-320.76
-320.76
-393.373
-393.373
-385.437
-385.437
-357.867
-357.867
-357.867
-313.584
-313.584
-314.869
-314.869
-284.106
-284.106
-299.351
-299.351
-299.351
-268.887
-268.887
-393.373
-393.373
-385.437
-385.437
-385.437
-357.867
-357.867
-313.584
-313.584
-314.869
-314.869
-284.106
-284.106
-284.106
-299.351
-299.351
-268.887
-268.887
-393.373
-313.892
-385.437
-385.437
-357.867
-357.867
-357.867
-313.584
-313.584
-314.869
-314.869
-284.106
-284.106
-299.351
-299.351
-299.351
-268.887
-268.887
-313.892
-313.892
-290.949
-290.949
-355.061
-355.061
-355.061
-278.817
-278.817
-326.471
-326.471
-252.621
-252.621
-314.673
-314.673
-314.673
-234.63
-234.63
-313.892
-313.892
-290.949
-290.949
-290.949
-355.061
-355.061
-278.817
-278.817
-326.471
-326.471
-252.621
-252.621
-252.621
-314.673
-314.673
-234.63
-234.63
-280.948
-280.948
-313.744
-313.744
-313.744
-351.675
-351.675
-288.877
-288.877
-320.378
-320.378
-266.549
-266.549
-307
-307
-307
-252.486
-252.486
-280.948
-280.948
-313.744
-313.744
-313.744
-351.675
-351.675
-288.877
-288.877
-320.378
-320.378
-266.549
-266.549
-307
-307
-307
-252.486
-252.486
-284.835
-284.835
-324.94
-324.94
-324.94
-350.621
-350.621
-293.075
-293.075
-317.439
-317.439
-269.363
-269.363
-269.363
-303.727
-303.727
-254.93
-254.93
-284.835
-284.835
-324.94
-324.94
-324.94
-350.621
-350.621
-293.075
-293.075
-317.439
-317.439
-269.363
-269.363
-303.727
-303.727
-303.727
-254.93
-254.93
-283.378
-283.378
-332.186
-332.186
-353.01
-353.01
-353.01
-298.751
-298.751
-319.548
-319.548
-274.345
-274.345
-305.585
-305.585
-305.585
-258.638
-258.638
-283.378
-283.378
-332.186
-332.186
-332.186
-353.01
-353.01
-298.751
-298.751
-319.548
-319.548
-274.345
-274.345
-274.345
-305.585
-305.585
-258.638
-258.638
-283.378
-283.378
-336.052
-332.186
-332.186
-353.01
-353.01
-298.751
-298.751
-319.548
-319.548
-275.535
-274.345
-274.345
-305.107
-305.107
-258.638
-259.575
-283.818
-283.818
-336.052
-336.052
-336.052
-352.904
-352.904
-300.294
-300.294
-318.951
-318.951
-275.535
-275.535
-305.107
-305.107
-305.107
-259.575
-259.575
-283.818
-283.818
-336.052
-336.052
-336.052
-352.904
-352.904
-300.294
-300.294
-318.951
-318.951
-275.535
-275.535
-305.107
-305.107
-305.107
-259.575
-259.575
-284.249
-284.249
-338.957
-338.957
-353.916
-353.916
-353.916
-301.955
-301.955
-319.536
-319.536
-276.819
-276.819
-276.819
-305.521
-305.521
-260.509
-260.509
-284.249
-284.249
-338.957
-338.957
-338.957
-353.916
-353.916
-301.955
-301.955
-319.536
-319.536
-276.819
-276.819
-276.819
-305.521
-305.521
-260.509
-260.509
)
;
    }
    rightWall
    {
        type            calculated;
        value           nonuniform List<scalar> 
324
(
-355.296
-355.296
-265.185
-265.185
-253.521
-253.521
-253.521
-240.086
-240.086
-255.804
-255.804
-250.661
-250.661
-250.661
-267.622
-267.622
-257.972
-257.972
-355.296
-355.296
-265.185
-265.185
-253.521
-253.521
-253.521
-240.086
-240.086
-255.804
-255.804
-250.661
-250.661
-267.622
-267.622
-267.622
-257.972
-257.972
-347.979
-347.979
-265.256
-265.256
-248.792
-248.792
-248.792
-241.895
-241.895
-251.792
-251.792
-253.09
-253.09
-263.299
-263.299
-263.299
-261.035
-261.035
-347.979
-347.979
-265.256
-265.256
-248.792
-248.792
-248.792
-241.895
-241.895
-251.792
-251.792
-253.09
-253.09
-253.09
-263.299
-263.299
-261.035
-261.035
-348.725
-348.725
-265.256
-265.256
-248.792
-248.792
-248.792
-243.15
-241.895
-251.792
-247.572
-253.09
-253.09
-263.299
-263.299
-263.299
-261.035
-261.035
-348.725
-348.725
-266.586
-266.586
-245.044
-245.044
-245.044
-243.15
-243.15
-247.572
-247.572
-254.591
-254.591
-259.302
-259.302
-259.302
-262.659
-262.659
-348.725
-348.725
-266.586
-266.586
-266.586
-245.044
-245.044
-243.15
-243.15
-247.572
-247.572
-254.591
-254.591
-259.302
-259.302
-259.302
-262.659
-262.659
-346.475
-346.475
-266.33
-266.33
-266.33
-244.391
-244.391
-243.755
-243.755
-247.471
-247.471
-255.303
-255.303
-259.284
-259.284
-259.284
-263.386
-263.386
-346.475
-346.475
-266.33
-266.33
-244.391
-244.391
-244.391
-243.755
-243.755
-247.471
-247.471
-255.303
-255.303
-259.284
-259.284
-259.284
-263.386
-263.386
-346.702
-346.702
-266.307
-266.307
-266.307
-243.507
-243.507
-243.535
-243.535
-246.341
-246.341
-255.259
-255.259
-258.132
-258.132
-258.132
-263.565
-263.565
-346.702
-346.702
-266.307
-266.307
-266.307
-243.507
-243.507
-243.535
-243.535
-246.341
-246.341
-255.259
-255.259
-258.132
-258.132
-258.132
-263.565
-263.565
-346.7
-346.7
-266.395
-266.395
-266.395
-244.31
-244.31
-243.803
-243.803
-247.183
-247.183
-255.365
-255.365
-258.865
-258.865
-258.865
-263.48
-263.48
-346.7
-346.7
-266.395
-266.395
-266.395
-244.31
-244.31
-243.803
-243.803
-247.183
-247.183
-255.365
-255.365
-258.865
-258.865
-258.865
-263.48
-263.48
-346.7
-346.7
-266.395
-266.395
-266.395
-244.31
-244.31
-243.803
-243.803
-247.183
-247.183
-255.365
-255.365
-258.865
-258.865
-258.865
-263.48
-263.48
-347.214
-347.214
-266.448
-266.448
-266.448
-245.066
-245.066
-243.864
-243.864
-248.021
-248.021
-255.392
-255.392
-259.674
-259.674
-259.674
-263.383
-263.383
-347.214
-347.214
-266.448
-266.448
-266.448
-245.066
-245.066
-243.864
-243.864
-248.021
-248.021
-255.392
-255.392
-259.674
-259.674
-259.674
-263.383
-263.383
-347.247
-347.247
-266.022
-266.022
-266.022
-245.044
-245.044
-243.269
-243.269
-247.991
-247.991
-254.862
-254.862
-254.862
-259.794
-259.794
-262.958
-262.958
-347.247
-347.247
-266.022
-266.022
-245.044
-245.044
-245.044
-243.269
-243.269
-247.991
-247.991
-254.862
-254.862
-259.794
-259.794
-259.794
-262.958
-262.958
)
;
    }
    leftSides_periodic0
    {
        type            cyclic;
    }
    leftSides_periodic1
    {
        type            cyclic;
    }
    rightSides_periodic0
    {
        type            cyclic;
    }
    rightSides_periodic1
    {
        type            cyclic;
    }
    leftInOut_periodic0
    {
        type            cyclic;
    }
    leftInOut_periodic1
    {
        type            cyclic;
    }
    rightInOut_periodic0
    {
        type            cyclic;
    }
    rightInOut_periodic1
    {
        type            cyclic;
    }
    procBoundary0to1
    {
        type            processor;
        value           uniform 0;
    }
    procBoundary0to1throughleftInOut_periodic1
    {
        type            processorCyclic;
        value           uniform 0;
    }
    procBoundary0to1throughrightInOut_periodic1
    {
        type            processorCyclic;
        value           uniform 0;
    }
    procBoundary0to2
    {
        type            processor;
        value           uniform 0;
    }
    procBoundary0to2throughleftSides_periodic0
    {
        type            processorCyclic;
        value           uniform 0;
    }
    procBoundary0to2throughrightSides_periodic0
    {
        type            processorCyclic;
        value           uniform 0;
    }
}


// ************************************************************************* //
