/*--------------------------------*- C++ -*----------------------------------*\
| =========                 |                                                 |
| \\      /  F ield         | OpenFOAM: The Open Source CFD Toolbox           |
|  \\    /   O peration     | Version:  v1906                                 |
|   \\  /    A nd           | Web:      www.OpenFOAM.com                      |
|    \\/     M anipulation  |                                                 |
\*---------------------------------------------------------------------------*/
FoamFile
{
    version     2.0;
    format      ascii;
    class       volScalarField;
    location    "200";
    object      nut;
}
// * * * * * * * * * * * * * * * * * * * * * * * * * * * * * * * * * * * * * //

dimensions      [0 2 -1 0 0 0 0];


internalField   nonuniform List<scalar> 
255960
(
1.13177e-11
1.09805e-11
7.38473e-12
7.03592e-12
6.45583e-12
6.83397e-12
6.68213e-12
7.37499e-12
7.42328e-12
7.96334e-12
8.07157e-12
8.26811e-12
8.55708e-12
8.23718e-12
8.8533e-12
8.64452e-12
9.00841e-12
8.93694e-12
1.13179e-11
1.09807e-11
7.38482e-12
7.03604e-12
6.45591e-12
6.83421e-12
6.68231e-12
7.37524e-12
7.42351e-12
7.96355e-12
8.0718e-12
8.2683e-12
8.55734e-12
8.23734e-12
8.85355e-12
8.64471e-12
9.00865e-12
8.93716e-12
1.13181e-11
1.09808e-11
7.3849e-12
7.03616e-12
6.45599e-12
6.83444e-12
6.68248e-12
7.37548e-12
7.42372e-12
7.96375e-12
8.07202e-12
8.26847e-12
8.55757e-12
8.23749e-12
8.85378e-12
8.64488e-12
9.00888e-12
8.93736e-12
1.13182e-11
1.0981e-11
7.38497e-12
7.03627e-12
6.60027e-12
6.83466e-12
6.68265e-12
7.3757e-12
7.42392e-12
7.96393e-12
8.07222e-12
8.26864e-12
8.55779e-12
8.23763e-12
8.854e-12
8.64505e-12
9.00909e-12
8.93755e-12
1.13183e-11
1.09812e-11
7.38504e-12
7.03637e-12
6.45616e-12
6.83487e-12
6.68281e-12
7.3759e-12
7.42409e-12
7.9641e-12
8.0724e-12
8.2688e-12
8.55799e-12
8.23776e-12
8.8542e-12
8.6452e-12
9.00928e-12
8.93773e-12
6.27571e-11
6.08165e-11
4.06912e-11
4.19115e-11
3.98384e-11
7.21531e-11
6.94594e-11
6.78882e-11
6.70408e-11
6.74398e-11
6.83495e-11
6.68009e-11
6.94375e-11
6.53777e-11
7.02858e-11
6.76998e-11
7.09006e-11
7.00035e-11
6.2761e-11
6.08206e-11
4.06935e-11
4.19146e-11
3.98403e-11
7.21592e-11
6.94639e-11
6.78935e-11
6.70455e-11
6.74446e-11
6.83548e-11
6.6805e-11
6.9443e-11
6.53811e-11
7.02915e-11
6.77039e-11
7.0906e-11
7.00083e-11
6.27648e-11
6.08246e-11
4.06957e-11
4.19175e-11
3.98422e-11
7.21651e-11
6.94683e-11
6.78985e-11
6.70501e-11
6.74492e-11
6.83599e-11
6.6809e-11
6.94484e-11
6.53845e-11
7.02969e-11
6.7708e-11
7.09112e-11
7.00131e-11
6.27686e-11
6.08285e-11
4.06979e-11
4.19204e-11
3.98441e-11
7.21708e-11
6.94726e-11
6.79034e-11
6.70546e-11
6.74536e-11
6.83648e-11
6.68129e-11
6.94536e-11
6.53879e-11
7.03021e-11
6.77119e-11
7.09163e-11
7.00176e-11
6.27723e-11
6.08324e-11
4.07e-11
4.19232e-11
3.98459e-11
7.21763e-11
6.94768e-11
6.79082e-11
6.70589e-11
6.74579e-11
6.83696e-11
6.68167e-11
6.94586e-11
6.53911e-11
7.03072e-11
6.77158e-11
7.09211e-11
7.0022e-11
5.34287e-10
5.18124e-10
3.34277e-10
3.43402e-10
3.3931e-10
5.95525e-10
5.80726e-10
5.72398e-10
5.664e-10
5.65184e-10
5.70462e-10
5.60917e-10
5.76172e-10
5.57601e-10
5.81994e-10
5.67016e-10
5.87338e-10
5.82151e-10
5.34319e-10
5.18157e-10
3.34293e-10
3.43424e-10
3.39324e-10
5.9557e-10
5.8076e-10
5.72437e-10
5.66435e-10
5.65219e-10
5.70501e-10
5.60948e-10
5.76213e-10
5.5245e-10
5.82036e-10
5.67047e-10
5.87379e-10
5.82187e-10
5.3435e-10
5.1819e-10
3.34309e-10
3.43446e-10
3.39338e-10
5.95614e-10
5.80793e-10
5.72475e-10
5.6647e-10
5.65254e-10
5.70539e-10
5.60978e-10
5.76254e-10
5.57653e-10
5.82076e-10
5.67078e-10
5.87418e-10
5.82223e-10
5.34382e-10
5.18223e-10
3.34326e-10
3.43467e-10
3.39351e-10
5.95657e-10
5.80825e-10
5.72512e-10
5.66504e-10
5.65288e-10
5.70577e-10
5.61008e-10
5.76293e-10
5.57679e-10
5.82116e-10
5.67108e-10
5.87456e-10
5.82257e-10
5.34414e-10
5.18257e-10
3.34342e-10
3.43488e-10
3.39365e-10
5.95698e-10
5.80856e-10
5.72549e-10
5.66537e-10
5.65321e-10
5.70613e-10
5.61037e-10
5.76331e-10
5.52526e-10
5.82155e-10
5.67137e-10
5.87493e-10
5.82291e-10
2.91118e-09
2.8272e-09
1.77621e-09
1.80279e-09
1.82588e-09
2.96634e-09
2.92752e-09
2.95032e-09
2.92766e-09
2.91344e-09
2.93074e-09
2.90993e-09
2.95957e-09
2.90928e-09
2.98921e-09
2.94188e-09
3.02058e-09
3.00424e-09
2.91133e-09
2.82736e-09
1.77627e-09
1.80289e-09
1.82594e-09
2.96653e-09
2.92767e-09
2.95049e-09
2.92781e-09
2.91359e-09
2.93091e-09
2.91006e-09
2.95975e-09
2.88337e-09
2.98939e-09
2.94201e-09
3.02076e-09
3.0044e-09
2.91148e-09
2.82751e-09
1.77634e-09
1.80298e-09
1.826e-09
2.96672e-09
2.92781e-09
2.95065e-09
2.92796e-09
2.91374e-09
2.93107e-09
2.91019e-09
2.95993e-09
2.88348e-09
2.98957e-09
2.94214e-09
3.02093e-09
3.00455e-09
2.91163e-09
2.82768e-09
1.77641e-09
1.80307e-09
1.82606e-09
2.9669e-09
2.92795e-09
2.95081e-09
2.92811e-09
2.91389e-09
2.93124e-09
2.91032e-09
2.9601e-09
2.88359e-09
2.98974e-09
2.94227e-09
3.0211e-09
3.0047e-09
2.91179e-09
2.82784e-09
1.77648e-09
1.80316e-09
2.81313e-09
2.96708e-09
2.92808e-09
2.95097e-09
2.92826e-09
2.91404e-09
2.9314e-09
2.91045e-09
2.96027e-09
2.90973e-09
2.98991e-09
2.9424e-09
3.02126e-09
3.00485e-09
1.11545e-08
1.08424e-08
6.64351e-09
6.66584e-09
6.83554e-09
1.04278e-08
1.03804e-08
1.07017e-08
1.06424e-08
1.0584e-08
1.06242e-08
1.06291e-08
1.07437e-08
1.05728e-08
1.08551e-08
1.07518e-08
1.09813e-08
1.09458e-08
1.1155e-08
1.0843e-08
6.64371e-09
6.66612e-09
6.83572e-09
1.04284e-08
1.03808e-08
1.07022e-08
1.06429e-08
1.05845e-08
1.06247e-08
1.06295e-08
1.07443e-08
1.05732e-08
1.08556e-08
1.07523e-08
1.09819e-08
1.09463e-08
1.11556e-08
1.08435e-08
6.64392e-09
6.66639e-09
6.83589e-09
1.0429e-08
1.03812e-08
1.07027e-08
1.06434e-08
1.0585e-08
1.06252e-08
1.06299e-08
1.07448e-08
1.05735e-08
1.08562e-08
1.07527e-08
1.09824e-08
1.09468e-08
1.11561e-08
1.08441e-08
6.64413e-09
6.66668e-09
6.83607e-09
1.04295e-08
1.03816e-08
1.07032e-08
1.06438e-08
1.05854e-08
1.06257e-08
1.06303e-08
1.07453e-08
1.05738e-08
1.08567e-08
1.07531e-08
1.09829e-08
1.09473e-08
1.11566e-08
1.08446e-08
6.64435e-09
6.66697e-09
6.83625e-09
1.043e-08
1.0382e-08
1.07037e-08
1.06443e-08
1.05859e-08
1.06262e-08
1.06307e-08
1.07459e-08
1.05742e-08
1.08572e-08
1.07535e-08
1.09834e-08
1.09477e-08
3.32868e-08
3.23723e-08
1.92667e-08
1.91073e-08
2.71845e-08
2.83913e-08
2.845e-08
3.00634e-08
2.99547e-08
2.98284e-08
2.99016e-08
3.01191e-08
3.03267e-08
3.00411e-08
3.06682e-08
3.05035e-08
3.1062e-08
3.10058e-08
3.32881e-08
3.23737e-08
1.92672e-08
1.91079e-08
2.71854e-08
2.83927e-08
2.8451e-08
3.00646e-08
2.99558e-08
2.98295e-08
2.99028e-08
3.01201e-08
3.0328e-08
3.00419e-08
3.06696e-08
3.05045e-08
3.10633e-08
3.10069e-08
3.32895e-08
3.23752e-08
1.92677e-08
1.91086e-08
1.96862e-08
2.83939e-08
2.8452e-08
3.00658e-08
2.99569e-08
2.98306e-08
2.99041e-08
3.0121e-08
3.03293e-08
3.03372e-08
3.06709e-08
3.05055e-08
3.10645e-08
3.10081e-08
3.3291e-08
3.23767e-08
1.92682e-08
1.91092e-08
2.7187e-08
2.83952e-08
2.84529e-08
3.00671e-08
2.9958e-08
2.98317e-08
2.99053e-08
3.0122e-08
3.03306e-08
3.00436e-08
3.06722e-08
3.05065e-08
3.10658e-08
3.10092e-08
3.32925e-08
3.23783e-08
1.92687e-08
1.911e-08
2.71878e-08
2.83964e-08
2.84539e-08
3.00683e-08
2.99591e-08
2.98328e-08
2.99065e-08
3.0123e-08
3.03319e-08
3.00444e-08
3.06735e-08
3.05075e-08
3.10671e-08
3.10104e-08
8.2105e-08
7.9874e-08
4.60052e-08
4.50385e-08
6.0769e-08
6.32422e-08
6.37316e-08
6.91423e-08
6.90341e-08
6.89683e-08
6.9079e-08
7.00601e-08
7.03683e-08
7.00351e-08
7.12717e-08
7.11009e-08
7.22884e-08
7.22317e-08
8.21081e-08
7.98772e-08
4.60061e-08
4.50397e-08
6.07705e-08
6.32446e-08
6.37334e-08
6.91447e-08
6.90362e-08
6.89705e-08
6.90814e-08
7.0062e-08
7.03709e-08
7.00367e-08
7.12743e-08
7.11028e-08
7.2291e-08
7.22339e-08
8.21113e-08
7.98806e-08
4.60071e-08
4.50409e-08
4.63661e-08
6.3247e-08
6.37352e-08
6.91471e-08
6.90384e-08
6.89727e-08
6.90838e-08
7.00639e-08
7.03734e-08
7.00384e-08
7.12769e-08
7.11048e-08
7.22935e-08
7.22362e-08
8.21145e-08
7.9884e-08
4.60081e-08
4.50423e-08
6.07736e-08
6.32493e-08
6.37369e-08
6.91495e-08
6.90406e-08
6.89748e-08
6.90861e-08
7.00658e-08
7.0376e-08
7.004e-08
7.12795e-08
7.11067e-08
7.2296e-08
7.22385e-08
8.21179e-08
7.98876e-08
4.60091e-08
4.50437e-08
4.63678e-08
6.32516e-08
6.37386e-08
6.91519e-08
6.90427e-08
6.8977e-08
6.90885e-08
7.00678e-08
7.03786e-08
7.00417e-08
7.12821e-08
7.11087e-08
7.22985e-08
7.22408e-08
1.73187e-07
1.68502e-07
9.37729e-08
9.04965e-08
9.27069e-08
1.19449e-07
1.20966e-07
1.34715e-07
1.348e-07
1.35327e-07
1.35476e-07
1.38344e-07
1.3874e-07
1.38574e-07
1.40823e-07
1.40801e-07
1.43059e-07
1.43058e-07
1.73193e-07
1.68509e-07
9.37744e-08
9.04984e-08
9.27081e-08
1.19453e-07
1.20969e-07
1.34719e-07
1.34803e-07
1.3533e-07
1.35479e-07
1.38347e-07
1.38745e-07
1.38576e-07
1.40828e-07
1.40804e-07
1.43063e-07
1.43061e-07
1.73199e-07
1.68515e-07
9.3776e-08
9.05005e-08
1.15169e-07
1.19456e-07
1.20971e-07
1.34723e-07
1.34807e-07
1.35334e-07
1.35483e-07
1.3835e-07
1.38749e-07
1.38579e-07
1.40832e-07
1.40807e-07
1.43068e-07
1.43065e-07
1.73206e-07
1.68522e-07
9.37776e-08
9.05028e-08
9.27109e-08
1.1946e-07
1.20974e-07
1.34727e-07
1.3481e-07
1.35337e-07
1.35487e-07
1.38353e-07
1.38753e-07
1.38582e-07
1.40836e-07
1.4081e-07
1.43072e-07
1.43069e-07
1.73212e-07
1.68528e-07
9.37794e-08
9.05053e-08
1.15173e-07
1.19463e-07
1.20977e-07
1.34731e-07
1.34814e-07
1.35341e-07
1.35491e-07
1.38357e-07
1.38757e-07
1.38585e-07
1.40841e-07
1.40814e-07
1.43076e-07
1.43073e-07
3.19453e-07
3.10789e-07
1.67156e-07
1.58955e-07
1.90182e-07
1.96622e-07
1.99931e-07
2.28204e-07
2.28829e-07
2.30968e-07
2.31167e-07
2.37599e-07
2.38091e-07
2.38413e-07
2.42259e-07
2.42609e-07
2.46509e-07
2.46645e-07
3.19463e-07
3.10799e-07
1.67158e-07
1.58957e-07
1.61626e-07
1.96627e-07
1.99934e-07
2.28209e-07
2.28834e-07
2.30973e-07
2.31173e-07
2.37603e-07
2.38097e-07
2.38416e-07
2.42265e-07
2.42614e-07
2.46515e-07
2.4665e-07
3.19473e-07
3.1081e-07
1.6716e-07
1.5896e-07
1.90188e-07
1.96632e-07
1.99938e-07
2.28214e-07
2.28839e-07
2.30978e-07
2.31178e-07
2.37608e-07
2.38103e-07
2.3842e-07
2.42271e-07
2.42618e-07
2.46521e-07
2.46656e-07
3.19483e-07
3.10821e-07
1.67162e-07
1.58964e-07
1.6163e-07
1.96636e-07
1.99941e-07
2.2822e-07
2.28843e-07
2.30983e-07
2.31183e-07
2.37612e-07
2.38109e-07
2.38424e-07
2.42278e-07
2.42623e-07
2.46527e-07
2.46661e-07
3.19493e-07
3.10832e-07
1.67165e-07
1.58967e-07
1.61632e-07
1.96641e-07
1.99945e-07
2.28225e-07
2.28848e-07
2.30988e-07
2.31189e-07
2.37617e-07
2.38115e-07
2.38428e-07
2.42284e-07
2.42628e-07
2.46533e-07
2.46666e-07
5.25098e-07
5.1074e-07
2.65354e-07
2.48868e-07
2.75411e-07
2.83582e-07
2.89655e-07
3.44241e-07
3.45811e-07
3.50769e-07
3.51047e-07
3.62958e-07
3.63613e-07
3.64719e-07
3.70881e-07
3.71809e-07
3.77987e-07
3.78337e-07
5.25112e-07
5.10754e-07
2.65357e-07
2.48871e-07
2.50965e-07
2.83586e-07
2.89658e-07
3.44248e-07
3.45817e-07
3.50774e-07
3.51053e-07
3.62963e-07
3.63621e-07
3.64723e-07
3.70888e-07
3.71815e-07
3.77994e-07
3.78344e-07
5.25126e-07
5.10769e-07
2.6536e-07
2.48874e-07
2.50967e-07
2.83591e-07
2.89662e-07
3.44254e-07
3.45823e-07
3.5078e-07
3.5106e-07
3.62969e-07
3.63628e-07
3.64728e-07
3.70896e-07
3.7182e-07
3.78001e-07
3.78351e-07
5.25141e-07
5.10784e-07
2.65363e-07
2.48879e-07
2.5097e-07
2.83595e-07
2.89665e-07
3.44261e-07
3.45829e-07
3.50786e-07
3.51066e-07
3.62974e-07
3.63635e-07
3.64733e-07
3.70903e-07
3.71826e-07
3.78009e-07
3.78357e-07
5.25155e-07
5.108e-07
2.65366e-07
2.48884e-07
2.50973e-07
2.836e-07
2.89669e-07
3.44268e-07
3.45835e-07
3.50793e-07
3.51073e-07
3.6298e-07
3.63643e-07
3.70842e-07
3.70911e-07
3.71832e-07
3.78016e-07
3.78364e-07
7.83273e-07
7.61558e-07
3.75417e-07
3.46492e-07
3.45365e-07
3.7036e-07
3.80045e-07
4.64425e-07
4.68209e-07
4.79113e-07
4.79407e-07
5.01378e-07
5.02155e-07
5.04472e-07
5.13877e-07
5.15644e-07
5.25485e-07
5.2613e-07
7.83291e-07
7.61577e-07
3.7542e-07
3.46494e-07
3.45366e-07
3.70363e-07
3.80048e-07
4.64431e-07
4.68215e-07
4.79118e-07
4.79413e-07
5.01384e-07
5.02163e-07
5.04477e-07
5.13884e-07
5.15649e-07
5.25493e-07
5.26136e-07
7.83309e-07
7.61596e-07
3.75422e-07
3.46497e-07
3.45368e-07
3.70367e-07
3.80051e-07
4.64438e-07
4.68221e-07
4.79124e-07
4.79419e-07
5.01389e-07
5.02171e-07
5.04482e-07
5.13892e-07
5.15655e-07
5.25501e-07
5.26144e-07
7.83327e-07
7.61615e-07
3.75425e-07
3.46502e-07
3.45371e-07
3.70371e-07
3.80054e-07
4.64445e-07
4.68228e-07
4.7913e-07
4.79426e-07
5.01396e-07
5.02179e-07
5.04487e-07
5.139e-07
5.15662e-07
5.25509e-07
5.26151e-07
7.83345e-07
7.61634e-07
3.75429e-07
3.46508e-07
3.45375e-07
3.70375e-07
3.80056e-07
4.64452e-07
4.68234e-07
4.79136e-07
4.79433e-07
5.01402e-07
5.02187e-07
5.04492e-07
5.13909e-07
5.15668e-07
5.25518e-07
5.26159e-07
1.07717e-06
1.04614e-06
4.92041e-07
4.4769e-07
4.41915e-07
4.44926e-07
4.57984e-07
5.73438e-07
5.78885e-07
5.96281e-07
5.96996e-07
6.28282e-07
6.29904e-07
6.3409e-07
6.48453e-07
6.5161e-07
6.64829e-07
6.66032e-07
1.07719e-06
1.04616e-06
4.92042e-07
4.47692e-07
4.41916e-07
4.44929e-07
4.57987e-07
5.73444e-07
5.7889e-07
5.96286e-07
5.97001e-07
6.28287e-07
6.29911e-07
6.34094e-07
6.48459e-07
6.51615e-07
6.64835e-07
6.66038e-07
1.07721e-06
1.04618e-06
4.92045e-07
4.47695e-07
4.34705e-07
4.44932e-07
4.57989e-07
5.73449e-07
5.78896e-07
5.96291e-07
5.97006e-07
6.28292e-07
6.29917e-07
6.34098e-07
6.48466e-07
6.5162e-07
6.64842e-07
6.66044e-07
1.07723e-06
1.0462e-06
4.92048e-07
4.47699e-07
4.41921e-07
4.44936e-07
4.57992e-07
5.73455e-07
5.78901e-07
5.96296e-07
5.97012e-07
6.28297e-07
6.29924e-07
6.34102e-07
6.48473e-07
6.51625e-07
6.64849e-07
6.6605e-07
1.07726e-06
1.04623e-06
4.92051e-07
4.47706e-07
4.41925e-07
4.4494e-07
4.57995e-07
5.73461e-07
5.78906e-07
5.96301e-07
5.97018e-07
6.28303e-07
6.29931e-07
6.34107e-07
6.48481e-07
6.51631e-07
6.64857e-07
6.66057e-07
1.39477e-06
1.35364e-06
6.11184e-07
5.49644e-07
5.3873e-07
5.12653e-07
5.2768e-07
6.67763e-07
6.74126e-07
6.93037e-07
6.93832e-07
7.34346e-07
7.36392e-07
7.40967e-07
7.58651e-07
7.62102e-07
7.78935e-07
7.8024e-07
1.39479e-06
1.35367e-06
6.11186e-07
5.49645e-07
5.38731e-07
5.12656e-07
5.27683e-07
6.67767e-07
6.7413e-07
6.93041e-07
6.93836e-07
7.3435e-07
7.36397e-07
7.4097e-07
7.58656e-07
7.62105e-07
7.7894e-07
7.80244e-07
1.39481e-06
1.35369e-06
6.11188e-07
5.49648e-07
5.38733e-07
5.12659e-07
5.27685e-07
6.67772e-07
6.74134e-07
6.93045e-07
6.93841e-07
7.34354e-07
7.36403e-07
7.40974e-07
7.58662e-07
7.6211e-07
7.78946e-07
7.80249e-07
1.39484e-06
1.35371e-06
6.11192e-07
5.49654e-07
5.38737e-07
5.12663e-07
5.27688e-07
6.67777e-07
6.74139e-07
6.9305e-07
6.93846e-07
7.34358e-07
7.36409e-07
7.40977e-07
7.58668e-07
7.62114e-07
7.78951e-07
7.80254e-07
1.39486e-06
1.35374e-06
6.11196e-07
5.49662e-07
5.38742e-07
5.12667e-07
5.27691e-07
6.67783e-07
6.74144e-07
6.93055e-07
6.93852e-07
7.34363e-07
7.36415e-07
7.5962e-07
7.58675e-07
7.62119e-07
7.78958e-07
7.8026e-07
1.71455e-06
1.66339e-06
7.34375e-07
6.54945e-07
6.38279e-07
5.78174e-07
5.94924e-07
7.53234e-07
7.60556e-07
7.81518e-07
7.8229e-07
8.28406e-07
8.30434e-07
8.35893e-07
8.55275e-07
8.59347e-07
8.78016e-07
8.79549e-07
1.71458e-06
1.66342e-06
7.34377e-07
6.54946e-07
6.38279e-07
5.78176e-07
5.94927e-07
7.53239e-07
7.6056e-07
7.81522e-07
7.82294e-07
8.28409e-07
8.30439e-07
8.56741e-07
8.55279e-07
8.59351e-07
8.7802e-07
8.79553e-07
1.7146e-06
1.66344e-06
7.3438e-07
6.5495e-07
6.38282e-07
5.7818e-07
5.94929e-07
7.53244e-07
7.60565e-07
7.81526e-07
7.82298e-07
8.28413e-07
8.30444e-07
8.56745e-07
8.55285e-07
8.59355e-07
8.78026e-07
8.79558e-07
1.71462e-06
1.66347e-06
7.34384e-07
6.54956e-07
6.38286e-07
5.78184e-07
5.94932e-07
7.53249e-07
7.60569e-07
7.81531e-07
7.82304e-07
8.28418e-07
8.3045e-07
8.35903e-07
8.55291e-07
8.5936e-07
8.78032e-07
8.79563e-07
1.71464e-06
1.66349e-06
7.34388e-07
6.54966e-07
6.38293e-07
5.78188e-07
5.94935e-07
7.53254e-07
7.60574e-07
7.81536e-07
7.8231e-07
8.28423e-07
8.30457e-07
8.35907e-07
8.55298e-07
8.59365e-07
8.78038e-07
8.79569e-07
2.00799e-06
1.9479e-06
8.53154e-07
7.57753e-07
7.35484e-07
6.40875e-07
6.59127e-07
8.35482e-07
8.43771e-07
8.66876e-07
8.67633e-07
9.19071e-07
9.2109e-07
9.27439e-07
9.48457e-07
9.53156e-07
9.73499e-07
9.75264e-07
2.00801e-06
1.94793e-06
8.53156e-07
7.57754e-07
6.31659e-07
6.40878e-07
6.59129e-07
8.35487e-07
8.43775e-07
8.6688e-07
8.67637e-07
9.19074e-07
9.21095e-07
9.27442e-07
9.48462e-07
9.5316e-07
9.73504e-07
9.75268e-07
2.00803e-06
1.94795e-06
8.53159e-07
7.57758e-07
7.35486e-07
6.40881e-07
6.59132e-07
8.35492e-07
8.43779e-07
8.66884e-07
8.67642e-07
9.19078e-07
9.211e-07
9.27446e-07
9.48467e-07
9.53164e-07
9.73509e-07
9.75273e-07
2.00805e-06
1.94797e-06
8.53163e-07
7.57766e-07
6.31664e-07
6.40885e-07
6.59135e-07
8.35497e-07
8.43784e-07
8.66889e-07
8.67648e-07
9.19083e-07
9.21106e-07
9.50448e-07
9.48474e-07
9.53169e-07
9.73515e-07
9.75279e-07
2.00806e-06
1.94799e-06
8.53168e-07
7.57777e-07
7.355e-07
6.4089e-07
6.59138e-07
8.35503e-07
8.43789e-07
8.66895e-07
8.67654e-07
9.19088e-07
9.21113e-07
9.50453e-07
9.48481e-07
9.53174e-07
9.73522e-07
9.75285e-07
2.27372e-06
2.20592e-06
9.58823e-07
8.52059e-07
6.93047e-07
7.01196e-07
7.20726e-07
9.15525e-07
9.24779e-07
9.50033e-07
9.50799e-07
1.00764e-06
1.00972e-06
1.01689e-06
1.03965e-06
1.04493e-06
1.06697e-06
1.06895e-06
2.27374e-06
2.20594e-06
9.58826e-07
8.52059e-07
6.93048e-07
7.01198e-07
7.20728e-07
9.1553e-07
9.24784e-07
9.50036e-07
9.50803e-07
1.00765e-06
1.00973e-06
1.01689e-06
1.03966e-06
1.04493e-06
1.06698e-06
1.06896e-06
2.27376e-06
2.20596e-06
9.58829e-07
8.52064e-07
8.25137e-07
7.01202e-07
7.2073e-07
9.15535e-07
9.24788e-07
9.50041e-07
9.50808e-07
1.00765e-06
1.00973e-06
1.0169e-06
1.03966e-06
1.04493e-06
1.06698e-06
1.06896e-06
2.27378e-06
2.20598e-06
9.58834e-07
8.52073e-07
8.25143e-07
7.01206e-07
7.20733e-07
9.15541e-07
9.24793e-07
9.50046e-07
9.50814e-07
1.00765e-06
1.00974e-06
1.04208e-06
1.03967e-06
1.04494e-06
1.06699e-06
1.06897e-06
2.52755e-06
2.45272e-06
1.0695e-06
9.51026e-07
9.18808e-07
7.6096e-07
7.81647e-07
9.9511e-07
1.00535e-06
1.03277e-06
1.03357e-06
1.09609e-06
1.09833e-06
1.10621e-06
1.13082e-06
1.1366e-06
1.16042e-06
1.16258e-06
2.52757e-06
2.45275e-06
1.0695e-06
9.51022e-07
9.18805e-07
7.60961e-07
7.81649e-07
9.95115e-07
1.00536e-06
1.03277e-06
1.03357e-06
1.09609e-06
1.09834e-06
1.10621e-06
1.13083e-06
1.1366e-06
1.16042e-06
1.16259e-06
2.5276e-06
2.45277e-06
1.0695e-06
9.51023e-07
9.18805e-07
7.60963e-07
7.81651e-07
9.95119e-07
1.00536e-06
1.03278e-06
1.03358e-06
1.09609e-06
1.09834e-06
1.10621e-06
1.13083e-06
1.1366e-06
1.16043e-06
1.16259e-06
2.52762e-06
2.45279e-06
1.06951e-06
9.51028e-07
9.18808e-07
7.60966e-07
7.81653e-07
9.95125e-07
1.00537e-06
1.03278e-06
1.03358e-06
1.0961e-06
1.09835e-06
1.10622e-06
1.13084e-06
1.13661e-06
1.16043e-06
1.1626e-06
2.52764e-06
2.45281e-06
1.06951e-06
9.51038e-07
7.54319e-07
7.60971e-07
7.81656e-07
9.95131e-07
1.00537e-06
1.03279e-06
1.03359e-06
1.0961e-06
1.09835e-06
1.10622e-06
1.13084e-06
1.13661e-06
1.16044e-06
1.1626e-06
2.8015e-06
2.7193e-06
1.19005e-06
1.05853e-06
1.02004e-06
8.21894e-07
8.43773e-07
1.07714e-06
1.08846e-06
1.11746e-06
1.11835e-06
1.1882e-06
1.19076e-06
1.19923e-06
1.22586e-06
1.23206e-06
1.25777e-06
1.2601e-06
2.80153e-06
2.71933e-06
1.19006e-06
1.05852e-06
1.02004e-06
8.21894e-07
8.43774e-07
1.07714e-06
1.08846e-06
1.11746e-06
1.11836e-06
1.1882e-06
1.19076e-06
1.19923e-06
1.22586e-06
1.23206e-06
1.25778e-06
1.2601e-06
2.80156e-06
2.71935e-06
1.19006e-06
1.05853e-06
8.17174e-07
8.21897e-07
8.43776e-07
1.07715e-06
1.08847e-06
1.11747e-06
1.11836e-06
1.18821e-06
1.19077e-06
1.19923e-06
1.22587e-06
1.23206e-06
1.25778e-06
1.2601e-06
2.80158e-06
2.71938e-06
1.19006e-06
1.05853e-06
1.02004e-06
8.219e-07
8.43778e-07
1.07715e-06
1.08847e-06
1.11747e-06
1.11837e-06
1.18821e-06
1.19077e-06
1.19924e-06
1.22588e-06
1.23207e-06
1.25779e-06
1.26011e-06
2.8016e-06
2.7194e-06
1.19007e-06
1.05854e-06
1.02005e-06
8.21905e-07
8.43782e-07
1.07716e-06
1.08848e-06
1.11748e-06
1.11837e-06
1.18822e-06
1.19078e-06
1.19924e-06
1.22588e-06
1.23208e-06
1.2578e-06
1.26012e-06
3.10778e-06
3.01749e-06
1.32471e-06
1.17807e-06
8.83651e-07
8.86045e-07
9.09357e-07
1.16379e-06
1.17634e-06
1.20822e-06
1.20929e-06
1.28809e-06
1.29125e-06
1.30012e-06
1.32947e-06
1.33599e-06
1.3644e-06
1.36686e-06
3.10781e-06
3.01753e-06
1.32471e-06
1.17807e-06
1.13207e-06
8.86046e-07
9.09358e-07
1.16379e-06
1.17634e-06
1.20822e-06
1.20929e-06
1.28809e-06
1.29125e-06
1.30013e-06
1.32948e-06
1.336e-06
1.3644e-06
1.36687e-06
3.10784e-06
3.01756e-06
1.32472e-06
1.17807e-06
8.83652e-07
8.86048e-07
9.0936e-07
1.1638e-06
1.17635e-06
1.20823e-06
1.2093e-06
1.2881e-06
1.29126e-06
1.30013e-06
1.32948e-06
1.336e-06
1.36441e-06
1.36687e-06
3.10787e-06
3.01759e-06
1.32472e-06
1.17808e-06
1.13207e-06
8.86052e-07
9.09362e-07
1.16381e-06
1.17636e-06
1.20823e-06
1.20931e-06
1.2881e-06
1.29127e-06
1.30014e-06
1.32949e-06
1.33601e-06
1.36442e-06
1.36688e-06
3.1079e-06
3.01762e-06
1.32473e-06
1.17809e-06
1.13208e-06
8.86057e-07
9.09366e-07
1.16382e-06
1.17636e-06
1.20824e-06
1.20931e-06
1.28811e-06
1.29128e-06
1.30014e-06
1.3295e-06
1.33601e-06
1.36443e-06
1.36689e-06
3.4525e-06
3.35329e-06
1.47736e-06
1.31298e-06
1.25799e-06
9.55597e-07
9.80794e-07
1.26111e-06
1.27522e-06
1.31142e-06
1.31276e-06
1.39991e-06
1.40401e-06
1.41315e-06
1.44423e-06
1.45093e-06
1.47986e-06
1.48242e-06
3.45254e-06
3.35333e-06
1.47737e-06
1.31297e-06
1.25799e-06
9.55597e-07
9.80794e-07
1.26112e-06
1.27522e-06
1.31143e-06
1.31277e-06
1.39992e-06
1.40402e-06
1.41315e-06
1.44424e-06
1.45093e-06
1.47986e-06
1.48242e-06
3.45258e-06
3.35337e-06
1.47737e-06
1.31297e-06
1.25799e-06
9.55599e-07
9.80796e-07
1.26113e-06
1.27523e-06
1.31144e-06
1.31277e-06
1.39992e-06
1.40403e-06
1.41316e-06
1.44425e-06
1.45094e-06
1.47987e-06
1.48243e-06
3.45261e-06
3.35341e-06
1.47738e-06
1.31298e-06
9.55904e-07
9.55603e-07
9.808e-07
1.26114e-06
1.27524e-06
1.31144e-06
1.31278e-06
1.39993e-06
1.40404e-06
1.41317e-06
1.44426e-06
1.45095e-06
1.47988e-06
1.48244e-06
3.45264e-06
3.35344e-06
1.47738e-06
1.313e-06
9.55909e-07
9.5561e-07
9.80804e-07
1.26115e-06
1.27525e-06
1.31145e-06
1.31279e-06
1.39994e-06
1.40405e-06
1.41317e-06
1.44427e-06
1.45096e-06
1.47989e-06
1.48245e-06
3.82901e-06
3.72034e-06
1.64878e-06
1.46438e-06
1.03575e-06
1.03236e-06
1.05994e-06
1.3683e-06
1.38445e-06
1.42923e-06
1.43084e-06
1.51937e-06
1.52402e-06
1.53372e-06
1.56496e-06
1.57158e-06
1.6007e-06
1.60316e-06
3.82905e-06
3.72039e-06
1.64879e-06
1.46437e-06
1.03575e-06
1.03236e-06
1.05994e-06
1.36831e-06
1.38446e-06
1.42924e-06
1.43085e-06
1.51937e-06
1.52402e-06
1.53372e-06
1.56497e-06
1.57158e-06
1.6007e-06
1.60317e-06
3.8291e-06
3.72043e-06
1.64879e-06
1.46438e-06
1.03576e-06
1.03237e-06
1.05995e-06
1.36832e-06
1.38447e-06
1.42924e-06
1.43086e-06
1.51938e-06
1.52403e-06
1.53373e-06
1.56498e-06
1.57159e-06
1.60071e-06
1.60317e-06
3.82913e-06
3.72047e-06
1.6488e-06
1.46439e-06
1.03576e-06
1.03237e-06
1.05995e-06
1.36833e-06
1.38447e-06
1.42925e-06
1.43087e-06
1.51939e-06
1.52404e-06
1.53374e-06
1.56499e-06
1.5716e-06
1.60072e-06
1.60318e-06
3.82917e-06
3.72051e-06
1.64881e-06
1.4644e-06
1.03576e-06
1.03238e-06
1.05995e-06
1.36834e-06
1.38448e-06
1.42926e-06
1.43088e-06
1.5194e-06
1.52405e-06
1.53374e-06
1.565e-06
1.57161e-06
1.60073e-06
1.60319e-06
4.22033e-06
4.10234e-06
1.83414e-06
1.62946e-06
1.1228e-06
1.11555e-06
1.14494e-06
1.47815e-06
1.49676e-06
1.54589e-06
1.54711e-06
1.63886e-06
1.6428e-06
1.65174e-06
1.68117e-06
1.68772e-06
1.7175e-06
1.71999e-06
4.22039e-06
4.10239e-06
1.83414e-06
1.62946e-06
1.55307e-06
1.11555e-06
1.14494e-06
1.47815e-06
1.49677e-06
1.5459e-06
1.54712e-06
1.63886e-06
1.6428e-06
1.65174e-06
1.68117e-06
1.68773e-06
1.71751e-06
1.71999e-06
4.22043e-06
4.10244e-06
1.83415e-06
1.62946e-06
1.1228e-06
1.11555e-06
1.14494e-06
1.47816e-06
1.49678e-06
1.54591e-06
1.54713e-06
1.63887e-06
1.64281e-06
1.65175e-06
1.68118e-06
1.68773e-06
1.71752e-06
1.72e-06
4.22047e-06
4.10248e-06
1.83416e-06
1.62948e-06
1.55307e-06
1.11556e-06
1.14495e-06
1.47817e-06
1.49679e-06
1.54592e-06
1.54714e-06
1.63887e-06
1.64282e-06
1.68441e-06
1.68119e-06
1.68774e-06
1.71753e-06
1.72001e-06
4.2205e-06
4.10252e-06
1.83417e-06
1.6295e-06
1.55309e-06
1.11557e-06
1.14495e-06
1.47818e-06
1.4968e-06
1.54593e-06
1.54715e-06
1.63888e-06
1.64283e-06
1.65176e-06
1.6812e-06
1.68775e-06
1.71754e-06
1.72002e-06
4.60826e-06
4.48174e-06
2.02941e-06
1.80582e-06
1.7182e-06
1.20403e-06
1.23354e-06
1.58116e-06
1.60092e-06
1.65617e-06
1.65767e-06
1.74819e-06
1.75259e-06
1.76174e-06
1.79262e-06
1.79948e-06
1.83156e-06
1.83417e-06
4.60832e-06
4.48179e-06
2.02941e-06
1.80581e-06
1.21628e-06
1.20403e-06
1.23355e-06
1.58117e-06
1.60092e-06
1.65617e-06
1.65768e-06
1.7482e-06
1.7526e-06
1.76175e-06
1.79262e-06
1.79948e-06
1.83156e-06
1.83417e-06
4.60836e-06
4.48184e-06
2.02942e-06
1.80582e-06
1.21628e-06
1.20404e-06
1.23355e-06
1.58118e-06
1.60093e-06
1.65618e-06
1.65768e-06
1.7482e-06
1.7526e-06
1.76175e-06
1.79263e-06
1.79949e-06
1.83157e-06
1.83418e-06
4.6084e-06
4.48188e-06
2.02943e-06
1.80583e-06
1.71821e-06
1.20404e-06
1.23355e-06
1.58119e-06
1.60094e-06
1.65618e-06
1.65769e-06
1.74821e-06
1.75261e-06
1.79573e-06
1.79264e-06
1.79949e-06
1.83158e-06
1.83419e-06
4.60843e-06
4.48192e-06
2.02944e-06
1.80586e-06
1.21629e-06
1.20405e-06
1.23356e-06
1.5812e-06
1.60095e-06
1.65619e-06
1.6577e-06
1.74822e-06
1.75262e-06
1.76176e-06
1.79265e-06
1.7995e-06
1.83159e-06
1.8342e-06
4.98275e-06
4.84881e-06
2.23094e-06
1.99049e-06
1.89189e-06
1.30062e-06
1.32926e-06
1.67892e-06
1.69947e-06
1.75831e-06
1.76003e-06
1.85302e-06
1.85772e-06
1.86713e-06
1.89911e-06
1.90628e-06
1.94033e-06
1.94305e-06
4.98281e-06
4.84887e-06
2.23094e-06
1.99049e-06
1.89189e-06
1.30062e-06
1.32926e-06
1.67892e-06
1.69948e-06
1.75831e-06
1.76003e-06
1.85302e-06
1.85772e-06
1.86713e-06
1.89912e-06
1.90628e-06
1.94033e-06
1.94306e-06
4.98285e-06
4.84892e-06
2.23095e-06
1.9905e-06
1.89189e-06
1.30063e-06
1.32927e-06
1.67893e-06
1.69949e-06
1.75832e-06
1.76004e-06
1.85303e-06
1.85773e-06
1.86714e-06
1.89913e-06
1.90629e-06
1.94034e-06
1.94307e-06
4.98289e-06
4.84896e-06
2.23097e-06
1.99051e-06
1.3187e-06
1.30064e-06
1.32927e-06
1.67894e-06
1.69949e-06
1.75833e-06
1.76005e-06
1.85304e-06
1.85774e-06
1.86714e-06
1.89914e-06
1.90629e-06
1.94035e-06
1.94308e-06
4.98292e-06
4.84899e-06
2.23098e-06
1.99054e-06
1.89192e-06
1.30065e-06
1.32928e-06
1.67895e-06
1.6995e-06
1.75834e-06
1.76006e-06
1.85305e-06
1.85775e-06
1.86715e-06
1.89915e-06
1.9063e-06
1.94036e-06
1.94308e-06
5.33955e-06
5.1992e-06
2.43185e-06
2.17645e-06
2.06785e-06
1.40523e-06
1.43203e-06
1.77357e-06
1.79452e-06
1.85578e-06
1.85759e-06
1.94981e-06
1.9543e-06
1.96378e-06
1.9951e-06
2.00246e-06
2.03736e-06
2.04015e-06
5.33961e-06
5.19926e-06
2.43186e-06
2.17644e-06
2.06784e-06
1.40523e-06
1.43203e-06
1.77358e-06
1.79453e-06
1.85579e-06
1.8576e-06
1.94981e-06
1.95431e-06
1.99838e-06
1.99511e-06
2.00246e-06
2.03736e-06
2.04016e-06
5.33966e-06
5.19931e-06
2.43187e-06
2.17645e-06
2.06784e-06
1.40523e-06
1.43203e-06
1.77358e-06
1.79453e-06
1.85579e-06
1.8576e-06
1.94982e-06
1.95432e-06
1.96379e-06
1.99511e-06
2.00247e-06
2.03737e-06
2.04016e-06
5.33969e-06
5.19934e-06
2.43188e-06
2.17647e-06
2.06786e-06
1.40524e-06
1.43204e-06
1.77359e-06
1.79454e-06
1.8558e-06
1.85761e-06
1.94983e-06
1.95433e-06
1.96379e-06
1.99512e-06
2.00247e-06
2.03737e-06
2.04017e-06
5.33972e-06
5.19937e-06
2.4319e-06
2.1765e-06
2.06788e-06
1.40526e-06
1.43205e-06
1.7736e-06
1.79455e-06
1.85581e-06
1.85762e-06
1.94983e-06
1.95434e-06
1.9638e-06
1.99513e-06
2.00248e-06
2.03738e-06
2.04018e-06
5.67638e-06
5.52978e-06
2.63171e-06
2.36301e-06
2.24555e-06
1.51503e-06
1.53947e-06
1.8637e-06
1.88451e-06
1.9469e-06
1.94865e-06
2.03525e-06
2.03894e-06
2.04825e-06
2.07672e-06
2.08413e-06
2.1184e-06
2.12122e-06
5.67644e-06
5.52984e-06
2.63172e-06
2.36301e-06
2.24554e-06
1.51503e-06
1.53947e-06
1.8637e-06
1.88451e-06
1.94691e-06
1.94865e-06
2.03525e-06
2.03894e-06
2.04825e-06
2.07672e-06
2.08413e-06
2.11841e-06
2.12122e-06
5.67649e-06
5.52989e-06
2.63173e-06
2.36302e-06
2.24554e-06
1.51504e-06
1.53947e-06
1.86371e-06
1.88452e-06
1.94691e-06
1.94866e-06
2.03525e-06
2.03895e-06
2.04825e-06
2.07673e-06
2.08414e-06
2.11841e-06
2.12123e-06
5.67653e-06
5.52992e-06
2.63174e-06
2.36303e-06
2.24555e-06
1.51505e-06
1.53948e-06
1.86372e-06
1.88453e-06
1.94692e-06
1.94867e-06
2.03526e-06
2.03895e-06
2.04826e-06
2.07674e-06
2.08414e-06
2.11842e-06
2.12123e-06
5.67655e-06
5.52995e-06
2.63175e-06
2.36306e-06
2.24558e-06
1.51507e-06
1.53949e-06
1.86373e-06
1.88453e-06
1.94693e-06
1.94868e-06
2.03526e-06
2.03896e-06
2.04826e-06
2.07675e-06
2.08415e-06
2.11843e-06
2.12124e-06
5.99999e-06
5.84802e-06
2.83306e-06
2.55262e-06
1.66842e-06
1.63436e-06
1.65512e-06
1.94861e-06
1.96865e-06
2.03059e-06
2.03213e-06
2.10828e-06
2.11058e-06
2.11954e-06
2.14298e-06
2.15033e-06
2.18241e-06
2.1852e-06
6.00005e-06
5.84808e-06
2.83307e-06
2.55262e-06
1.66842e-06
1.63437e-06
1.65512e-06
1.94862e-06
1.96865e-06
2.03059e-06
2.03213e-06
2.10828e-06
2.11058e-06
2.11954e-06
2.14298e-06
2.15033e-06
2.18241e-06
2.1852e-06
6.0001e-06
5.84813e-06
2.83309e-06
2.55263e-06
2.42729e-06
1.63437e-06
1.65513e-06
1.94862e-06
1.96866e-06
2.0306e-06
2.03214e-06
2.10828e-06
2.11058e-06
2.11954e-06
2.14299e-06
2.15033e-06
2.18241e-06
2.1852e-06
6.00013e-06
5.84817e-06
2.8331e-06
2.55264e-06
2.4273e-06
1.63439e-06
1.65514e-06
1.94863e-06
1.96866e-06
2.03061e-06
2.03215e-06
2.10829e-06
2.11059e-06
2.11955e-06
2.14299e-06
2.15033e-06
2.18242e-06
2.1852e-06
6.00015e-06
5.84819e-06
2.83311e-06
2.55268e-06
1.66845e-06
1.6344e-06
1.65515e-06
1.94864e-06
1.96867e-06
2.03061e-06
2.03216e-06
2.1083e-06
2.1106e-06
2.11955e-06
2.143e-06
2.15034e-06
2.18242e-06
2.18521e-06
6.31423e-06
6.15788e-06
3.0441e-06
2.75362e-06
2.62084e-06
1.7646e-06
1.78023e-06
2.02921e-06
2.04781e-06
2.1073e-06
2.10851e-06
2.16993e-06
2.17031e-06
2.17878e-06
2.19527e-06
2.20245e-06
2.23085e-06
2.23357e-06
6.3143e-06
6.15794e-06
3.04411e-06
2.75362e-06
1.8045e-06
1.7646e-06
1.78023e-06
2.02921e-06
2.04781e-06
2.1073e-06
2.10852e-06
2.16993e-06
2.17032e-06
2.17878e-06
2.19527e-06
2.20245e-06
2.23085e-06
2.23357e-06
6.31434e-06
6.15799e-06