/*--------------------------------*- C++ -*----------------------------------*\
| =========                 |                                                 |
| \\      /  F ield         | OpenFOAM: The Open Source CFD Toolbox           |
|  \\    /   O peration     | Version:  v1912                                 |
|   \\  /    A nd           | Website:  www.openfoam.com                      |
|    \\/     M anipulation  |                                                 |
\*---------------------------------------------------------------------------*/
FoamFile
{
    version     2.0;
    format      ascii;
    class       volScalarField;
    location    "198.4";
    object      k;
}
// * * * * * * * * * * * * * * * * * * * * * * * * * * * * * * * * * * * * * //

dimensions      [0 2 -2 0 0 0 0];


internalField   nonuniform List<scalar> 
10147
(
1.40547e-06
1.86442e-06
2.23081e-06
2.12231e-06
2.07438e-06
2.07502e-06
2.06463e-06
2.06132e-06
2.05905e-06
2.06206e-06
2.0656e-06
2.07634e-06
2.07552e-06
2.12368e-06
2.23337e-06
1.86748e-06
3.78071e-07
4.99759e-07
5.94419e-07
5.86054e-07
5.69798e-07
5.70462e-07
5.67365e-07
5.66452e-07
5.65761e-07
5.66755e-07
5.67796e-07
5.71059e-07
5.70323e-07
5.86688e-07
5.95231e-07
5.0067e-07
1.21534e-06
1.56854e-06
1.80651e-06
1.91258e-06
1.84992e-06
1.85317e-06
1.84237e-06
1.83927e-06
1.83684e-06
1.84058e-06
1.84432e-06
1.85589e-06
1.85234e-06
1.91551e-06
1.81011e-06
1.57195e-06
4.06217e-06
5.16101e-06
5.87583e-06
6.31354e-06
6.10741e-06
6.11671e-06
6.08128e-06
6.07072e-06
6.06282e-06
6.0751e-06
6.08783e-06
6.12584e-06
6.11557e-06
6.32337e-06
5.88828e-06
5.17236e-06
1.00256e-05
1.25471e-05
1.41665e-05
1.53247e-05
1.48349e-05
1.48533e-05
1.47687e-05
1.47425e-05
1.47239e-05
1.4753e-05
1.47845e-05
1.48753e-05
1.48546e-05
1.53483e-05
1.41969e-05
1.25744e-05
2.01784e-05
2.48554e-05
2.78225e-05
3.02463e-05
2.93075e-05
2.93369e-05
2.9174e-05
2.9122e-05
2.90864e-05
2.91423e-05
2.92046e-05
2.93796e-05
2.93458e-05
3.02922e-05
2.78819e-05
2.49081e-05
3.52957e-05
4.27595e-05
4.73969e-05
5.17407e-05
5.01946e-05
5.0237e-05
4.99675e-05
4.98798e-05
4.98211e-05
4.99135e-05
5.00186e-05
5.03082e-05
5.02587e-05
5.18175e-05
4.74965e-05
4.28473e-05
5.56797e-05
6.62976e-05
7.26555e-05
7.96032e-05
7.73381e-05
7.7398e-05
7.70021e-05
7.68722e-05
7.67858e-05
7.69223e-05
7.70783e-05
7.75043e-05
7.74338e-05
7.97176e-05
7.28043e-05
6.6428e-05
8.10637e-05
9.4792e-05
0.000102531
0.000112702
0.000109688
0.000109775
0.000109248
0.000109075
0.000108959
0.000109143
0.000109351
0.00010992
0.000109818
0.000112857
0.000102733
9.49688e-05
0.00011063
0.000126933
0.000135301
0.000149182
0.000145486
0.000145614
0.000144967
0.000144759
0.000144613
0.000144844
0.000145098
0.000145797
0.000145651
0.000149379
0.000135556
0.000127156
0.000143171
0.000161059
0.000168987
0.000186917
0.000182684
0.00018287
0.000182128
0.000181897
0.000181726
0.000181997
0.000182284
0.000183088
0.00018288
0.000187152
0.000169289
0.000161321
0.000177346
0.00019552
0.000201783
0.000223986
0.000219403
0.000219663
0.00021886
0.000218621
0.000218429
0.000218734
0.000219038
0.000219912
0.000219626
0.000224255
0.000202124
0.000195814
0.000211933
0.000228963
0.000232354
0.000258967
0.000254228
0.000254577
0.000253749
0.000253515
0.000253309
0.000253638
0.000253945
0.000254851
0.000254474
0.000259263
0.000232726
0.000229279
0.000245971
0.000260454
0.000260053
0.000291021
0.000286298
0.000286742
0.000285917
0.000285697
0.000285483
0.000285828
0.000286126
0.000287035
0.000286562
0.00029134
0.000260449
0.000260783
0.000278809
0.000289488
0.000284652
0.0003199
0.000315301
0.000315805
0.000314988
0.000314779
0.00031456
0.000314916
0.00031521
0.000316117
0.000315581
0.00032024
0.000285065
0.000289822
0.000310072
0.000315958
0.000306043
0.000345582
0.000341225
0.000341781
0.000340987
0.000340793
0.000340572
0.000340933
0.00034122
0.000342107
0.000341519
0.000345939
0.000306468
0.000316292
0.000339593
0.000339874
0.000324273
0.000368139
0.000364128
0.00036474
0.000363986
0.000363811
0.000363591
0.000363954
0.000364227
0.000365077
0.000364432
0.000368511
0.000324704
0.000340202
0.000367356
0.000361311
0.000339504
0.000387751
0.000384174
0.000384857
0.000384162
0.000384014
0.000383798
0.000384157
0.000384408
0.000385202
0.000384486
0.000388135
0.000339936
0.000361628
0.000393436
0.000380415
0.000351975
0.000404665
0.000401597
0.000402382
0.000401767
0.000401658
0.000401449
0.0004018
0.000402016
0.000402731
0.000401914
0.000405058
0.000352405
0.000380714
0.000417956
0.000397376
0.000361968
0.000419166
0.000416672
0.000417611
0.000417103
0.000417056
0.000416859
0.000417195
0.000417351
0.000417959
0.000416988
0.000419564
0.000362391
0.000397653
0.000441058
0.000412412
0.000369782
0.000431551
0.000429687
0.000430866
0.000430507
0.00043056
0.000430377
0.000430693
0.000430749
0.000431208
0.00043
0.000431952
0.000370196
0.000412661
0.000462883
0.000425753
0.00037572
0.000442116
0.000440937
0.000442486
0.000442334
0.000442505
0.00044234
0.000442631
0.000442565
0.000442815
0.00044124
0.000442516
0.000376121
0.00042597
0.000483569
0.000437636
0.000380073
0.000451148
0.000450709
0.000452757
0.000452838
0.000453147
0.000453001
0.000453264
0.000453055
0.000453069
0.000450993
0.00045154
0.000380459
0.000437816
0.000503241
0.000448297
0.000383118
0.000458915
0.000459269
0.000461895
0.000462237
0.000462704
0.000462579
0.000462812
0.000462437
0.000462185
0.000459532
0.000459294
0.000383485
0.000448434
0.000522008
0.000457952
0.000385103
0.000465612
0.000466792
0.000470078
0.000470711
0.000471358
0.000471255
0.000471454
0.000470891
0.000470343
0.000467028
0.000465974
0.000385449
0.000458043
0.000539958
0.000466743
0.000386232
0.000471384
0.00047342
0.000477452
0.000478404
0.000479252
0.000479174
0.000479336
0.000478561
0.000477688
0.000473625
0.000471724
0.000386554
0.000466786
0.000557162
0.000474787
0.000386694
0.000476346
0.000479267
0.000484131
0.000485431
0.000486503
0.00048645
0.000486573
0.000485562
0.000484333
0.000479436
0.000476661
0.000386989
0.000474782
0.000573673
0.000482181
0.000386611
0.000480587
0.000484422
0.0004902
0.000491877
0.000493194
0.000493169
0.00049325
0.000491979
0.000490365
0.000484551
0.000480873
0.000386878
0.000482124
0.000589529
0.000488996
0.000386085
0.000484176
0.000488949
0.000495719
0.000497803
0.000499386
0.000499391
0.000499427
0.000497871
0.000495844
0.000489033
0.000484428
0.000386322
0.000488887
0.000604754
0.000495289
0.000385197
0.000487157
0.000492893
0.000500728
0.000503244
0.000505116
0.000505151
0.000505139
0.000503277
0.000500809
0.000492928
0.000487372
0.000385402
0.000495127
0.000619359
0.000501098
0.000384012
0.00048956
0.000496281
0.000505246
0.000508219
0.0005104
0.000510468
0.000510405
0.000508214
0.000505278
0.000496263
0.000489735
0.000384182
0.000500883
0.000633345
0.000506449
0.000382578
0.000491401
0.000499123
0.000509275
0.00051273
0.000515238
0.000515341
0.000515224
0.000512684
0.000509255
0.000499049
0.000491531
0.000382712
0.000506181
0.000646701
0.000511356
0.000380932
0.000492681
0.00050142
0.000512806
0.000516763
0.000519615
0.000519755
0.000519581
0.000516674
0.000512731
0.000501286
0.000492763
0.000381028
0.000511034
0.00065941
0.000515821
0.000379098
0.000493394
0.000503158
0.000515815
0.000520295
0.000523507
0.000523686
0.00052345
0.000520161
0.000515683
0.000502962
0.000493425
0.000379156
0.000515447
0.000671448
0.000519841
0.000377092
0.000493525
0.000504319
0.000518274
0.000523292
0.000526876
0.000527096
0.000526797
0.000523111
0.000518082
0.000504059
0.000493502
0.00037711
0.000519414
0.000682782
0.000523403
0.000374922
0.000493053
0.000504877
0.000520145
0.000525715
0.000529681
0.000529945
0.000529579
0.000525485
0.000519891
0.00050455
0.000492974
0.000374899
0.000522925
0.000693377
0.000526492
0.000372591
0.000491954
0.000504801
0.000521387
0.00052752
0.000531875
0.000532185
0.000531748
0.000527239
0.00052107
0.000504406
0.000491817
0.000372526
0.000525964
0.000703193
0.00052909
0.000370097
0.000490204
0.00050406
0.000521956
0.000528658
0.000533407
0.000533766
0.000533256
0.000528326
0.000521574
0.000503595
0.000490007
0.00036999
0.000528513
0.000712189
0.000531174
0.000367434
0.000487777
0.00050262
0.000521807
0.000529081
0.000534226
0.000534635
0.00053405
0.000528698
0.000521361
0.000502085
0.000487519
0.000367286
0.000530551
0.000720321
0.000532726
0.000364596
0.000484649
0.000500449
0.000520898
0.000528742
0.000534282
0.000534744
0.00053408
0.000528308
0.000520386
0.000499844
0.000484329
0.000364406
0.000532058
0.000727543
0.000533726
0.000361575
0.000480802
0.000497521
0.000519187
0.000527596
0.000533526
0.000534042
0.000533298
0.000527112
0.000518611
0.000496846
0.00048042
0.000361344
0.000533016
0.000733814
0.000534157
0.000358362
0.000476221
0.00049381
0.00051664
0.000525604
0.000531914
0.000532487
0.000531661
0.000525069
0.000516
0.000493068
0.000475778
0.000358091
0.000533408
0.00073909
0.000534005
0.00035495
0.000470897
0.000489301
0.000513226
0.000522731
0.000529409
0.00053004
0.000529132
0.000522147
0.000512524
0.000488492
0.000470394
0.000354641
0.000533218
0.000743332
0.000533255
0.000351334
0.000464828
0.000483981
0.000508925
0.00051895
0.000525982
0.000526671
0.000525679
0.000518319
0.000508164
0.00048311
0.000464268
0.000350988
0.000532435
0.000746506
0.000531897
0.000347507
0.000458021
0.00047785
0.000503725
0.000514246
0.000521612
0.000522361
0.000521286
0.000513571
0.000502908
0.000476921
0.000457406
0.000347127
0.000531046
0.00074858
0.00052992
0.000343469
0.000450494
0.000470921
0.000497629
0.000508617
0.000516293
0.000517102
0.000515945
0.0005079
0.000496759
0.000469938
0.000449829
0.000343056
0.000529043
0.000749526
0.000527318
0.000339219
0.000442277
0.000463219
0.000490655
0.000502074
0.000510034
0.000510901
0.000509664
0.000501318
0.000489737
0.000462189
0.000441566
0.000338776
0.000526418
0.000749334
0.000524085
0.000334763
0.000433416
0.000454789
0.000482835
0.000494644
0.000502857
0.000503783
0.000502468
0.000493854
0.000481874
0.000453717
0.000432666
0.000334294
0.000523165
0.000747986
0.000520219
0.000330109
0.000423971
0.000445685
0.000474213
0.000486366
0.000494798
0.00049578
0.000494392
0.000485547
0.000473216
0.000444581
0.000423188
0.000329617
0.000519284
0.000745443
0.000515721
0.000325271
0.000414012
0.000435974
0.000464843
0.000477288
0.0004859
0.000486935
0.000485479
0.000476445
0.000463817
0.000434846
0.000413203
0.000324758
0.000514775
0.000741634
0.00051059
0.000320267
0.00040362
0.00042573
0.000454783
0.00046746
0.000476207
0.000477293
0.000475775
0.000466599
0.000453736
0.000424587
0.000402791
0.000319739
0.000509637
0.000736477
0.000504827
0.000315124
0.000392875
0.000415026
0.000444097
0.000456937
0.000465769
0.000466901
0.000465328
0.000456065
0.000443037
0.000413877
0.000392036
0.000314583
0.000503871
0.00072989
0.000498446
0.000309871
0.000381868
0.000403942
0.000432853
0.000445783
0.000454645
0.000455819
0.0004542
0.000444907
0.000431789
0.000402797
0.000381025
0.000309322
0.000497493
0.000721809
0.000491468
0.000304545
0.000370695
0.000392565
0.000421133
0.00043408
0.000442927
0.000444138
0.000442479
0.000433208
0.000420074
0.000391435
0.000369857
0.000303992
0.000490523
0.0007122
0.000483939
0.000299184
0.000359453
0.000381
0.000409044
0.000421939
0.000430724
0.000431968
0.000430278
0.000421077
0.000407998
0.000379894
0.000358628
0.00029863
0.000483006
0.000701053
0.00047592
0.000293821
0.000348232
0.000369352
0.000396715
0.000409483
0.000418155
0.000419426
0.000417714
0.000408636
0.000395692
0.000368277
0.000347425
0.00029327
0.000475003
0.000688365
0.000467474
0.000288488
0.000337111
0.000357712
0.000384271
0.000396836
0.000405345
0.000406633
0.000404912
0.000396012
0.000383276
0.000356675
0.000336328
0.000287945
0.000466577
0.00067416
0.00045864
0.000283215
0.000326162
0.000346165
0.000371823
0.000384125
0.000392428
0.000393725
0.000392006
0.000383328
0.000370863
0.000345171
0.000325409
0.000282681
0.000457764
0.000658492
0.000449453
0.00027803
0.000315455
0.000334788
0.000359469
0.000371459
0.000379523
0.000380821
0.000379114
0.000370694
0.000358549
0.000333841
0.000314734
0.00027751
0.0004486
0.000641468
0.000439968
0.000272962
0.000305054
0.000323654
0.0003473
0.000358937
0.000366734
0.000368026
0.000366341
0.000358206
0.000346424
0.000322758
0.00030437
0.00027246
0.000439141
0.000623309
0.000430245
0.000268044
0.000295022
0.000312831
0.000335397
0.000346641
0.00035415
0.00035543
0.000353774
0.000345948
0.000334568
0.000311989
0.000294377
0.000267562
0.000429447
0.000604401
0.000420351
0.000263303
0.000285416
0.000302382
0.000323824
0.000334641
0.000341842
0.000343102
0.000341485
0.000333988
0.000323045
0.000301597
0.000284813
0.000262844
0.000419584
0.000585204
0.000410352
0.000258771
0.000276293
0.000292368
0.000312649
0.000323008
0.000329882
0.000331117
0.000329546
0.000322395
0.000311922
0.000291641
0.000275735
0.000258338
0.000409618
0.000566156
0.000400311
0.000254477
0.000267705
0.00028285
0.000301946
0.000311817
0.000318348
0.00031955
0.000318033
0.000311248
0.000301273
0.000282182
0.000267194
0.000254074
0.000399612
0.000547592
0.000390287
0.000250453
0.000259704
0.000273887
0.000291782
0.00030114
0.000307315
0.000308478
0.000307021
0.000300615
0.000291163
0.00027328
0.000259241
0.000250081
0.000389624
0.000529554
0.00038033
0.000246729
0.00025234
0.000265536
0.000282219
0.000291045
0.00029685
0.000297969
0.000296579
0.000290563
0.000281656
0.00026499
0.000251928
0.00024639
0.000379705
0.00051181
0.00037049
0.000243334
0.000245681
0.000257854
0.000273318
0.000281591
0.00028702
0.000288088
0.000286772
0.000281155
0.00027281
0.00025737
0.000245323
0.000243031
0.000369904
0.000494271
0.000360819
0.0002403
0.000239809
0.000250914
0.000265132
0.000272837
0.00027788
0.000278892
0.000277655
0.000272444
0.00026468
0.000250495
0.000239508
0.000240034
0.000360271
0.000477026
0.000351368
0.000237657
0.000234783
0.000244811
0.000257719
0.000264827
0.000269475
0.000270425
0.000269273
0.000264479
0.000257324
0.00024446
0.000234538
0.000237428
0.00035086
0.000460149
0.000342195
0.000235433
0.000230629
0.000239619
0.000251175
0.000257627
0.000261851
0.000262733
0.000261672
0.000257325
0.000250841
0.000239333
0.000230439
0.000235244
0.000341728
0.000443704
0.00033336
0.000233658
0.000227363
0.000235367
0.000245602
0.00025135
0.000255108
0.000255911
0.000254955
0.000251098
0.000245328
0.000235144
0.000227226
0.00023351
0.000332936
0.000427748
0.000324924
0.000232363
0.000224998
0.000232077
0.000241043
0.000246082
0.000249357
0.000250072
0.000249231
0.000245877
0.000240828
0.000231912
0.000224913
0.000232255
0.000324543
0.000412328
0.000316945
0.000231576
0.000223541
0.000229761
0.000237515
0.000241847
0.000244644
0.000245267
0.000244543
0.000241687
0.000237354
0.000229651
0.000223504
0.000231509
0.000316608
0.000397487
0.00030948
0.000231326
0.000222992
0.00022843
0.000235028
0.000238657
0.000240982
0.00024151
0.000240904
0.000238539
0.000234918
0.000228371
0.000223001
0.000231301
0.000309185
0.000383264
0.000302583
0.000231645
0.00022335
0.000228088
0.000233588
0.000236523
0.000238381
0.00023881
0.000238326
0.000236445
0.000233525
0.000228077
0.000223404
0.000231661
0.000302333
0.000369734
0.000296315
0.000232562
0.000224611
0.000228735
0.000233197
0.00023545
0.000236849
0.000237179
0.000236815
0.00023541
0.000233179
0.000228768
0.000224707
0.00023262
0.000296108
0.00035704
0.000290733
0.00023411
0.000226768
0.000230367
0.000233856
0.000235442
0.000236391
0.00023662
0.000236377
0.000235437
0.000233879
0.000230441
0.000226903
0.000234208
0.000290571
0.000345309
0.000285901
0.000236318
0.000229813
0.000232977
0.000235558
0.000236498
0.000237008
0.000237138
0.000237013
0.000236525
0.000235619
0.000233088
0.000229983
0.000236456
0.000285783
0.000334602
0.00028188
0.000239218
0.000233735
0.000236553
0.000238296
0.000238614
0.0002387
0.000238731
0.000238722
0.000238671
0.000238391
0.000236698
0.000233939
0.000239395
0.000281807
2.57024e-06
2.03506e-06
1.69492e-06
1.83754e-06
1.8632e-06
1.87945e-06
1.88403e-06
1.88763e-06
1.88697e-06
1.8886e-06
1.8862e-06
1.88216e-06
1.86583e-06
1.84007e-06
1.69673e-06
2.0363e-06
8.08097e-07
6.0453e-07
5.02552e-07
5.56242e-07
5.67446e-07
5.79327e-07
5.83404e-07
5.86413e-07
5.8644e-07
5.86813e-07
5.84224e-07
5.80349e-07
5.68335e-07
5.57135e-07
5.03257e-07
6.04887e-07
2.97684e-06
2.14398e-06
1.79229e-06
2.0142e-06
2.06503e-06
2.12988e-06
2.15312e-06
2.17004e-06
2.17088e-06
2.17177e-06
2.15652e-06
2.1341e-06
2.06842e-06
2.01773e-06
1.79529e-06
2.14517e-06
9.89521e-06
7.18701e-06
6.05198e-06
6.7862e-06
6.95709e-06
7.17864e-06
7.25834e-06
7.31622e-06
7.31929e-06
7.32199e-06
7.2696e-06
7.19263e-06
6.96822e-06
6.79786e-06
6.06208e-06
7.19091e-06
2.39339e-05
1.76012e-05
1.49413e-05
1.66906e-05
1.71019e-05
1.764e-05
1.78339e-05
1.79745e-05
1.79822e-05
1.79883e-05
1.78607e-05
1.76733e-05
1.71282e-05
1.67183e-05
1.49657e-05
1.76105e-05
4.69299e-05
3.49771e-05
2.99607e-05
3.3326e-05
3.41231e-05
3.51782e-05
3.55588e-05
3.58347e-05
3.58501e-05
3.58612e-05
3.56101e-05
3.52419e-05
3.41732e-05
3.33792e-05
3.00082e-05
3.49946e-05
7.94963e-05
6.00806e-05
5.19819e-05
5.75541e-05
5.88786e-05
6.0659e-05
6.13018e-05
6.17682e-05
6.17946e-05
6.18117e-05
6.13858e-05
6.07635e-05
5.89598e-05
5.76413e-05
5.20612e-05
6.01087e-05
0.000120594
9.2502e-05
8.09193e-05
8.91426e-05
9.10959e-05
9.37748e-05
9.4742e-05
9.54454e-05
9.54856e-05
9.55089e-05
9.48639e-05
9.39266e-05
9.12129e-05
8.92697e-05
8.1037e-05
9.25417e-05
0.000167596
0.000130623
0.000115644
0.000126692
0.000129306
0.000132981
0.000134307
0.000135275
0.000135331
0.000135359
0.000134468
0.000133181
0.000129459
0.000126861
0.000115803
0.000130673
0.000217039
0.000172024
0.000154249
0.00016798
0.000171209
0.000175888
0.000177575
0.00017881
0.000178883
0.000178914
0.000177771
0.000176133
0.000171394
0.000168187
0.000154448
0.000172083
0.000265661
0.000214169
0.000194577
0.000210587
0.000214329
0.000219947
0.000221969
0.000223459
0.000223547
0.00022358
0.000222195
0.000220229
0.00021454
0.000210826
0.000194813
0.000214232
0.000311092
0.000254973
0.000234722
0.000252458
0.000256585
0.000263037
0.000265356
0.000267075
0.000267178
0.000267209
0.000265604
0.000263347
0.000256814
0.000252723
0.000234989
0.000255039
0.000352002
0.00029305
0.000273295
0.000292166
0.000296548
0.000303716
0.000306288
0.000308209
0.000308325
0.000308354
0.000306552
0.000304046
0.000296788
0.000292449
0.000273587
0.000293115
0.00038793
0.000327677
0.000309446
0.000328894
0.000333414
0.000341185
0.00034397
0.000346068
0.000346195
0.00034622
0.000344243
0.000341527
0.000333658
0.000329188
0.000309757
0.000327739
0.000419049
0.000358673
0.000342755
0.000362293
0.000366858
0.00037513
0.000378093
0.000380344
0.000380482
0.000380501
0.00037837
0.000375479
0.000367103
0.000362593
0.000343081
0.000358732
0.000445591
0.000386162
0.000373103
0.000392346
0.000396894
0.00040558
0.00040869
0.000411073
0.00041122
0.000411234
0.00040897
0.000405931
0.000397136
0.00039265
0.00037344
0.000386216
0.000467896
0.00041029
0.000400574
0.000419259
0.000423729
0.000432755
0.000435989
0.000438488
0.000438643
0.00043865
0.000436267
0.000433104
0.000423965
0.000419563
0.000400921
0.000410338
0.000486356
0.000431265
0.000425353
0.000443198
0.000447541
0.000456838
0.000460177
0.000462781
0.000462945
0.000462944
0.000460451
0.000457182
0.000447768
0.000443499
0.000425706
0.000431306
0.000501367
0.00044933
0.000447591
0.000464352
0.000468527
0.000478036
0.000481466
0.000484166
0.000484337
0.000484326
0.000481731
0.00047837
0.000468742
0.000464647
0.000447947
0.000449363
0.000513302
0.000464736
0.000467444
0.000482921
0.000486897
0.000496565
0.000500076
0.000502864
0.000503043
0.000503022
0.00050033
0.000496887
0.000487099
0.000483209
0.000467801
0.000464761
0.000522496
0.000477728
0.000485071
0.000499108
0.000502861
0.000512641
0.000516224
0.000519094
0.000519281
0.000519247
0.000516466
0.000512947
0.000503046
0.000499386
0.000485428
0.000477743
0.000529238
0.000488535
0.000500627
0.000513104
0.000516618
0.000526465
0.00053011
0.000533055
0.000533251
0.000533202
0.000530337
0.000526752
0.000516784
0.000513371
0.00050098
0.000488539
0.000533779
0.000497366
0.000514255
0.000525089
0.000528348
0.000538214
0.000541913
0.000544922
0.000545127
0.000545062
0.000542123
0.000538481
0.000528495
0.000525343
0.000514604
0.000497358
0.00053633
0.000504408
0.000526093
0.000535222
0.000538214
0.000548043
0.000551785
0.000554849
0.000555064
0.000554981
0.000551977
0.000548288
0.00053834
0.000535461
0.000526436
0.000504389
0.000537078
0.000509827
0.000536266
0.000543644
0.000546355
0.000556088
0.00055986
0.000562969
0.000563193
0.000563091
0.000560033
0.000556309
0.000546459
0.000543867
0.0005366
0.000509795
0.000536186
0.000513765
0.000544888
0.000550476
0.000552894
0.000562467
0.000566256
0.000569397
0.000569632
0.000569509
0.000566409
0.000562663
0.000552976
0.000550684
0.000545213
0.00051372
0.000533806
0.000516345
0.000552063
0.000555827
0.000557938
0.000567283
0.000571075
0.000574235
0.000574482
0.000574335
0.000571207
0.000567453
0.000557997
0.000556019
0.000552377
0.000516288
0.000530078
0.000517677
0.000557881
0.00055979
0.000561579
0.000570627
0.000574408
0.000577573
0.000577834
0.000577661
0.000574519
0.000570771
0.000561615
0.000559966
0.000558183
0.000517607
0.000525137
0.000517855
0.000562419
0.000562449
0.000563901
0.000572583
0.000576338
0.000579492
0.000579767
0.000579567
0.000576427
0.000572699
0.000563915
0.00056261
0.000562708
0.000517774
0.000519091
0.000516965
0.000565748
0.00056388
0.000564978
0.000573225
0.000576939
0.000580067
0.000580358
0.000580129
0.000577005
0.000573314
0.000564971
0.000564026
0.000566023
0.000516872
0.000512046
0.000515084
0.000567926
0.000564153
0.000564881
0.000572626
0.000576282
0.00057937
0.000579677
0.000579417
0.000576326
0.000572687
0.000564852
0.000564285
0.000568187
0.00051498
0.000504102
0.000512283
0.000569009
0.000563335
0.000563675
0.000570856
0.000574438
0.000577469
0.000577793
0.0005775
0.000574458
0.000570888
0.000563623
0.000563452
0.000569255
0.000512169
0.000495358
0.000508631
0.000569046
0.000561486
0.000561422
0.00056798
0.000571475
0.000574432
0.000574775
0.000574448
0.000571471
0.000567984
0.000561349
0.000561589
0.000569276
0.000508507
0.000485911
0.000504193
0.000568085
0.00055867
0.000558184
0.000564069
0.00056746
0.00057033
0.000570692
0.00057033
0.000567433
0.000564044
0.000558089
0.000558759
0.000568299
0.00050406
0.000475855
0.000499037
0.000566168
0.000554947
0.000554023
0.000559191
0.000562465
0.000565233
0.000565613
0.000565216
0.000562414
0.000559137
0.000553906
0.000555021
0.000566365
0.000498896
0.00046528
0.00049323
0.00056334
0.000550375
0.000548999
0.000553417
0.00055656
0.000559213
0.000559613
0.00055918
0.000556485
0.000553333
0.00054886
0.000550435
0.00056352
0.000493081
0.000454275
0.000486842
0.000559642
0.000545016
0.000543173
0.000546817
0.00054982
0.000552346
0.000552765
0.000552296
0.00054972
0.000546705
0.000543012
0.00054506
0.000559805
0.000486686
0.000442921
0.000479944
0.000555117
0.000538926
0.000536608
0.000539466
0.000542319
0.00054471
0.000545147
0.000544642
0.000542194
0.000539324
0.000536424
0.000538956
0.000555262
0.000479782
0.000431301
0.000472607
0.000549808
0.000532167
0.000529366
0.000531439
0.000534135
0.000536384
0.000536837
0.000536299
0.000533985
0.000531267
0.000529159
0.00053218
0.000549936
0.000472439
0.00041949
0.000464898
0.00054376
0.000524796
0.00052151
0.000522812
0.000525348
0.00052745
0.00052792
0.000527348
0.000525173
0.000522611
0.000521279
0.000524792
0.00054387
0.000464725
0.000407562
0.000456857
0.000537018
0.000516872
0.000513107
0.000513666
0.000516041
0.000517996
0.00051848
0.000517877
0.000515841
0.000513436
0.00051285
0.000516852
0.00053711
0.00045668
0.000395588
0.000448507
0.000529627
0.000508457
0.000504222
0.000504084
0.000506301
0.00050811
0.000508607
0.000507974
0.000506075
0.000503824
0.00050394
0.000508418
0.000529701
0.000448327
0.000383634
0.000439878
0.000521634
0.000499614
0.000494929
0.000494153
0.000496216
0.000497885
0.000498392
0.000497733
0.000495965
0.000493862
0.00049462
0.000499555
0.00052169
0.000439696
0.000371768
0.000431007
0.000513083
0.000490412
0.000485305
0.00048396
0.000485874
0.00048741
0.000487925
0.000487241
0.000485598
0.000483638
0.000484968
0.000490334
0.00051312
0.000430823
0.000360056
0.00042193
0.00050401
0.000480929
0.000475429
0.000473583
0.00047535
0.000476756
0.000477276
0.000476572
0.000475049
0.000473233
0.000475065
0.000480829
0.00050403
0.000421745
0.000348565
0.000412683
0.000494448
0.00047124
0.000465378
0.000463068
0.000464672
0.000465941
0.000466463
0.000465744
0.000464351
0.000462694
0.000464987
0.000471119
0.00049445
0.000412498
0.00033736
0.000403301
0.000484427
0.000461412
0.000455198
0.000452404
0.000453832
0.000454956
0.000455477
0.000454747
0.000453492
0.00045201
0.000454786
0.00046127
0.000484412
0.000403117
0.000326512
0.000393819
0.000473989
0.000451457
0.000444884
0.000441597
0.000442839
0.000443815
0.000444333
0.000443596
0.000442484
0.000441185
0.000444455
0.000451299
0.000473958
0.000393637
0.000316082
0.000384273
0.000463195
0.000441374
0.000434441
0.00043068
0.000431725
0.000432549
0.000433061
0.000432321
0.000431357
0.000430252
0.000433999
0.000441203
0.000463149
0.000384093
0.00030612
0.000374696
0.000452134
0.000431185
0.000423906
0.000419684
0.000420522
0.000421188
0.000421689
0.000420953
0.000420143
0.000419245
0.000423453
0.000431004
0.000452077
0.00037452
0.000296668
0.000365122
0.000440931
0.000420928
0.000413314
0.000408645
0.000409261
0.000409764
0.000410251
0.000409524
0.000408875
0.000408198
0.000412853
0.000420738
0.000440865
0.00036495
0.000287757
0.000355586
0.000429731
0.000410639
0.000402703
0.000397599
0.000397979
0.000398312
0.00039878
0.000398069
0.000397588
0.000397147
0.000402239
0.000410443
0.00042966
0.000355419
0.000279404
0.000346125
0.000418678
0.000400358
0.000392114
0.000386586
0.000386717
0.000386875
0.00038732
0.000386631
0.000386325
0.000386134
0.00039165
0.000400159
0.000418604
0.000345965
0.000271607
0.000336778
0.000407857
0.000390125
0.000381589
0.000375651
0.000375523
0.000375502
0.000375922
0.000375259
0.000375134
0.000375203
0.000381129
0.000389925
0.000407783
0.000336624
0.000264353
0.000327578
0.000397213
0.000379977
0.000371173
0.000364843
0.000364451
0.000364251
0.000364641
0.000364012
0.000364067
0.000364402
0.000370721
0.000379779
0.000397139
0.000327432
0.000257621
0.000318564
0.000386674
0.000369952
0.000360911
0.000354214
0.000353557
0.000353183
0.000353541
0.000352948
0.000353182
0.000353783
0.00036047
0.000369757
0.000386601
0.000318426
0.000251383
0.00030977
0.000376251
0.000360083
0.00035084
0.000343805
0.000342889
0.000342347
0.000342671
0.000342118
0.000342526
0.000343387
0.000350412
0.000359893
0.000376179
0.000309642
0.00024561
0.000301234
0.000365976
0.000350403
0.000340993
0.000333656
0.00033249
0.000331787
0.000332077
0.000331566
0.000332139
0.000333254
0.000340582
0.000350219
0.000365905
0.000301114
0.000240276
0.00029299
0.00035588
0.000340945
0.000331405
0.000323802
0.000322397
0.000321546
0.0003218
0.000321334
0.000322062
0.000323419
0.000331012
0.000340768
0.000355812
0.00029288
0.00023536
0.000285075
0.000345997
0.000331739
0.000322105
0.000314279
0.000312648
0.000311659
0.000311878
0.000311457
0.000312329
0.000313915
0.000321732
0.000331571
0.000345933
0.000284974
0.000230854
0.000277526
0.00033636
0.000322815
0.000313125
0.000305118
0.000303279
0.000302167
0.000302351
0.000301976
0.000302979
0.000304776
0.000312773
0.000322657
0.0003363
0.000277434
0.000226759
0.00027038
0.000327003
0.000314202
0.000304495
0.000296359
0.000294333
0.000293113
0.000293263
0.000292935
0.000294054
0.00029604
0.000304167
0.000314054
0.000326947
0.000270297
0.000223087
0.000263675
0.00031796
0.000305928
0.000296248
0.00028804
0.000285851
0.000284542
0.000284658
0.000284376
0.000285593
0.000287746
0.000295945
0.000305792
0.000317909
0.000263601
0.000219859
0.00025745
0.000309269
0.000298025
0.000288418
0.000280194
0.000277869
0.000276489
0.000276574
0.000276337
0.000277632
0.000279925
0.000288139
0.000297901
0.000309223
0.000257385
0.000217108
0.000251744
0.00030097
0.000290524
0.000281037
0.000272857
0.000270423
0.000268995
0.00026905
0.000268857
0.00027021
0.000272615
0.000280784
0.000290413
0.00030093
0.000251686
0.000214871
0.000246594
0.000293107
0.000283462
0.000274142
0.000266068
0.000263555
0.0002621
0.000262127
0.000261976
0.000263366
0.000265854
0.000273916
0.000283364
0.000293073
0.000246543
0.000213185
0.000242036
0.000285723
0.000276874
0.00026777
0.000259868
0.00025731
0.000255852
0.000255855
0.000255744
0.000257146
0.000259681
0.000267572
0.00027679
0.000285695
0.000241992
0.000212085
0.000238105
0.000278862
0.000270793
0.000261956
0.000254292
0.000251729
0.000250294
0.000250275
0.000250201
0.000251589
0.000254134
0.000261784
0.000270723
0.00027884
0.000238067
0.000211599
0.000234835
0.000272567
0.000265252
0.000256727
0.000249369
0.00024684
0.000245454
0.000245419
0.000245377
0.000246725
0.000249237
0.000256581
0.000265194
0.000272549
0.000234802
0.000211753
0.000232256
0.00026688
0.00026028
0.000252111
0.000245122
0.000242668
0.000241356
0.000241309
0.000241293
0.000242575
0.000245017
0.00025199
0.000260235
0.000266867
0.000232226
0.000212568
0.000230395
0.000261845
0.000255911
0.000248134
0.000241573
0.000239231
0.000238018
0.000237964
0.00023797
0.000239162
0.000241493
0.000248037
0.000255878
0.000261837
0.000230368
0.000214057
0.000229276
0.000257505
0.000252178
0.000244825
0.000238742
0.00023655
0.000235457
0.0002354
0.000235422
0.000236502
0.000238687
0.000244751
0.000252156
0.000257501
0.000229251
0.000216228
0.000228918
0.000253903
0.000249116
0.000242213
0.000236651
0.000234639
0.000233686
0.000233631
0.000233664
0.000234612
0.000236618
0.000242161
0.000249105
0.000253902
0.000228895
0.000219082
0.000229338
0.000251082
0.000246763
0.000240329
0.000235319
0.000233518
0.000232719
0.00023267
0.00023271
0.00023351
0.000235309
0.000240298
0.000246761
0.000251082
0.000229315
0.000222616
0.000230548
0.000249081
0.000245157