-0.0075 	0 	0 	0
-0.0075 	-1.85157e-34 	6.35135e-37 	-7.69694e-33
-0.00745622 	-0.000243352 	8.34759e-07 	-0.0101161
-0.00745622 	-0.000243352 	8.34759e-07 	-0.0101161
-0.00741165 	-0.000359306 	2.7228e-06 	-0.0201823
-0.00741165 	-0.000359306 	2.7228e-06 	-0.0201823
-0.00736628 	-0.000387835 	5.36034e-06 	-0.0303405
-0.00736628 	-0.000387835 	5.36034e-06 	-0.0303405
-0.0073201 	-0.000406819 	8.10415e-06 	-0.0406197
-0.0073201 	-0.000406819 	8.10415e-06 	-0.0406197
-0.00727309 	-0.000433784 	1.21583e-05 	-0.050927
-0.00727309 	-0.000433784 	1.21583e-05 	-0.050927
-0.00722524 	-0.000460072 	1.6989e-05 	-0.0611481
-0.00722524 	-0.000460072 	1.6989e-05 	-0.0611481
-0.00717653 	-0.000482262 	2.28022e-05 	-0.0711866
-0.00717653 	-0.000482262 	2.28022e-05 	-0.0711866
-0.00712695 	-0.000498958 	2.96387e-05 	-0.0809558
-0.00712695 	-0.000498958 	2.96387e-05 	-0.0809558
-0.00707647 	-0.000509836 	3.75832e-05 	-0.0903806
-0.00707647 	-0.000509836 	3.75832e-05 	-0.0903806
-0.0070251 	-0.000515325 	4.65618e-05 	-0.0994028
-0.0070251 	-0.000515325 	4.65618e-05 	-0.0994028
-0.0069728 	-0.000516008 	5.63223e-05 	-0.107991
-0.0069728 	-0.000516008 	5.63223e-05 	-0.107991
-0.00691956 	-0.000512269 	6.69768e-05 	-0.116146
-0.00691956 	-0.000512269 	6.69768e-05 	-0.116146
-0.00686537 	-0.000504436 	7.872e-05 	-0.123887
-0.00686537 	-0.000504436 	7.872e-05 	-0.123887
-0.00681021 	-0.000492879 	9.15387e-05 	-0.131239
-0.00681021 	-0.000492879 	9.15387e-05 	-0.131239
-0.00675406 	-0.000478101 	0.000105345 	-0.138226
-0.00675406 	-0.000478101 	0.000105345 	-0.138226
-0.0066969 	-0.000460795 	0.000120067 	-0.14487
-0.0066969 	-0.000460795 	0.000120067 	-0.14487
-0.00663871 	-0.000441758 	0.000135731 	-0.151189
-0.00663871 	-0.000441758 	0.000135731 	-0.151189
-0.00657949 	-0.000421758 	0.000152325 	-0.157203
-0.00657949 	-0.000421758 	0.000152325 	-0.157203
-0.0065192 	-0.000401464 	0.000169793 	-0.162927
-0.0065192 	-0.000401464 	0.000169793 	-0.162927
-0.00645783 	-0.000381447 	0.000188088 	-0.168379
-0.00645783 	-0.000381447 	0.000188088 	-0.168379
-0.00639535 	-0.000362198 	0.000207143 	-0.173572
-0.00639535 	-0.000362198 	0.000207143 	-0.173572
-0.00633176 	-0.000344124 	0.000226909 	-0.178522
-0.00633176 	-0.000344124 	0.000226909 	-0.178522
-0.00626703 	-0.000327566 	0.000247356 	-0.183241
-0.00626703 	-0.000327566 	0.000247356 	-0.183241
-0.00620114 	-0.000312808 	0.000268413 	-0.187742
-0.00620114 	-0.000312808 	0.000268413 	-0.187742
-0.00613406 	-0.000300068 	0.000289962 	-0.192036
-0.00613406 	-0.000300068 	0.000289962 	-0.192036
-0.00606579 	-0.000289471 	0.000311948 	-0.196135
-0.00606579 	-0.000289471 	0.000311948 	-0.196135
-0.00599629 	-0.00028102 	0.000334458 	-0.200051
-0.00599629 	-0.00028102 	0.000334458 	-0.200051
-0.00592554 	-0.000274604 	0.000357587 	-0.203795
-0.00592554 	-0.000274604 	0.000357587 	-0.203795
-0.00585352 	-0.000270045 	0.000381255 	-0.207375
-0.00585352 	-0.000270045 	0.000381255 	-0.207375
-0.00578022 	-0.000267134 	0.00040524 	-0.210797
-0.00578022 	-0.000267134 	0.00040524 	-0.210797
-0.00570559 	-0.000265657 	0.00042924 	-0.214064
-0.00570559 	-0.000265657 	0.00042924 	-0.214064
-0.00562963 	-0.000265468 	0.000453204 	-0.217183
-0.00562963 	-0.000265468 	0.000453204 	-0.217183
-0.00555231 	-0.000266656 	0.000477516 	-0.220165
-0.00555231 	-0.000266656 	0.000477516 	-0.220165
-0.0054736 	-0.000269621 	0.000502215 	-0.223031
-0.0054736 	-0.000269621 	0.000502215 	-0.223031
-0.00539348 	-0.000275243 	0.000527861 	-0.225813
-0.00539348 	-0.000275243 	0.000527861 	-0.225813
-0.00531193 	-0.00028612 	0.000555179 	-0.228541
-0.00531193 	-0.00028612 	0.000555179 	-0.228541
-0.00522891 	-0.000307129 	0.000582064 	-0.23125
-0.00522891 	-0.000307129 	0.000582064 	-0.23125
-0.0051444 	-0.000343814 	0.000604484 	-0.233969
-0.0051444 	-0.000343814 	0.000604484 	-0.233969
-0.00505838 	-0.00039957 	0.000620829 	-0.236715
-0.00505838 	-0.00039957 	0.000620829 	-0.236715
-0.00497081 	-0.000470519 	0.000635647 	-0.239452
-0.00497081 	-0.000470519 	0.000635647 	-0.239452
-0.00488168 	-0.000543718 	0.000657432 	-0.242097
-0.00488168 	-0.000543718 	0.000657432 	-0.242097
-0.00479094 	-0.000606291 	0.000688749 	-0.244565
-0.00479094 	-0.000606291 	0.000688749 	-0.244565
-0.00469858 	-0.000655501 	0.000721062 	-0.246842
-0.00469858 	-0.000655501 	0.000721062 	-0.246842
-0.00460456 	-0.000697559 	0.000745007 	-0.248978
-0.00460456 	-0.000697559 	0.000745007 	-0.248978
-0.00450886 	-0.000739881 	0.000761012 	-0.251032
-0.00450886 	-0.000739881 	0.000761012 	-0.251032
-0.00441144 	-0.000785024 	0.000776123 	-0.253034
-0.00441144 	-0.000785024 	0.000776123 	-0.253034
-0.00431227 	-0.000831098 	0.000794166 	-0.254987
-0.00431227 	-0.000831098 	0.000794166 	-0.254987
-0.00421133 	-0.000875781 	0.000813041 	-0.256892
-0.00421133 	-0.000875781 	0.000813041 	-0.256892
-0.00410857 	-0.000917627 	0.000830821 	-0.258765
-0.00410857 	-0.000917627 	0.000830821 	-0.258765
-0.00400397 	-0.000956474 	0.00084753 	-0.260648
-0.00400397 	-0.000956474 	0.00084753 	-0.260648
-0.0038975 	-0.000994823 	0.000863145 	-0.262594
-0.0038975 	-0.000994823 	0.000863145 	-0.262594
-0.00378912 	-0.00103717 	0.000877468 	-0.264605
-0.00378912 	-0.00103717 	0.000877468 	-0.264605
-0.00367879 	-0.00108563 	0.00089014 	-0.266589
-0.00367879 	-0.00108563 	0.00089014 	-0.266589
-0.00356649 	-0.00113705 	0.000900607 	-0.268424
-0.00356649 	-0.00113705 	0.000900607 	-0.268424
-0.00345217 	-0.00118584 	0.000908903 	-0.270067
-0.00345217 	-0.00118584 	0.000908903 	-0.270067
-0.0033358 	-0.00122838 	0.000915551 	-0.271558
-0.0033358 	-0.00122838 	0.000915551 	-0.271558
-0.00321735 	-0.00126418 	0.000920653 	-0.272938
-0.00321735 	-0.00126418 	0.000920653 	-0.272938
-0.00309677 	-0.00129315 	0.000924018 	-0.274227
-0.00309677 	-0.00129315 	0.000924018 	-0.274227
-0.00297403 	-0.00131471 	0.000925483 	-0.275451
-0.00297403 	-0.00131471 	0.000925483 	-0.275451
-0.00284909 	-0.00133171 	0.000924885 	-0.276684
-0.00284909 	-0.00133171 	0.000924885 	-0.276684
-0.0027219 	-0.00135266 	0.000922113 	-0.278015
-0.0027219 	-0.00135266 	0.000922113 	-0.278015
-0.00259244 	-0.00138202 	0.000916689 	-0.279405
-0.00259244 	-0.00138202 	0.000916689 	-0.279405
-0.00246065 	-0.00141092 	0.000907816 	-0.280662
-0.00246065 	-0.00141092 	0.000907816 	-0.280662
-0.00232651 	-0.00142746 	0.000895618 	-0.281681
-0.00232651 	-0.00142746 	0.000895618 	-0.281681
-0.00218995 	-0.00142751 	0.000880722 	-0.282509
-0.00218995 	-0.00142751 	0.000880722 	-0.282509
-0.00205095 	-0.00141309 	0.000863283 	-0.283216
-0.00205095 	-0.00141309 	0.000863283 	-0.283216
-0.00190946 	-0.00138698 	0.000843355 	-0.283833
-0.00190946 	-0.00138698 	0.000843355 	-0.283833
-0.00176543 	-0.00134936 	0.000821063 	-0.284373
-0.00176543 	-0.00134936 	0.000821063 	-0.284373
-0.00161881 	-0.00130161 	0.000796551 	-0.284876
-0.00161881 	-0.00130161 	0.000796551 	-0.284876
-0.00146957 	-0.00125293 	0.000769425 	-0.285449
-0.00146957 	-0.00125293 	0.000769425 	-0.285449
-0.00131765 	-0.00121763 	0.000738651 	-0.286206
-0.00131765 	-0.00121763 	0.000738651 	-0.286206
-0.001163 	-0.00119357 	0.000703099 	-0.287074
-0.001163 	-0.00119357 	0.000703099 	-0.287074
-0.00100559 	-0.00115717 	0.000662239 	-0.287804
-0.00100559 	-0.00115717 	0.000662239 	-0.287804
-0.000845345 	-0.00109106 	0.000615499 	-0.288266
-0.000845345 	-0.00109106 	0.000615499 	-0.288266
-0.000682232 	-0.000993945 	0.000565038 	-0.288516
-0.000682232 	-0.000993945 	0.000565038 	-0.288516
-0.000516194 	-0.000869555 	0.000512701 	-0.288621
-0.000516194 	-0.000869555 	0.000512701 	-0.288621
-0.000347178 	-0.000720944 	0.000457597 	-0.288604
-0.000347178 	-0.000720944 	0.000457597 	-0.288604
-0.000175132 	-0.000549729 	0.000404358 	-0.288442
-0.000175132 	-0.000549729 	0.000404358 	-0.288442
0 	-0.00036044 	0.000350342 	-0.2881
0 	-0.00036044 	0.000350342 	-0.2881
0 	-0.00036044 	0.000350342 	-0.2881
0 	-0.00036044 	0.000350342 	-0.2881
0.000175132 	-0.000160399 	0.000292691 	-0.287557
0.000175132 	-0.011006 	0.00973493 	-0.310351
0.000347178 	4.63619e-05 	0.000234025 	-0.286821
0.000347178 	-0.010182 	0.00971773 	-0.308606
0.000516194 	0.00025761 	0.000163626 	-0.285913
0.000516194 	-0.00930324 	0.00964808 	-0.306869
0.000682232 	0.000471064 	9.14845e-05 	-0.284854
0.000682232 	-0.00837528 	0.00955687 	-0.305142
0.000845345 	0.000686573 	5.81002e-05 	-0.283651
0.000845345 	-0.00740971 	0.00946198 	-0.303413
0.00100559 	0.000901576 	5.74301e-05 	-0.282268
0.00100559 	-0.00641386 	0.00936148 	-0.301671
0.001163 	0.00110774 	1.41064e-05 	-0.280688
0.001163 	-0.00538553 	0.00925722 	-0.299907
0.00131765 	0.00130376 	-7.77195e-05 	-0.279008
0.00131765 	-0.00432023 	0.00915094 	-0.298117
0.00146957 	0.00149823 	-0.000143266 	-0.277332
0.00146957 	-0.00322121 	0.00904305 	-0.2963
0.00161881 	0.00169361 	-0.000165275 	-0.275662
0.00161881 	-0.00209865 	0.00893308 	-0.29446
0.00176543 	0.00188453 	-0.000183278 	-0.273967
0.00176543 	-0.000961607 	0.00882091 	-0.292602
0.00190946 	0.00206759 	-0.000215207 	-0.272233
0.00190946 	0.000186614 	0.00870711 	-0.290731
0.00205095 	0.00224255 	-0.000245433 	-0.270458
0.00205095 	0.00134562 	0.00859202 	-0.28885
0.00218995 	0.00240917 	-0.000269242 	-0.268645
0.00218995 	0.00251341 	0.00847554 	-0.286963
0.00232651 	0.00256673 	-0.000290004 	-0.266793
0.00232651 	0.00368591 	0.00835749 	-0.285069
0.00246065 	0.00271422 	-0.000310628 	-0.264905
0.00246065 	0.00485824 	0.00823793 	-0.283168
0.00259244 	0.00285134 	-0.000342201 	-0.262979
0.00259244 	0.00602471 	0.00811703 	-0.281258
0.0027219 	0.00297967 	-0.000376737 	-0.261013
0.0027219 	0.00717672 	0.00799483 	-0.279339
0.00284909 	0.00309989 	-0.000381802 	-0.258989
0.00284909 	0.00830286 	0.00787096 	-0.277407
0.00297403 	0.00320542 	-0.000349888 	-0.256859
0.00297403 	0.00939472 	0.00774487 	-0.27546
0.00309677 	0.00328472 	-0.000328845 	-0.254592
0.00309677 	0.0104524 	0.00761634 	-0.273493
0.00321735 	0.00333744 	-0.000359939 	-0.252243
0.00321735 	0.0114825 	0.00748641 	-0.271505
0.0033358 	0.00337981 	-0.000408814 	-0.24992
0.0033358 	0.0124898 	0.00735768 	-0.269492
0.00345217 	0.00342741 	-0.000425789 	-0.247683
0.00345217 	0.0134717 	0.00723162 	-0.26745
0.00356649 	0.00348245 	-0.0004134 	-0.245518
0.00356649 	0.0144209 	0.00710761 	-0.265378
0.00367879 	0.00353775 	-0.000401901 	-0.243388
0.00367879 	0.015332 	0.0069839 	-0.263275
0.00378912 	0.0162044 	0.00685942 	-0.261139
0.00378912 	0.00358657 	-0.00040322 	-0.241265
0.0038975 	0.00362727 	-0.000405061 	-0.239131
0.0038975 	0.0170402 	0.00673179 	-0.25897
0.00400397 	0.00366038 	-0.000403351 	-0.236982
0.00400397 	0.0178404 	0.00660575 	-0.256767
0.00410857 	0.00368632 	-0.000401965 	-0.234819
0.00410857 	0.0186076 	0.00649692 	-0.254527
0.00421133 	0.00370599 	-0.000400405 	-0.232642
0.00421133 	0.0193523 	0.00639515 	-0.252245
0.00431227 	0.00372085 	-0.000398289 	-0.230452
0.00431227 	0.0200855 	0.00626465 	-0.249921
0.00441144 	0.00373216 	-0.000395705 	-0.228247
0.00441144 	0.0208015 	0.00609443 	-0.247587
0.00450886 	0.00374008 	-0.000392963 	-0.226025
0.00450886 	0.0214748 	0.00591911 	-0.245288
0.00460456 	0.00374365 	-0.000389518 	-0.223784
0.00460456 	0.0220836 	0.00579476 	-0.243013
0.00469858 	0.00374177 	-0.000384675 	-0.221518
0.00469858 	0.0226365 	0.00571715 	-0.240693
0.00479094 	0.00373434 	-0.000379336 	-0.21922
0.00479094 	0.0231634 	0.00562436 	-0.238276
0.00488168 	0.00372226 	-0.00037419 	-0.216885
0.00488168 	0.0236863 	0.00549678 	-0.235767
0.00497081 	0.00370653 	-0.000369277 	-0.214507
0.00497081 	0.0242085 	0.00535321 	-0.233211
0.00505838 	0.00368746 	-0.000364126 	-0.212081
0.00505838 	0.0247196 	0.00521541 	-0.230647
0.0051444 	0.00366475 	-0.000357992 	-0.209601
0.0051444 	0.0252068 	0.00509122 	-0.228084
0.00522891 	0.00363813 	-0.00035154 	-0.207061
0.00522891 	0.0256623 	0.00496661 	-0.225488
0.00531193 	0.0260819 	0.00483757 	-0.222812
0.00531193 	0.00360747 	-0.000345337 	-0.204456
0.00539348 	0.00357261 	-0.000339159 	-0.201779
0.00539348 	0.026462 	0.00470764 	-0.220023
0.0054736 	0.00353335 	-0.00033281 	-0.199021
0.0054736 	0.0268002 	0.00457685 	-0.217118
0.00555231 	0.00348943 	-0.000326289 	-0.196173
0.00555231 	0.0270947 	0.00444548 	-0.214116
0.00562963 	0.00344066 	-0.000319677 	-0.193225
0.00562963 	0.0273435 	0.00431287 	-0.211037
0.00570559 	0.00338693 	-0.000312752 	-0.190163
0.00570559 	0.0275445 	0.00417887 	-0.207893
0.00578022 	0.00332795 	-0.000305321 	-0.186975
0.00578022 	0.0276951 	0.0040434 	-0.204677
0.00585352 	0.0032631 	-0.000297243 	-0.183642
0.00585352 	0.0277923 	0.00390646 	-0.20137
0.00592554 	0.00319142 	-0.000288585 	-0.180145
0.00592554 	0.027833 	0.0037685 	-0.197946
0.00599629 	0.00311175 	-0.000279469 	-0.176462
0.00599629 	0.027814 	0.00363016 	-0.194381
0.00606579 	0.0277322 	0.00349124 	-0.190655
0.00606579 	0.00302317 	-0.00026973 	-0.172572
0.00613406 	0.00292509 	-0.000259341 	-0.16846
0.00613406 	0.0275846 	0.003351 	-0.186748
0.00620114 	0.00281716 	-0.000248246 	-0.16411
0.00620114 	0.0273674 	0.00320932 	-0.182636
0.00626703 	0.00269927 	-0.000236368 	-0.159511
0.00626703 	0.0270762 	0.00306682 	-0.178291
0.00633176 	0.00257199 	-0.000223831 	-0.154646
0.00633176 	0.0267062 	0.00292436 	-0.173682
0.00639535 	0.00243701 	-0.000210603 	-0.149501
0.00639535 	0.0262527 	0.00278202 	-0.168777
0.00645783 	0.00229676 	-0.000196429 	-0.144058
0.00645783 	0.0257109 	0.00263896 	-0.163544
0.0065192 	0.0021536 	-0.000181056 	-0.1383
0.0065192 	0.025076 	0.00249523 	-0.157948
0.00657949 	0.00200925 	-0.00016462 	-0.132211
0.00657949 	0.0243429 	0.00235174 	-0.151957
0.00663871 	0.00186464 	-0.000147731 	-0.125778
0.00663871 	0.023508 	0.00220769 	-0.145539
0.0066969 	0.00172011 	-0.00013097 	-0.118992
0.0066969 	0.0225672 	0.00206044 	-0.138654
0.00675406 	0.00157529 	-0.000114648 	-0.111838
0.00675406 	0.0215143 	0.00190847 	-0.131257
0.00681021 	0.00142899 	-9.88322e-05 	-0.104311
0.00681021 	0.0203413 	0.00175282 	-0.123305
0.00686537 	0.00127942 	-8.35239e-05 	-0.0964385
0.00686537 	0.019041 	0.00159607 	-0.114796
0.00691956 	0.00112498 	-6.89955e-05 	-0.0882839
0.00691956 	0.0176109 	0.00143959 	-0.105781
0.0069728 	0.000964938 	-5.56585e-05 	-0.0799408
0.0069728 	0.016056 	0.00128449 	-0.0963474
0.0070251 	0.000800118 	-4.36963e-05 	-0.0715261
0.0070251 	0.0143913 	0.00113303 	-0.0866205
0.00707647 	0.000633372 	-3.31425e-05 	-0.0631645
0.00707647 	0.0126449 	0.000987155 	-0.076755
0.00712695 	0.000469714 	-2.40382e-05 	-0.0549684
0.00712695 	0.0108559 	0.000848299 	-0.0669138
0.00717653 	0.000316061 	-1.64392e-05 	-0.047022
0.00717653 	0.0090709 	0.000717518 	-0.0572416
0.00722524 	0.000181299 	-1.04418e-05 	-0.0393755
0.00722524 	0.00734024 	0.00059249 	-0.0478473
0.00727309 	7.78149e-05 	-5.9431e-06 	-0.0320517
0.00727309 	0.00572013 	0.0004758 	-0.0388065
0.0073201 	2.5616e-05 	-2.63873e-06 	-0.0250594
0.0073201 	0.00428381 	0.000380188 	-0.0301805
0.00736628 	6.013e-05 	-1.21131e-06 	-0.0184096
0.00736628 	0.00314443 	0.000234676 	-0.0220492
0.00741165 	0.0001601 	-1.55134e-07 	-0.0120835
0.00741165 	0.00228355 	0.000156498 	-0.0144444
0.00745622 	0.000179459 	5.1597e-07 	-0.00598648
0.00745622 	0.00135295 	8.01295e-05 	-0.00718662
0.0075 	0 	0 	0
0.0075 	0 	0 	0
