0 	0 	0 	0
0 	0 	0 	0
0.00752508 	-0.000331789 	0.000342085 	-0.288023
0.00752508 	-0.000331789 	0.000342085 	-0.288023
0.00757525 	-0.000274486 	0.00032557 	-0.287867
0.00762542 	-0.000217184 	0.000309056 	-0.287712
0.00762542 	-0.000217184 	0.000309056 	-0.287712
0.00767559 	-0.000159854 	0.000292536 	-0.287555
0.00772575 	-9.95642e-05 	0.00027543 	-0.287341
0.00777592 	-3.92745e-05 	0.000258323 	-0.287126
0.00782609 	2.10151e-05 	0.000241217 	-0.286911
0.00782609 	2.10151e-05 	0.000241217 	-0.286911
0.00787625 	8.27034e-05 	0.000221914 	-0.286665
0.00792642 	0.000145406 	0.000201018 	-0.286395
0.00797659 	0.000208109 	0.000180122 	-0.286125
0.00802676 	0.000271188 	0.000159037 	-0.285845
0.00802676 	0.000271188 	0.000159037 	-0.285845
0.00807692 	0.000335682 	0.00013724 	-0.285525
0.00812709 	0.000400175 	0.000115443 	-0.285205
0.00812709 	0.000400175 	0.000115443 	-0.285205
0.00817726 	0.000464668 	9.36459e-05 	-0.284885
0.00822742 	0.000530773 	8.2235e-05 	-0.28452
0.00822742 	0.000530773 	8.2235e-05 	-0.28452
0.00827759 	0.000597055 	7.19673e-05 	-0.28415
0.00832776 	0.000663337 	6.16996e-05 	-0.28378
0.00832776 	0.000663337 	6.16996e-05 	-0.28378
0.00837793 	0.000730289 	5.7964e-05 	-0.28337
0.00842809 	0.000797601 	5.77542e-05 	-0.282937
0.00842809 	0.000797601 	5.77542e-05 	-0.282937
0.00847826 	0.000864913 	5.75444e-05 	-0.282504
0.00847826 	0.000864913 	5.75444e-05 	-0.282504
0.00852843 	0.000931493 	5.11434e-05 	-0.282039
0.00852843 	0.000931493 	5.11434e-05 	-0.282039
0.0085786 	0.000997195 	3.73366e-05 	-0.281535
0.0085786 	0.000997195 	3.73366e-05 	-0.281535
0.00862876 	0.0010629 	2.35298e-05 	-0.281032
0.00867893 	0.00112793 	4.64906e-06 	-0.280515
0.00867893 	0.00112793 	4.64906e-06 	-0.280515
0.0087291 	0.00119152 	-2.51396e-05 	-0.27997
0.00877926 	0.00125511 	-5.49283e-05 	-0.279425
0.00877926 	0.00125511 	-5.49283e-05 	-0.279425
0.00882943 	0.00131885 	-8.2804e-05 	-0.278878
0.0088796 	0.00138306 	-0.000104449 	-0.278325
0.0088796 	0.00138306 	-0.000104449 	-0.278325
0.00897993 	0.0015118 	-0.000144795 	-0.277216
0.00897993 	0.0015118 	-0.000144795 	-0.277216
0.0090301 	0.00157748 	-0.000152193 	-0.276655
0.00908027 	0.00164315 	-0.000159591 	-0.276093
0.00908027 	0.00164315 	-0.000159591 	-0.276093
0.00913043 	0.00170875 	-0.000166702 	-0.275527
0.0091806 	0.00177408 	-0.000172862 	-0.274947
0.0091806 	0.00177408 	-0.000172862 	-0.274947
0.00923077 	0.0018394 	-0.000179022 	-0.274368
0.00928094 	0.00190425 	-0.000186717 	-0.27378
0.00928094 	0.00190425 	-0.000186717 	-0.27378
0.0093311 	0.00196801 	-0.000197838 	-0.273176
0.00938127 	0.00203177 	-0.000208959 	-0.272572
0.00938127 	0.00203177 	-0.000208959 	-0.272572
0.00943144 	0.00209477 	-0.000219902 	-0.271957
0.00943144 	0.00209477 	-0.000219902 	-0.271957
0.00948161 	0.0021568 	-0.000230619 	-0.271328
0.00948161 	0.0021568 	-0.000230619 	-0.271328
0.00953177 	0.00221883 	-0.000241336 	-0.270699
0.00953177 	0.00221883 	-0.000241336 	-0.270699
0.00958194 	0.0022797 	-0.000250741 	-0.270054
0.00958194 	0.0022797 	-0.000250741 	-0.270054
0.00963211 	0.00233983 	-0.000259334 	-0.269399
0.00963211 	0.00233983 	-0.000259334 	-0.269399
0.00968227 	0.00239997 	-0.000267927 	-0.268745
0.00968227 	0.00239997 	-0.000267927 	-0.268745
0.00973244 	0.0024582 	-0.000275702 	-0.268069
0.00978261 	0.00251608 	-0.000283329 	-0.267389
0.00983278 	0.00257362 	-0.000290968 	-0.266705
0.00988294 	0.00262878 	-0.00029868 	-0.265999
0.00988294 	0.00262878 	-0.00029868 	-0.265999
0.00993311 	0.00268394 	-0.000306393 	-0.265292
0.00998328 	0.00273776 	-0.000316048 	-0.264574
0.00998328 	0.00273776 	-0.000316048 	-0.264574
0.0100334 	0.00278996 	-0.000328067 	-0.263841
0.0100334 	0.00278996 	-0.000328067 	-0.263841
0.0100836 	0.00284215 	-0.000340086 	-0.263108
0.0101338 	0.00289232 	-0.000353229 	-0.262351
0.0101338 	0.00289232 	-0.000353229 	-0.262351
0.0102341 	0.00299122 	-0.000377223 	-0.260819
0.0102341 	0.00299122 	-0.000377223 	-0.260819
0.0102843 	0.00303864 	-0.000379221 	-0.26002
0.0103344 	0.00308606 	-0.000381219 	-0.259222
0.0103344 	0.00308606 	-0.000381219 	-0.259222
0.0103846 	0.0031299 	-0.000372726 	-0.258383
0.0103846 	0.0031299 	-0.000372726 	-0.258383
0.0104348 	0.00317227 	-0.000359912 	-0.257528
0.0104849 	0.00321247 	-0.000348015 	-0.256657
0.0104849 	0.00321247 	-0.000348015 	-0.256657
0.0105351 	0.00324489 	-0.000339414 	-0.255731
0.0105853 	0.0032773 	-0.000330814 	-0.254804
0.0105853 	0.0032773 	-0.000330814 	-0.254804
0.0106355 	0.00330163 	-0.00033882 	-0.253839
0.0106856 	0.00332356 	-0.000351757 	-0.252861
0.0106856 	0.00332356 	-0.000351757 	-0.252861
0.0107358 	0.00334403 	-0.000367547 	-0.251882
0.0107358 	0.00334403 	-0.000367547 	-0.251882
0.010786 	0.00336198 	-0.000388246 	-0.250898
0.010786 	0.00336198 	-0.000388246 	-0.250898
0.0108361 	0.00337994 	-0.00040886 	-0.249914
0.0108361 	0.00337994 	-0.00040886 	-0.249914
0.0108863 	0.00340046 	-0.000416178 	-0.24895
0.0109365 	0.00342098 	-0.000423497 	-0.247985
0.0109365 	0.00342098 	-0.000423497 	-0.247985
0.0109866 	0.003444 	-0.000422055 	-0.24703
0.0109866 	0.003444 	-0.000422055 	-0.24703
0.0110368 	0.00346815 	-0.000416618 	-0.24608
0.011087 	0.00349253 	-0.000411304 	-0.24513
0.011087 	0.00349253 	-0.000411304 	-0.24513
0.0111371 	0.00351723 	-0.000406167 	-0.244179
0.0111873 	0.00354151 	-0.000402002 	-0.243225
0.0111873 	0.00354151 	-0.000402002 	-0.243225
0.0112375 	0.00356371 	-0.000402602 	-0.242259
0.0112876 	0.00358591 	-0.000403202 	-0.241294
0.0112876 	0.00358591 	-0.000403202 	-0.241294
0.0113378 	0.00360485 	-0.000404047 	-0.240306
0.011388 	0.00362369 	-0.000404899 	-0.239319
0.011388 	0.00362369 	-0.000404899 	-0.239319
0.0114883 	0.0036555 	-0.000403603 	-0.237299
0.0114883 	0.0036555 	-0.000403603 	-0.237299
0.0115385 	0.00366893 	-0.000402894 	-0.236269
0.0115886 	0.00368137 	-0.000402229 	-0.235232
0.0115886 	0.00368137 	-0.000402229 	-0.235232
0.0116388 	0.0036921 	-0.000401506 	-0.234179
0.011689 	0.00370171 	-0.000400744 	-0.233116
0.011689 	0.00370171 	-0.000400744 	-0.233116
0.0117391 	0.00371008 	-0.000399822 	-0.232039
0.0117893 	0.00371747 	-0.00039877 	-0.23095
0.0117893 	0.00371747 	-0.00039877 	-0.23095
0.0118395 	0.00372395 	-0.00039758 	-0.229847
0.0118896 	0.00372967 	-0.000396273 	-0.228731
0.0118896 	0.00372967 	-0.000396273 	-0.228731
0.0119398 	0.00373447 	-0.000394907 	-0.2276
0.0119398 	0.00373447 	-0.000394907 	-0.2276
0.01199 	0.00373855 	-0.000393495 	-0.226456
0.01199 	0.00373855 	-0.000393495 	-0.226456
0.0120401 	0.00374125 	-0.000391837 	-0.225293
0.0120401 	0.00374125 	-0.000391837 	-0.225293
0.0120903 	0.00374312 	-0.000390031 	-0.224118
0.0120903 	0.00374312 	-0.000390031 	-0.224118
0.0121405 	0.00374294 	-0.000387668 	-0.222919
0.0121405 	0.00374294 	-0.000387668 	-0.222919
0.0121906 	0.00374193 	-0.000385084 	-0.221709
0.0121906 	0.00374193 	-0.000385084 	-0.221709
0.0122408 	0.00373838 	-0.000382234 	-0.220467
0.0122408 	0.00373838 	-0.000382234 	-0.220467
0.012291 	0.00373434 	-0.000379334 	-0.219219
0.012291 	0.00373434 	-0.000379334 	-0.219219
0.0123411 	0.00372766 	-0.000376489 	-0.217928
0.0123411 	0.00372766 	-0.000376489 	-0.217928
0.0123913 	0.00372057 	-0.00037366 	-0.216628
0.0123913 	0.00372057 	-0.00037366 	-0.216628
0.0124415 	0.00371171 	-0.000370894 	-0.21529
0.0124916 	0.003702 	-0.000368052 	-0.21393
0.0124916 	0.003702 	-0.000368052 	-0.21393
0.012592 	0.00367859 	-0.00036173 	-0.211112
0.012592 	0.00367859 	-0.00036173 	-0.211112
0.0126421 	0.00366535 	-0.000358153 	-0.209666
0.0126923 	0.00364966 	-0.000354334 	-0.208161
0.0126923 	0.00364966 	-0.000354334 	-0.208161
0.0127425 	0.00363312 	-0.000350526 	-0.206635
0.0127425 	0.00363312 	-0.000350526 	-0.206635
0.0127926 	0.00361459 	-0.000346778 	-0.205061
0.0128428 	0.00359427 	-0.000342997 	-0.203442
0.0128428 	0.00359427 	-0.000342997 	-0.203442
0.012893 	0.00357283 	-0.000339198 	-0.201795
0.0129431 	0.00354827 	-0.000335224 	-0.200069
0.0129431 	0.00354827 	-0.000335224 	-0.200069
0.0129933 	0.00352235 	-0.000331177 	-0.198308
0.0130435 	0.00349436 	-0.000327021 	-0.196493
0.0130435 	0.00349436 	-0.000327021 	-0.196493
0.0130936 	0.00346336 	-0.000322754 	-0.194597
0.0131438 	0.00343063 	-0.000318385 	-0.192653
0.0131438 	0.00343063 	-0.000318385 	-0.192653
0.013194 	0.00339515 	-0.000313811 	-0.190632
0.0132441 	0.00335646 	-0.000308913 	-0.188516
0.0132441 	0.00335646 	-0.000308913 	-0.188516
0.0132943 	0.00331548 	-0.000303767 	-0.186334
0.0133445 	0.0032711 	-0.000298239 	-0.184053
0.0133445 	0.0032711 	-0.000298239 	-0.184053
0.0133946 	0.00322217 	-0.000292299 	-0.181645
0.0134448 	0.00316971 	-0.000286101 	-0.179142
0.0134448 	0.00316971 	-0.000286101 	-0.179142
0.013495 	0.00311321 	-0.000279637 	-0.17653
0.0135452 	0.00304947 	-0.000272622 	-0.173727
0.0135452 	0.00304947 	-0.000272622 	-0.173727
0.0136455 	0.00290671 	-0.000257452 	-0.167719
0.0136455 	0.00290671 	-0.000257452 	-0.167719
0.0136957 	0.00282599 	-0.000249153 	-0.164466
0.0137458 	0.00273722 	-0.000240192 	-0.160992
0.0137458 	0.00273722 	-0.000240192 	-0.160992
0.013796 	0.00264234 	-0.00023076 	-0.157335
0.0138462 	0.00254145 	-0.000220837 	-0.153482
0.0138462 	0.00254145 	-0.000220837 	-0.153482
0.0138963 	0.00243484 	-0.000210383 	-0.149416
0.0138963 	0.00243484 	-0.000210383 	-0.149416
0.0139465 	0.00232221 	-0.000199001 	-0.145045
0.0139967 	0.00220618 	-0.000186702 	-0.140414
0.0139967 	0.00220618 	-0.000186702 	-0.140414
0.0140468 	0.00208745 	-0.000173525 	-0.13551
0.0140468 	0.00208745 	-0.000173525 	-0.13551
0.014097 	0.00196651 	-0.000159629 	-0.13031
0.0141472 	0.00184366 	-0.000145298 	-0.124793
0.0141973 	0.00171902 	-0.000130848 	-0.118938
0.0141973 	0.00171902 	-0.000130848 	-0.118938
0.0142475 	0.00159192 	-0.000116522 	-0.112659
0.0142977 	0.00146168 	-0.000102367 	-0.105993
0.0143478 	0.00132699 	-8.83928e-05 	-0.0989424
0.0143478 	0.00132699 	-8.83928e-05 	-0.0989424
0.014398 	0.00118645 	-7.4778e-05 	-0.0915296
0.014398 	0.00118645 	-7.4778e-05 	-0.0915296
0.0144482 	0.001039 	-6.1831e-05 	-0.0838021
0.0144983 	0.000884483 	-4.98193e-05 	-0.0758333
0.0144983 	0.000884483 	-4.98193e-05 	-0.0758333
0.0145485 	0.000724181 	-3.889e-05 	-0.0677182
0.0145987 	0.000561429 	-2.91403e-05 	-0.0595616
0.0145987 	0.000561429 	-2.91403e-05 	-0.0595616
0.0146488 	0.000401904 	-2.06846e-05 	-0.0514615
0.014699 	0.000253906 	-1.36731e-05 	-0.0434953
0.014699 	0.000253906 	-1.36731e-05 	-0.0434953
0.0147492 	0.000129562 	-8.19271e-06 	-0.035714
0.0147993 	4.86792e-05 	-4.09871e-06 	-0.0281488
0.0147993 	4.86792e-05 	-4.09871e-06 	-0.0281488
0.0148495 	4.75865e-05 	-1.73008e-06 	-0.0208264
0.0148495 	4.75865e-05 	-1.73008e-06 	-0.0208264
0.0148997 	0.000133694 	-4.34119e-07 	-0.0137545
0.0148997 	0.000133694 	-4.34119e-07 	-0.0137545
0.0149498 	0.000176686 	4.19835e-07 	-0.00685987
0.0149498 	0.000176686 	4.19835e-07 	-0.00685987
0.015 	0 	0 	0
