-0.0075 	0 	0 	0
-0.0075 	-8.7518e-34 	-4.63057e-36 	-7.04418e-33
-0.00745622 	-0.00115025 	-6.08596e-06 	-0.00925817
-0.00745622 	-0.00115025 	-6.08596e-06 	-0.00925817
-0.00741165 	-0.00183346 	-8.15706e-06 	-0.0191127
-0.00741165 	-0.00183346 	-8.15706e-06 	-0.0191127
-0.00736628 	-0.00224299 	-7.05363e-06 	-0.0292165
-0.00736628 	-0.00224299 	-7.05363e-06 	-0.0292165
-0.0073201 	-0.00263687 	-1.64084e-06 	-0.0392897
-0.0073201 	-0.00263687 	-1.64084e-06 	-0.0392897
-0.00727309 	-0.0030587 	6.32115e-06 	-0.0492756
-0.00727309 	-0.0030587 	6.32115e-06 	-0.0492756
-0.00722524 	-0.003468 	1.63636e-05 	-0.0591487
-0.00722524 	-0.003468 	1.63636e-05 	-0.0591487
-0.00717653 	-0.00384563 	2.82332e-05 	-0.0688463
-0.00717653 	-0.00384563 	2.82332e-05 	-0.0688463
-0.00712695 	-0.00418115 	4.17488e-05 	-0.0782955
-0.00712695 	-0.00418115 	4.17488e-05 	-0.0782955
-0.00707647 	-0.0044687 	5.71881e-05 	-0.0874242
-0.00707647 	-0.0044687 	5.71881e-05 	-0.0874242
-0.0070251 	-0.00470596 	7.49038e-05 	-0.0961729
-0.0070251 	-0.00470596 	7.49038e-05 	-0.0961729
-0.0069728 	-0.00489415 	9.47033e-05 	-0.104503
-0.0069728 	-0.00489415 	9.47033e-05 	-0.104503
-0.00691956 	-0.00503769 	0.000116139 	-0.112402
-0.00691956 	-0.00503769 	0.000116139 	-0.112402
-0.00686537 	-0.00514292 	0.00013905 	-0.119884
-0.00686537 	-0.00514292 	0.00013905 	-0.119884
-0.00681021 	-0.00521621 	0.000163835 	-0.126978
-0.00681021 	-0.00521621 	0.000163835 	-0.126978
-0.00675406 	-0.0052623 	0.000190707 	-0.133708
-0.00675406 	-0.0052623 	0.000190707 	-0.133708
-0.0066969 	-0.00528411 	0.000219234 	-0.140097
-0.0066969 	-0.00528411 	0.000219234 	-0.140097
-0.00663871 	-0.00528398 	0.000249319 	-0.146165
-0.00663871 	-0.00528398 	0.000249319 	-0.146165
-0.00657949 	-0.0052641 	0.000281243 	-0.151935
-0.00657949 	-0.0052641 	0.000281243 	-0.151935
-0.0065192 	-0.00522625 	0.000314866 	-0.157431
-0.0065192 	-0.00522625 	0.000314866 	-0.157431
-0.00645783 	-0.00517214 	0.000349719 	-0.162671
-0.00645783 	-0.00517214 	0.000349719 	-0.162671
-0.00639535 	-0.005104 	0.00038544 	-0.167659
-0.00639535 	-0.005104 	0.00038544 	-0.167659
-0.00633176 	-0.00502463 	0.000421619 	-0.172394
-0.00633176 	-0.00502463 	0.000421619 	-0.172394
-0.00626703 	-0.00493721 	0.000457173 	-0.176882
-0.00626703 	-0.00493721 	0.000457173 	-0.176882
-0.00620114 	-0.00484556 	0.000490697 	-0.181148
-0.00620114 	-0.00484556 	0.000490697 	-0.181148
-0.00613406 	-0.00475408 	0.000522913 	-0.18523
-0.00613406 	-0.00475408 	0.000522913 	-0.18523
-0.00606579 	-0.0046652 	0.000559893 	-0.189153
-0.00606579 	-0.0046652 	0.000559893 	-0.189153
-0.00599629 	-0.00457481 	0.000604907 	-0.192912
-0.00599629 	-0.00457481 	0.000604907 	-0.192912
-0.00592554 	-0.00447427 	0.000650643 	-0.196481
-0.00592554 	-0.00447427 	0.000650643 	-0.196481
-0.00585352 	-0.00435689 	0.000690563 	-0.199854
-0.00585352 	-0.00435689 	0.000690563 	-0.199854
-0.00578022 	-0.00422051 	0.00072517 	-0.203058
-0.00578022 	-0.00422051 	0.00072517 	-0.203058
-0.00570559 	-0.00406869 	0.000759532 	-0.206126
-0.00570559 	-0.00406869 	0.000759532 	-0.206126
-0.00562963 	-0.00390683 	0.000796566 	-0.209078
-0.00562963 	-0.00390683 	0.000796566 	-0.209078
-0.00555231 	-0.0037367 	0.000832487 	-0.211926
-0.00555231 	-0.0037367 	0.000832487 	-0.211926
-0.0054736 	-0.00355885 	0.000864943 	-0.214678
-0.0054736 	-0.00355885 	0.000864943 	-0.214678
-0.00539348 	-0.00337405 	0.000910654 	-0.217339
-0.00539348 	-0.00337405 	0.000910654 	-0.217339
-0.00531193 	-0.00317415 	0.000978869 	-0.219901
-0.00531193 	-0.00317415 	0.000978869 	-0.219901
-0.00522891 	-0.00294649 	0.00103134 	-0.222338
-0.00522891 	-0.00294649 	0.00103134 	-0.222338
-0.0051444 	-0.00270171 	0.00101532 	-0.224701
-0.0051444 	-0.00270171 	0.00101532 	-0.224701
-0.00505838 	-0.00248339 	0.000960117 	-0.227235
-0.00505838 	-0.00248339 	0.000960117 	-0.227235
-0.00497081 	-0.00231887 	0.000987962 	-0.230165
-0.00497081 	-0.00231887 	0.000987962 	-0.230165
-0.00488168 	-0.0021769 	0.00109033 	-0.233176
-0.00488168 	-0.0021769 	0.00109033 	-0.233176
-0.00479094 	-0.00201361 	0.0011642 	-0.235819
-0.00479094 	-0.00201361 	0.0011642 	-0.235819
-0.00469858 	-0.00180165 	0.00118343 	-0.238069
-0.00469858 	-0.00180165 	0.00118343 	-0.238069
-0.00460456 	-0.00154955 	0.00119239 	-0.240102
-0.00460456 	-0.00154955 	0.00119239 	-0.240102
-0.00450886 	-0.00129559 	0.0012337 	-0.242084
-0.00450886 	-0.00129559 	0.0012337 	-0.242084
-0.00441144 	-0.00105219 	0.00127123 	-0.24406
-0.00441144 	-0.00105219 	0.00127123 	-0.24406
-0.00431227 	-0.00081295 	0.00128294 	-0.245951
-0.00431227 	-0.00081295 	0.00128294 	-0.245951
-0.00421133 	-0.000576272 	0.00129033 	-0.247713
-0.00421133 	-0.000576272 	0.00129033 	-0.247713
-0.00410857 	-0.000344352 	0.001313 	-0.24939
-0.00410857 	-0.000344352 	0.001313 	-0.24939
-0.00400397 	-0.000118557 	0.00134298 	-0.251019
-0.00400397 	-0.000118557 	0.00134298 	-0.251019
-0.0038975 	9.93635e-05 	0.00135491 	-0.252617
-0.0038975 	9.93635e-05 	0.00135491 	-0.252617
-0.00378912 	0.000301072 	0.00135832 	-0.254263
-0.00378912 	0.000301072 	0.00135832 	-0.254263
-0.00367879 	0.000476679 	0.00139296 	-0.256119
-0.00367879 	0.000476679 	0.00139296 	-0.256119
-0.00356649 	0.000631793 	0.00145238 	-0.258262
-0.00356649 	0.000631793 	0.00145238 	-0.258262
-0.00345217 	0.000794445 	0.00147016 	-0.260316
-0.00345217 	0.000794445 	0.00147016 	-0.260316
-0.0033358 	0.000977025 	0.00146164 	-0.261904
-0.0033358 	0.000977025 	0.00146164 	-0.261904
-0.00321735 	0.00115825 	0.00147498 	-0.263135
-0.00321735 	0.00115825 	0.00147498 	-0.263135
-0.00309677 	0.00131871 	0.00145252 	-0.264281
-0.00309677 	0.00131871 	0.00145252 	-0.264281
-0.00297403 	0.00147104 	0.00133399 	-0.265873
-0.00297403 	0.00147104 	0.00133399 	-0.265873
-0.00284909 	0.00164828 	0.00130098 	-0.268535
-0.00284909 	0.00164828 	0.00130098 	-0.268535
-0.0027219 	0.00181922 	0.0014215 	-0.271452
-0.0027219 	0.00181922 	0.0014215 	-0.271452
-0.00259244 	0.00192918 	0.00152623 	-0.273592
-0.00259244 	0.00192918 	0.00152623 	-0.273592
-0.00246065 	0.00199946 	0.00162669 	-0.275563
-0.00246065 	0.00199946 	0.00162669 	-0.275563
-0.00232651 	0.00210613 	0.00162705 	-0.278534
-0.00232651 	0.00210613 	0.00162705 	-0.278534
-0.00218995 	0.00225658 	0.00148619 	-0.282206
-0.00218995 	0.00225658 	0.00148619 	-0.282206
-0.00205095 	0.0023803 	0.00140845 	-0.2853
-0.00205095 	0.0023803 	0.00140845 	-0.2853
-0.00190946 	0.00245057 	0.00145178 	-0.287638
-0.00190946 	0.00245057 	0.00145178 	-0.287638
-0.00176543 	0.00248661 	0.00152397 	-0.289613
-0.00176543 	0.00248661 	0.00152397 	-0.289613
-0.00161881 	0.00252292 	0.00154076 	-0.291339
-0.00161881 	0.00252292 	0.00154076 	-0.291339
-0.00146957 	0.00258358 	0.00151016 	-0.29272
-0.00146957 	0.00258358 	0.00151016 	-0.29272
-0.00131765 	0.00266531 	0.00149176 	-0.293814
-0.00131765 	0.00266531 	0.00149176 	-0.293814
-0.001163 	0.00275622 	0.00149154 	-0.294758
-0.001163 	0.00275622 	0.00149154 	-0.294758
-0.00100559 	0.00285087 	0.0014845 	-0.295571
-0.00100559 	0.00285087 	0.0014845 	-0.295571
-0.000845345 	0.00294596 	0.0014779 	-0.296224
-0.000845345 	0.00294596 	0.0014779 	-0.296224
-0.000682232 	0.0030361 	0.00147258 	-0.296698
-0.000682232 	0.0030361 	0.00147258 	-0.296698
-0.000516194 	0.00311443 	0.00145805 	-0.296978
-0.000516194 	0.00311443 	0.00145805 	-0.296978
-0.000347178 	0.00317387 	0.00143326 	-0.297048
-0.000347178 	0.00317387 	0.00143326 	-0.297048
-0.000175132 	0.00319386 	0.00142211 	-0.296828
-0.000175132 	0.00319386 	0.00142211 	-0.296828
0 	0.00312248 	0.00145887 	-0.296034
0 	0.00312248 	0.00145887 	-0.296034
0 	0.00312248 	0.00145887 	-0.296034
0 	0.00312248 	0.00145887 	-0.296034
0.000175132 	0.00289646 	0.00141963 	-0.294225
0.000175132 	-0.000740674 	-0.00703025 	-0.323937
0.000347178 	0.00250344 	0.00122114 	-0.291227
0.000347178 	-0.000520511 	-0.00722985 	-0.324061
0.000516194 	0.00216285 	0.0011779 	-0.288491
0.000516194 	-0.000351674 	-0.00734596 	-0.323909
0.000682232 	0.00202779 	0.0013312 	-0.287105
0.000682232 	-0.000251035 	-0.00742449 	-0.323445
0.000845345 	0.0019727 	0.00138209 	-0.286245
0.000845345 	-0.000225056 	-0.00750158 	-0.322799
0.00100559 	0.00190364 	0.00132851 	-0.28527
0.00100559 	-0.000258721 	-0.00756193 	-0.322196
0.001163 	0.00181042 	0.00127925 	-0.284128
0.001163 	-0.000323125 	-0.00761597 	-0.321812
0.00131765 	0.00170791 	0.00125684 	-0.282922
0.00131765 	-0.000418808 	-0.00774298 	-0.321452
0.00146957 	0.00160385 	0.00123866 	-0.281684
0.00146957 	-0.000601293 	-0.00794916 	-0.320868
0.00161881 	0.00150221 	0.00121847 	-0.280411
0.00161881 	-0.000941613 	-0.00801294 	-0.320496
0.00176543 	0.0014085 	0.00120147 	-0.279109
0.00176543 	-0.00144623 	-0.00778428 	-0.320996
0.00190946 	0.00132666 	0.0011661 	-0.27781
0.00190946 	-0.00180477 	-0.00775468 	-0.321659
0.00205095 	0.00125634 	0.00107642 	-0.276522
0.00205095 	-0.00179953 	-0.00836168 	-0.321484
0.00218995 	0.0011973 	0.0010188 	-0.275041
0.00218995 	-0.00164727 	-0.00903743 	-0.319182
0.00232651 	0.00117284 	0.00114143 	-0.27287
0.00232651 	-0.00158035 	-0.0086622 	-0.312789
0.00246065 	0.00122504 	0.00134367 	-0.269496
0.00246065 	-0.00165499 	-0.00694807 	-0.300765
0.00259244 	0.00136014 	0.00134019 	-0.265872
0.00259244 	-0.00156797 	-0.00598143 	-0.288039
0.0027219 	0.00153756 	0.00111937 	-0.263514
0.0027219 	-0.00106761 	-0.0070403 	-0.282393
0.00284909 	0.00169587 	0.000947545 	-0.262202
0.00284909 	-0.000403528 	-0.00829223 	-0.282466
0.00297403 	0.00180528 	0.00092086 	-0.261057
0.00297403 	0.000149924 	-0.00846549 	-0.283198
0.00309677 	0.00188249 	0.000964301 	-0.259761
0.00309677 	0.000573903 	-0.00792552 	-0.282956
0.00321735 	0.00194472 	0.00100052 	-0.258351
0.00321735 	0.000922978 	-0.00744034 	-0.28203
0.0033358 	0.00199879 	0.000982392 	-0.256906
0.0033358 	0.00123127 	-0.00738896 	-0.280909
0.00345217 	0.00204558 	0.000946918 	-0.255437
0.00345217 	0.00150911 	-0.0074389 	-0.279779
0.00356649 	0.00208352 	0.000938023 	-0.253939
0.00356649 	0.00175888 	-0.00729603 	-0.278669
0.00367879 	0.00211077 	0.000927373 	-0.25241
0.00367879 	0.00198121 	-0.00719852 	-0.27758
0.00378912 	0.00217985 	-0.00755192 	-0.276403
0.00378912 	0.00212737 	0.000842522 	-0.250835
0.0038975 	0.00213738 	0.000738312 	-0.249143
0.0038975 	0.00235499 	-0.00803682 	-0.274634
0.00400397 	0.00213489 	0.000787662 	-0.247165
0.00400397 	0.00247087 	-0.00782821 	-0.271358
0.00410857 	0.00208166 	0.00102769 	-0.244639
0.00410857 	0.00246033 	-0.00646862 	-0.265852
0.00421133 	0.00192995 	0.00117716 	-0.241506
0.00421133 	0.00233192 	-0.00512235 	-0.259733
0.00431227 	0.00165889 	0.00092515 	-0.238067
0.00431227 	0.00216769 	-0.00545076 	-0.256745
0.00441144 	0.00134432 	0.000544665 	-0.234726
0.00441144 	0.00205957 	-0.00663001 	-0.256864
0.00450886 	0.00116916 	0.000500627 	-0.232028
0.00450886 	0.00208387 	-0.00715442 	-0.256769
0.00460456 	0.00117826 	0.000712746 	-0.230053
0.00460456 	0.00220046 	-0.006712 	-0.255302
0.00469858 	0.00124523 	0.000857747 	-0.22828
0.00469858 	0.00231005 	-0.00599505 	-0.253216
0.00479094 	0.0012837 	0.000813907 	-0.226395
0.00479094 	0.00236526 	-0.00577529 	-0.251141
0.00488168 	0.00128511 	0.000707647 	-0.224374
0.00488168 	0.00237003 	-0.00572227 	-0.249109
0.00497081 	0.00127334 	0.000666999 	-0.222281
0.00497081 	0.00234983 	-0.00559815 	-0.247023
0.00505838 	0.00126199 	0.000660572 	-0.220138
0.00505838 	0.0023144 	-0.00547724 	-0.244859
0.0051444 	0.00125164 	0.00063614 	-0.217933
0.0051444 	0.0022635 	-0.00542377 	-0.24261
0.00522891 	0.0012425 	0.000596013 	-0.215648
0.00522891 	0.0022025 	-0.00545205 	-0.240233
0.00531193 	0.00213591 	-0.00532538 	-0.237615
0.00531193 	0.00123601 	0.000577168 	-0.213256
0.00539348 	0.00123243 	0.00058688 	-0.210723
0.00539348 	0.0020564 	-0.00500251 	-0.234621
0.0054736 	0.00123132 	0.000601897 	-0.20805
0.0054736 	0.00195661 	-0.00463928 	-0.231325
0.00555231 	0.00123212 	0.000585396 	-0.205299
0.00555231 	0.00183666 	-0.00448215 	-0.22808
0.00562963 	0.0012333 	0.000525199 	-0.202516
0.00562963 	0.00169575 	-0.00460697 	-0.225097
0.00570559 	0.00123419 	0.000469199 	-0.199678
0.00570559 	0.00153721 	-0.00469334 	-0.222231
0.00578022 	0.00123597 	0.000442822 	-0.196733
0.00578022 	0.00137163 	-0.00458031 	-0.219253
0.00585352 	0.00124032 	0.000430359 	-0.193644
0.00585352 	0.00120864 	-0.00437636 	-0.21606
0.00592554 	0.00124829 	0.000415644 	-0.19039
0.00592554 	0.0010491 	-0.00418985 	-0.212619
0.00599629 	0.0012611 	0.000395079 	-0.186949
0.00599629 	0.000888171 	-0.00403903 	-0.208886
0.00606579 	0.000723425 	-0.00388939 	-0.204872
0.00606579 	0.00128056 	0.000373086 	-0.183309
0.00613406 	0.0013066 	0.000345655 	-0.179458
0.00613406 	0.000552978 	-0.00376862 	-0.200656
0.00620114 	0.00133487 	0.000313175 	-0.175376
0.00620114 	0.000375406 	-0.00367336 	-0.19629
0.00626703 	0.00135615 	0.000281912 	-0.17103
0.00626703 	0.000191995 	-0.00356256 	-0.191762
0.00633176 	0.00135847 	0.000253396 	-0.166375
0.00633176 	4.91959e-06 	-0.00343028 	-0.187019
0.00639535 	0.00133178 	0.000226906 	-0.161375
0.00639535 	-0.00018425 	-0.00328644 	-0.182008
0.00645783 	0.00127226 	0.000201798 	-0.156001
0.00645783 	-0.000374357 	-0.00313808 	-0.17669
0.0065192 	0.00118326 	0.000177285 	-0.150235
0.0065192 	-0.000563705 	-0.002988 	-0.171035
0.00657949 	0.00107244 	0.000152798 	-0.144064
0.00657949 	-0.000748355 	-0.00283694 	-0.165011
0.00663871 	0.000949299 	0.000129195 	-0.137476
0.00663871 	-0.000921543 	-0.00267939 	-0.158575
0.0066969 	0.000823894 	0.000107369 	-0.13046
0.0066969 	-0.00107548 	-0.00251 	-0.151662
0.00675406 	0.000703804 	8.77473e-05 	-0.123004
0.00675406 	-0.00120155 	-0.00232687 	-0.144196
0.00681021 	0.000592433 	7.01478e-05 	-0.115099
0.00681021 	-0.00129106 	-0.00213401 	-0.136136
0.00686537 	0.00048883 	5.40525e-05 	-0.10676
0.00686537 	-0.00133762 	-0.00193872 	-0.127479
0.00691956 	0.000389776 	3.98138e-05 	-0.0980394
0.00691956 	-0.0013365 	-0.00174198 	-0.118255
0.0069728 	0.000293715 	2.77391e-05 	-0.0890353
0.0069728 	-0.00128428 	-0.00154493 	-0.108547
0.0070251 	0.000201225 	1.77975e-05 	-0.0798818
0.0070251 	-0.00118058 	-0.00135249 	-0.0984919
0.00707647 	0.000114296 	1.00207e-05 	-0.0707331
0.00707647 	-0.00102918 	-0.00116868 	-0.088269
0.00712695 	3.64982e-05 	4.35171e-06 	-0.0617352
0.00712695 	-0.000837944 	-0.00099624 	-0.0780599
0.00717653 	-2.74315e-05 	7.60427e-07 	-0.0529981
0.00717653 	-0.000617693 	-0.000836499 	-0.0680069
0.00722524 	-7.17493e-05 	-7.92429e-07 	-0.0445786
0.00722524 	-0.00038066 	-0.000685668 	-0.0581777
0.00727309 	-8.87244e-05 	-5.96507e-07 	-0.0364802
0.00727309 	-0.000139716 	-0.000546763 	-0.0485512
0.0073201 	-6.59785e-05 	6.31178e-07 	-0.0286613
0.0073201 	9.06956e-05 	-0.000437296 	-0.0390149
0.00736628 	1.81501e-05 	3.07676e-06 	-0.0210371
0.00736628 	0.000291827 	-0.000255088 	-0.0293498
0.00741165 	0.000132964 	3.11784e-06 	-0.0135983
0.00741165 	0.000383615 	-0.000175062 	-0.0193807
0.00745622 	0.00015334 	1.881e-06 	-0.00653629
0.00745622 	0.000265748 	-8.98647e-05 	-0.00937735
0.0075 	0 	0 	0
0.0075 	0 	0 	0
