-0.0075 	0 	0 	0
-0.0075 	2.19344e-36 	-2.86136e-36 	1.85211e-31
-0.00745622 	1.80178e-07 	-2.35043e-07 	0.0152139
-0.00745622 	1.80178e-07 	-2.35043e-07 	0.0152139
-0.00741165 	-2.03788e-07 	-7.69367e-07 	0.0296212
-0.00741165 	-2.03788e-07 	-7.69367e-07 	0.0296212
-0.00736628 	-7.75397e-07 	-1.67377e-06 	0.0433258
-0.00736628 	-7.75397e-07 	-1.67377e-06 	0.0433258
-0.0073201 	-1.31067e-06 	-2.94228e-06 	0.0563534
-0.0073201 	-1.31067e-06 	-2.94228e-06 	0.0563534
-0.00727309 	-1.80483e-06 	-4.60876e-06 	0.0687277
-0.00727309 	-1.80483e-06 	-4.60876e-06 	0.0687277
-0.00722524 	-2.28604e-06 	-6.6754e-06 	0.0804698
-0.00722524 	-2.28604e-06 	-6.6754e-06 	0.0804698
-0.00717653 	-2.75933e-06 	-9.15654e-06 	0.0915893
-0.00717653 	-2.75933e-06 	-9.15654e-06 	0.0915893
-0.00712695 	-3.22488e-06 	-1.20714e-05 	0.102074
-0.00712695 	-3.22488e-06 	-1.20714e-05 	0.102074
-0.00707647 	-3.68051e-06 	-1.5455e-05 	0.111895
-0.00707647 	-3.68051e-06 	-1.5455e-05 	0.111895
-0.0070251 	-4.12144e-06 	-1.93629e-05 	0.121025
-0.0070251 	-4.12144e-06 	-1.93629e-05 	0.121025
-0.0069728 	-4.54112e-06 	-2.38659e-05 	0.129458
-0.0069728 	-4.54112e-06 	-2.38659e-05 	0.129458
-0.00691956 	-4.93281e-06 	-2.9036e-05 	0.137211
-0.00691956 	-4.93281e-06 	-2.9036e-05 	0.137211
-0.00686537 	-5.29089e-06 	-3.49379e-05 	0.144325
-0.00686537 	-5.29089e-06 	-3.49379e-05 	0.144325
-0.00681021 	-5.61191e-06 	-4.16374e-05 	0.150853
-0.00681021 	-5.61191e-06 	-4.16374e-05 	0.150853
-0.00675406 	-5.89439e-06 	-4.92035e-05 	0.156858
-0.00675406 	-5.89439e-06 	-4.92035e-05 	0.156858
-0.0066969 	-6.13808e-06 	-5.76991e-05 	0.162393
-0.0066969 	-6.13808e-06 	-5.76991e-05 	0.162393
-0.00663871 	-6.34361e-06 	-6.71679e-05 	0.167506
-0.00663871 	-6.34361e-06 	-6.71679e-05 	0.167506
-0.00657949 	-6.51213e-06 	-7.7614e-05 	0.172237
-0.00657949 	-6.51213e-06 	-7.7614e-05 	0.172237
-0.0065192 	-6.64515e-06 	-8.90047e-05 	0.176629
-0.0065192 	-6.64515e-06 	-8.90047e-05 	0.176629
-0.00645783 	-6.7447e-06 	-0.000101292 	0.180723
-0.00645783 	-6.7447e-06 	-0.000101292 	0.180723
-0.00639535 	-6.81301e-06 	-0.000114426 	0.184558
-0.00639535 	-6.81301e-06 	-0.000114426 	0.184558
-0.00633176 	-6.85242e-06 	-0.000128353 	0.188167
-0.00633176 	-6.85242e-06 	-0.000128353 	0.188167
-0.00626703 	-6.86519e-06 	-0.000143019 	0.191576
-0.00626703 	-6.86519e-06 	-0.000143019 	0.191576
-0.00620114 	-6.85338e-06 	-0.000158368 	0.194809
-0.00620114 	-6.85338e-06 	-0.000158368 	0.194809
-0.00613406 	-6.81879e-06 	-0.000174341 	0.197886
-0.00613406 	-6.81879e-06 	-0.000174341 	0.197886
-0.00606579 	-6.76287e-06 	-0.000190876 	0.200825
-0.00606579 	-6.76287e-06 	-0.000190876 	0.200825
-0.00599629 	-6.68664e-06 	-0.000207909 	0.203643
-0.00599629 	-6.68664e-06 	-0.000207909 	0.203643
-0.00592554 	-6.59098e-06 	-0.00022537 	0.206356
-0.00592554 	-6.59098e-06 	-0.00022537 	0.206356
-0.00585352 	-6.47696e-06 	-0.000243185 	0.208977
-0.00585352 	-6.47696e-06 	-0.000243185 	0.208977
-0.00578022 	-6.34582e-06 	-0.000261262 	0.211519
-0.00578022 	-6.34582e-06 	-0.000261262 	0.211519
-0.00570559 	-6.19862e-06 	-0.000279504 	0.213992
-0.00570559 	-6.19862e-06 	-0.000279504 	0.213992
-0.00562963 	-6.03615e-06 	-0.000297812 	0.216404
-0.00562963 	-6.03615e-06 	-0.000297812 	0.216404
-0.00555231 	-5.85895e-06 	-0.000316084 	0.218762
-0.00555231 	-5.85895e-06 	-0.000316084 	0.218762
-0.0054736 	-5.66746e-06 	-0.000334219 	0.221071
-0.0054736 	-5.66746e-06 	-0.000334219 	0.221071
-0.00539348 	-5.462e-06 	-0.000352112 	0.223336
-0.00539348 	-5.462e-06 	-0.000352112 	0.223336
-0.00531193 	-5.24281e-06 	-0.000369661 	0.225561
-0.00531193 	-5.24281e-06 	-0.000369661 	0.225561
-0.00522891 	-5.01009e-06 	-0.000386763 	0.227748
-0.00522891 	-5.01009e-06 	-0.000386763 	0.227748
-0.0051444 	-4.76398e-06 	-0.000403316 	0.2299
-0.0051444 	-4.76398e-06 	-0.000403316 	0.2299
-0.00505838 	-4.50457e-06 	-0.000419226 	0.232018
-0.00505838 	-4.50457e-06 	-0.000419226 	0.232018
-0.00497081 	-4.23191e-06 	-0.0004344 	0.234103
-0.00497081 	-4.23191e-06 	-0.0004344 	0.234103
-0.00488168 	-3.94601e-06 	-0.000448753 	0.236154
-0.00488168 	-3.94601e-06 	-0.000448753 	0.236154
-0.00479094 	-3.64677e-06 	-0.000462203 	0.23817
-0.00479094 	-3.64677e-06 	-0.000462203 	0.23817
-0.00469858 	-3.33391e-06 	-0.000474673 	0.240151
-0.00469858 	-3.33391e-06 	-0.000474673 	0.240151
-0.00460456 	-3.00697e-06 	-0.000486092 	0.242095
-0.00460456 	-3.00697e-06 	-0.000486092 	0.242095
-0.00450886 	-2.6653e-06 	-0.000496411 	0.244
-0.00450886 	-2.6653e-06 	-0.000496411 	0.244
-0.00441144 	-2.30821e-06 	-0.000505613 	0.245865
-0.00441144 	-2.30821e-06 	-0.000505613 	0.245865
-0.00431227 	-1.93514e-06 	-0.000513712 	0.247687
-0.00431227 	-1.93514e-06 	-0.000513712 	0.247687
-0.00421133 	-1.54562e-06 	-0.000520752 	0.249466
-0.00421133 	-1.54562e-06 	-0.000520752 	0.249466
-0.00410857 	-1.13892e-06 	-0.000526797 	0.251198
-0.00410857 	-1.13892e-06 	-0.000526797 	0.251198
-0.00400397 	-7.1329e-07 	-0.000531927 	0.252882
-0.00400397 	-7.1329e-07 	-0.000531927 	0.252882
-0.0038975 	-2.66034e-07 	-0.000536236 	0.254517
-0.0038975 	-2.66034e-07 	-0.000536236 	0.254517
-0.00378912 	2.0489e-07 	-0.00053981 	0.256105
-0.00378912 	2.0489e-07 	-0.00053981 	0.256105
-0.00367879 	6.99497e-07 	-0.000542721 	0.257648
-0.00367879 	6.99497e-07 	-0.000542721 	0.257648
-0.00356649 	1.21623e-06 	-0.000545028 	0.259148
-0.00356649 	1.21623e-06 	-0.000545028 	0.259148
-0.00345217 	1.75343e-06 	-0.000546787 	0.260601
-0.00345217 	1.75343e-06 	-0.000546787 	0.260601
-0.0033358 	2.30995e-06 	-0.000548056 	0.262006
-0.0033358 	2.30995e-06 	-0.000548056 	0.262006
-0.00321735 	2.88465e-06 	-0.000548899 	0.26336
-0.00321735 	2.88465e-06 	-0.000548899 	0.26336
-0.00309677 	3.47602e-06 	-0.000549385 	0.264661
-0.00309677 	3.47602e-06 	-0.000549385 	0.264661
-0.00297403 	4.08225e-06 	-0.000549586 	0.265906
-0.00297403 	4.08225e-06 	-0.000549586 	0.265906
-0.00284909 	4.70107e-06 	-0.000549577 	0.267093
-0.00284909 	4.70107e-06 	-0.000549577 	0.267093
-0.0027219 	5.32982e-06 	-0.000549436 	0.268219
-0.0027219 	5.32982e-06 	-0.000549436 	0.268219
-0.00259244 	5.96557e-06 	-0.000549237 	0.269281
-0.00259244 	5.96557e-06 	-0.000549237 	0.269281
-0.00246065 	6.60514e-06 	-0.000549049 	0.270278
-0.00246065 	6.60514e-06 	-0.000549049 	0.270278
-0.00232651 	7.24507e-06 	-0.000548935 	0.271206
-0.00232651 	7.24507e-06 	-0.000548935 	0.271206
-0.00218995 	7.88158e-06 	-0.000548945 	0.272064
-0.00218995 	7.88158e-06 	-0.000548945 	0.272064
-0.00205095 	8.51074e-06 	-0.000549118 	0.27285
-0.00205095 	8.51074e-06 	-0.000549118 	0.27285
-0.00190946 	9.1286e-06 	-0.000549479 	0.273562
-0.00190946 	9.1286e-06 	-0.000549479 	0.273562
-0.00176543 	9.7309e-06 	-0.000550038 	0.2742
-0.00176543 	9.7309e-06 	-0.000550038 	0.2742
-0.00161881 	1.03126e-05 	-0.000550786 	0.274762
-0.00161881 	1.03126e-05 	-0.000550786 	0.274762
-0.00146957 	1.08677e-05 	-0.000551696 	0.27525
-0.00146957 	1.08677e-05 	-0.000551696 	0.27525
-0.00131765 	1.13893e-05 	-0.000552726 	0.275661
-0.00131765 	1.13893e-05 	-0.000552726 	0.275661
-0.001163 	1.18702e-05 	-0.000553824 	0.275998
-0.001163 	1.18702e-05 	-0.000553824 	0.275998
-0.00100559 	1.23026e-05 	-0.000554936 	0.276259
-0.00100559 	1.23026e-05 	-0.000554936 	0.276259
-0.000845345 	1.26773e-05 	-0.000555952 	0.276444
-0.000845345 	1.26773e-05 	-0.000555952 	0.276444
-0.000682232 	1.29841e-05 	-0.000556853 	0.276552
-0.000682232 	1.29841e-05 	-0.000556853 	0.276552
-0.000516194 	1.32109e-05 	-0.000557646 	0.276581
-0.000516194 	1.32109e-05 	-0.000557646 	0.276581
-0.000347178 	1.3345e-05 	-0.000558201 	0.276528
-0.000347178 	1.3345e-05 	-0.000558201 	0.276528
-0.000175132 	1.33691e-05 	-0.00055862 	0.276392
-0.000175132 	1.33691e-05 	-0.00055862 	0.276392
0 	1.32656e-05 	-0.000558759 	0.276171
0 	1.32656e-05 	-0.000558759 	0.276171
0 	1.32656e-05 	-0.000558759 	0.276171
0 	1.32656e-05 	-0.000558759 	0.276171
0.000175132 	1.30334e-05 	-0.000558407 	0.275865
0.000175132 	2.0242e-05 	-0.000454042 	0.272563
0.000347178 	1.26844e-05 	-0.000557704 	0.275482
0.000347178 	2.16651e-05 	-0.000455168 	0.272246
0.000516194 	1.22402e-05 	-0.000556514 	0.275028
0.000516194 	2.29112e-05 	-0.000455917 	0.271851
0.000682232 	1.17228e-05 	-0.000554877 	0.274505
0.000682232 	2.39976e-05 	-0.00045632 	0.271381
0.000845345 	1.11468e-05 	-0.000552941 	0.273918
0.000845345 	2.49391e-05 	-0.000456383 	0.270842
0.00100559 	1.05258e-05 	-0.000550656 	0.273269
0.00100559 	2.57523e-05 	-0.000456094 	0.270237
0.001163 	9.87173e-06 	-0.00054804 	0.272561
0.001163 	2.64526e-05 	-0.000455462 	0.26957
0.00131765 	9.19517e-06 	-0.000545112 	0.271796
0.00131765 	2.70538e-05 	-0.000454495 	0.268843
0.00146957 	8.50517e-06 	-0.000541886 	0.270977
0.00146957 	2.75684e-05 	-0.000453199 	0.268059
0.00161881 	7.8095e-06 	-0.000538378 	0.270106
0.00161881 	2.80071e-05 	-0.000451584 	0.26722
0.00176543 	7.11471e-06 	-0.000534599 	0.269183
0.00176543 	2.83793e-05 	-0.000449658 	0.266329
0.00190946 	6.4263e-06 	-0.00053056 	0.268211
0.00190946 	2.86928e-05 	-0.000447427 	0.265386
0.00205095 	5.74881e-06 	-0.000526268 	0.267191
0.00205095 	2.89544e-05 	-0.000444895 	0.264394
0.00218995 	5.08599e-06 	-0.00052173 	0.266124
0.00218995 	2.91698e-05 	-0.000442064 	0.263353
0.00232651 	4.44091e-06 	-0.000516948 	0.265011
0.00232651 	2.93437e-05 	-0.000438936 	0.262265
0.00246065 	3.816e-06 	-0.000511925 	0.263853
0.00246065 	2.94801e-05 	-0.00043551 	0.26113
0.00259244 	3.21319e-06 	-0.000506659 	0.26265
0.00259244 	2.9582e-05 	-0.000431784 	0.259949
0.0027219 	2.63395e-06 	-0.000501149 	0.261402
0.0027219 	2.96518e-05 	-0.000427754 	0.258724
0.00284909 	2.07941e-06 	-0.000495389 	0.26011
0.00284909 	2.9691e-05 	-0.000423411 	0.257453
0.00297403 	1.5504e-06 	-0.000489375 	0.258775
0.00297403 	2.97009e-05 	-0.000418746 	0.256138
0.00309677 	1.04748e-06 	-0.0004831 	0.257395
0.00309677 	2.9682e-05 	-0.000413748 	0.254779
0.00321735 	5.71012e-07 	-0.000476556 	0.255971
0.00321735 	2.96348e-05 	-0.000408406 	0.253376
0.0033358 	1.21181e-07 	-0.000469735 	0.254503
0.0033358 	2.95592e-05 	-0.000402706 	0.251927
0.00345217 	2.94552e-05 	-0.000396643 	0.250433
0.00345217 	-3.02004e-07 	-0.000462631 	0.252989
0.00356649 	-6.98629e-07 	-0.000455239 	0.251429
0.00356649 	2.93229e-05 	-0.000390218 	0.248892
0.00367879 	-1.06882e-06 	-0.000447546 	0.249822
0.00367879 	2.91632e-05 	-0.000383424 	0.247304
0.00378912 	-1.41264e-06 	-0.000439535 	0.248168
0.00378912 	2.89778e-05 	-0.000376247 	0.24567
0.0038975 	-1.73015e-06 	-0.000431184 	0.246463
0.0038975 	2.87667e-05 	-0.000368665 	0.24399
0.00400397 	-2.02151e-06 	-0.000422451 	0.244706
0.00400397 	2.8529e-05 	-0.000360617 	0.242257
0.00410857 	2.82646e-05 	-0.000351999 	0.240458
0.00410857 	-2.28663e-06 	-0.000413272 	0.24289
0.00421133 	-2.52536e-06 	-0.000403574 	0.241009
0.00421133 	2.79732e-05 	-0.000342717 	0.238583
0.00431227 	-2.7382e-06 	-0.000393276 	0.239055
0.00431227 	2.76525e-05 	-0.000332707 	0.236623
0.00441144 	-2.9265e-06 	-0.000382312 	0.237023
0.00441144 	2.7299e-05 	-0.000321926 	0.234576
0.00450886 	-3.09193e-06 	-0.000370651 	0.234906
0.00450886 	2.69087e-05 	-0.000310379 	0.232437
0.00460456 	-3.23593e-06 	-0.000358291 	0.232699
0.00460456 	2.6478e-05 	-0.000298102 	0.230203
0.00469858 	-3.35961e-06 	-0.000345246 	0.230397
0.00469858 	2.60033e-05 	-0.000285142 	0.227869
0.00479094 	-3.4639e-06 	-0.000331542 	0.227994
0.00479094 	2.54811e-05 	-0.00027155 	0.225431
0.00488168 	-3.54973e-06 	-0.000317207 	0.225488
0.00488168 	2.49079e-05 	-0.000257385 	0.222886
0.00497081 	-3.61806e-06 	-0.00030228 	0.222872
0.00497081 	2.42806e-05 	-0.000242709 	0.220228
0.00505838 	-3.6699e-06 	-0.000286813 	0.220144
0.00505838 	2.3596e-05 	-0.000227598 	0.217455
0.0051444 	-3.70625e-06 	-0.00027087 	0.217298
0.0051444 	2.28517e-05 	-0.000212137 	0.214562
0.00522891 	-3.72808e-06 	-0.000254533 	0.214332
0.00522891 	2.20455e-05 	-0.00019643 	0.211547
0.00531193 	-3.73632e-06 	-0.000237901 	0.211242
0.00531193 	2.11759e-05 	-0.000180594 	0.208408
0.00539348 	-3.73185e-06 	-0.000221085 	0.208026
0.00539348 	2.02424e-05 	-0.000164762 	0.205142
0.0054736 	-3.71548e-06 	-0.000204209 	0.204679
0.0054736 	1.92449e-05 	-0.000149074 	0.201747
0.00555231 	-3.68796e-06 	-0.000187406 	0.201199
0.00555231 	1.81841e-05 	-0.000133675 	0.198222
0.00562963 	-3.64999e-06 	-0.00017081 	0.197581
0.00562963 	1.70614e-05 	-0.000118706 	0.194564
0.00570559 	-3.60222e-06 	-0.000154553 	0.193822
0.00570559 	1.58786e-05 	-0.0001043 	0.190771
0.00578022 	-3.54524e-06 	-0.00013876 	0.189916
0.00578022 	1.46383e-05 	-9.05767e-05 	0.186837
0.00585352 	-3.47957e-06 	-0.000123547 	0.185857
0.00585352 	1.33436e-05 	-7.76401e-05 	0.18276
0.00592554 	-3.40572e-06 	-0.000109019 	0.18164
0.00592554 	1.19984e-05 	-6.55738e-05 	0.178532
0.00599629 	-3.32406e-06 	-9.52634e-05 	0.177256
0.00599629 	1.06072e-05 	-5.44413e-05 	0.174148
0.00606579 	-3.23484e-06 	-8.23544e-05 	0.172697
0.00606579 	9.17558e-06 	-4.42853e-05 	0.169598
0.00613406 	-3.13813e-06 	-7.03548e-05 	0.167951
0.00613406 	7.70961e-06 	-3.51305e-05 	0.164871
0.00620114 	6.21588e-06 	-2.69848e-05 	0.15995
0.00620114 	-3.034e-06 	-5.9313e-05 	0.163002
0.00626703 	-2.92279e-06 	-4.92658e-05 	0.157833
0.00626703 	4.70216e-06 	-1.98455e-05 	0.154819
0.00633176 	3.17848e-06 	-1.37003e-05 	0.149461
0.00633176 	-2.80518e-06 	-4.02423e-05 	0.152427
0.00639535 	1.65727e-06 	-8.52052e-06 	0.143862
0.00639535 	-2.68186e-06 	-3.22547e-05 	0.146768
0.00645783 	-2.55332e-06 	-2.52946e-05 	0.140842
0.00645783 	1.53128e-07 	-4.26057e-06 	0.138005
0.0065192 	-2.42003e-06 	-1.93376e-05 	0.134629
0.0065192 	-1.31694e-06 	-8.62279e-07 	0.131872
0.00657949 	-2.28255e-06 	-1.4346e-05 	0.128114
0.00657949 	-2.73322e-06 	1.74178e-06 	0.125445
0.00663871 	-2.14115e-06 	-1.02687e-05 	0.12128
0.00663871 	-4.07296e-06 	3.62582e-06 	0.118709
0.0066969 	-1.99567e-06 	-7.02762e-06 	0.114108
0.0066969 	-5.31158e-06 	4.87492e-06 	0.11164
0.00675406 	-6.42446e-06 	5.57852e-06 	0.104205
0.00675406 	-1.8463e-06 	-4.53001e-06 	0.106566
0.00681021 	-7.38443e-06 	5.82545e-06 	0.0963765
0.00681021 	-1.69495e-06 	-2.67616e-06 	0.0986216
0.00686537 	-8.15891e-06 	5.70546e-06 	0.0881695
0.00686537 	-1.54603e-06 	-1.36977e-06 	0.090282
0.00691956 	-8.71366e-06 	5.30847e-06 	0.0796504
0.00691956 	-1.40485e-06 	-5.24648e-07 	0.0816118
0.0069728 	-9.01917e-06 	4.72512e-06 	0.0709367
0.0069728 	-1.27547e-06 	-4.41907e-08 	0.072728
0.0070251 	-1.15983e-06 	1.72035e-07 	0.0637988
0.0070251 	-9.05736e-06 	4.04085e-06 	0.0621931
0.00707647 	-1.05719e-06 	2.1957e-07 	0.0550245
0.00707647 	-8.82757e-06 	3.32956e-06 	0.0536136
0.00712695 	-9.63917e-07 	1.80191e-07 	0.0466025
0.00712695 	-8.3481e-06 	2.64892e-06 	0.0453869
0.00717653 	-8.74317e-07 	1.13751e-07 	0.0386894
0.00717653 	-7.652e-06 	2.03676e-06 	0.0376619
0.00722524 	-7.8171e-07 	5.61031e-08 	0.0313779
0.00722524 	-6.77885e-06 	1.51241e-06 	0.0305268
0.00727309 	-5.76663e-06 	1.08012e-06 	0.0240128
0.00727309 	-6.78125e-07 	2.21988e-08 	0.0247006
0.0073201 	-4.64584e-06 	7.32684e-07 	0.0181119
0.0073201 	-5.50427e-07 	1.08018e-08 	0.0186487
0.00736628 	-3.43431e-06 	4.68939e-07 	0.012796
0.00736628 	-3.70321e-07 	1.89345e-08 	0.013193
0.00741165 	-1.41754e-07 	1.98497e-08 	0.00829607
0.00741165 	-2.18644e-06 	2.53535e-07 	0.00802909
0.00745622 	2.52522e-08 	1.58394e-08 	0.00391814
0.00745622 	-1.02097e-06 	1.00942e-07 	0.00377247
0.0075 	0 	0 	0
0.0075 	0 	0 	0
