-0.0075 	0 	0 	0
-0.0075 	-1.16354e-35 	-1.70813e-36 	1.85791e-31
-0.00745622 	-9.55777e-07 	-1.40312e-07 	0.0152616
-0.00745622 	-9.55777e-07 	-1.40312e-07 	0.0152616
-0.00741165 	-1.54777e-06 	-5.95845e-07 	0.02971
-0.00741165 	-1.54777e-06 	-5.95845e-07 	0.02971
-0.00736628 	-2.04805e-06 	-1.4142e-06 	0.0434427
-0.00736628 	-2.04805e-06 	-1.4142e-06 	0.0434427
-0.0073201 	-2.57445e-06 	-2.63078e-06 	0.0564843
-0.0073201 	-2.57445e-06 	-2.63078e-06 	0.0564843
-0.00727309 	-3.10822e-06 	-4.24403e-06 	0.0688609
-0.00727309 	-3.10822e-06 	-4.24403e-06 	0.0688609
-0.00722524 	-3.61981e-06 	-6.2686e-06 	0.0805963
-0.00722524 	-3.61981e-06 	-6.2686e-06 	0.0805963
-0.00717653 	-4.0991e-06 	-8.7162e-06 	0.0917034
-0.00717653 	-4.0991e-06 	-8.7162e-06 	0.0917034
-0.00712695 	-4.54257e-06 	-1.16067e-05 	0.102173
-0.00712695 	-4.54257e-06 	-1.16067e-05 	0.102173
-0.00707647 	-4.94848e-06 	-1.49757e-05 	0.111979
-0.00707647 	-4.94848e-06 	-1.49757e-05 	0.111979
-0.0070251 	-5.31544e-06 	-1.88796e-05 	0.121096
-0.0070251 	-5.31544e-06 	-1.88796e-05 	0.121096
-0.0069728 	-5.64242e-06 	-2.33903e-05 	0.129518
-0.0069728 	-5.64242e-06 	-2.33903e-05 	0.129518
-0.00691956 	-5.92894e-06 	-2.85818e-05 	0.137262
-0.00691956 	-5.92894e-06 	-2.85818e-05 	0.137262
-0.00686537 	-6.17531e-06 	-3.45206e-05 	0.144368
-0.00686537 	-6.17531e-06 	-3.45206e-05 	0.144368
-0.00681021 	-6.38263e-06 	-4.12696e-05 	0.150889
-0.00681021 	-6.38263e-06 	-4.12696e-05 	0.150889
-0.00675406 	-6.55255e-06 	-4.88973e-05 	0.156886
-0.00675406 	-6.55255e-06 	-4.88973e-05 	0.156886
-0.0066969 	-6.68673e-06 	-5.74663e-05 	0.162414
-0.0066969 	-6.68673e-06 	-5.74663e-05 	0.162414
-0.00663871 	-6.78687e-06 	-6.70206e-05 	0.167519
-0.00663871 	-6.78687e-06 	-6.70206e-05 	0.167519
-0.00657949 	-6.85512e-06 	-7.75672e-05 	0.172243
-0.00657949 	-6.85512e-06 	-7.75672e-05 	0.172243
-0.0065192 	-6.89403e-06 	-8.90741e-05 	0.176628
-0.0065192 	-6.89403e-06 	-8.90741e-05 	0.176628
-0.00645783 	-6.90622e-06 	-0.000101494 	0.180716
-0.00645783 	-6.90622e-06 	-0.000101494 	0.180716
-0.00639535 	-6.89406e-06 	-0.000114776 	0.184547
-0.00639535 	-6.89406e-06 	-0.000114776 	0.184547
-0.00633176 	-6.85961e-06 	-0.000128867 	0.188151
-0.00633176 	-6.85961e-06 	-0.000128867 	0.188151
-0.00626703 	-6.80472e-06 	-0.000143714 	0.191555
-0.00626703 	-6.80472e-06 	-0.000143714 	0.191555
-0.00620114 	-6.73109e-06 	-0.000159258 	0.194783
-0.00620114 	-6.73109e-06 	-0.000159258 	0.194783
-0.00613406 	-6.64024e-06 	-0.000175442 	0.197856
-0.00613406 	-6.64024e-06 	-0.000175442 	0.197856
-0.00606579 	-6.53359e-06 	-0.000192203 	0.20079
-0.00606579 	-6.53359e-06 	-0.000192203 	0.20079
-0.00599629 	-6.4125e-06 	-0.000209476 	0.203603
-0.00599629 	-6.4125e-06 	-0.000209476 	0.203603
-0.00592554 	-6.2782e-06 	-0.000227193 	0.20631
-0.00592554 	-6.2782e-06 	-0.000227193 	0.20631
-0.00585352 	-6.13153e-06 	-0.000245278 	0.208926
-0.00585352 	-6.13153e-06 	-0.000245278 	0.208926
-0.00578022 	-5.97295e-06 	-0.000263646 	0.211463
-0.00578022 	-5.97295e-06 	-0.000263646 	0.211463
-0.00570559 	-5.80278e-06 	-0.000282194 	0.213931
-0.00570559 	-5.80278e-06 	-0.000282194 	0.213931
-0.00562963 	-5.62134e-06 	-0.000300823 	0.216339
-0.00562963 	-5.62134e-06 	-0.000300823 	0.216339
-0.00555231 	-5.42891e-06 	-0.000319429 	0.218693
-0.00555231 	-5.42891e-06 	-0.000319429 	0.218693
-0.0054736 	-5.22572e-06 	-0.00033791 	0.221
-0.0054736 	-5.22572e-06 	-0.00033791 	0.221
-0.00539348 	-5.01191e-06 	-0.000356159 	0.223263
-0.00539348 	-5.01191e-06 	-0.000356159 	0.223263
-0.00531193 	-4.78758e-06 	-0.000374073 	0.225486
-0.00531193 	-4.78758e-06 	-0.000374073 	0.225486
-0.00522891 	-4.55274e-06 	-0.000391545 	0.227672
-0.00522891 	-4.55274e-06 	-0.000391545 	0.227672
-0.0051444 	-4.30735e-06 	-0.000408473 	0.229824
-0.0051444 	-4.30735e-06 	-0.000408473 	0.229824
-0.00505838 	-4.05132e-06 	-0.000424758 	0.231942
-0.00505838 	-4.05132e-06 	-0.000424758 	0.231942
-0.00497081 	-3.78446e-06 	-0.000440305 	0.234028
-0.00497081 	-3.78446e-06 	-0.000440305 	0.234028
-0.00488168 	-3.50655e-06 	-0.000455025 	0.236081
-0.00488168 	-3.50655e-06 	-0.000455025 	0.236081
-0.00479094 	-3.2173e-06 	-0.000468831 	0.238101
-0.00479094 	-3.2173e-06 	-0.000468831 	0.238101
-0.00469858 	-2.91642e-06 	-0.000481642 	0.240086
-0.00469858 	-2.91642e-06 	-0.000481642 	0.240086
-0.00460456 	-2.60355e-06 	-0.000493386 	0.242034
-0.00460456 	-2.60355e-06 	-0.000493386 	0.242034
-0.00450886 	-2.27827e-06 	-0.000504009 	0.243945
-0.00450886 	-2.27827e-06 	-0.000504009 	0.243945
-0.00441144 	-1.93997e-06 	-0.000513493 	0.245817
-0.00441144 	-1.93997e-06 	-0.000513493 	0.245817
-0.00431227 	-1.58792e-06 	-0.000521847 	0.247647
-0.00431227 	-1.58792e-06 	-0.000521847 	0.247647
-0.00421133 	-1.2212e-06 	-0.000529113 	0.249434
-0.00421133 	-1.2212e-06 	-0.000529113 	0.249434
-0.00410857 	-8.38903e-07 	-0.000535351 	0.251175
-0.00410857 	-8.38903e-07 	-0.000535351 	0.251175
-0.00400397 	-4.40572e-07 	-0.000540639 	0.252869
-0.00400397 	-4.40572e-07 	-0.000540639 	0.252869
-0.0038975 	-2.63652e-08 	-0.000545068 	0.254514
-0.0038975 	-2.63652e-08 	-0.000545068 	0.254514
-0.00378912 	4.03549e-07 	-0.000548725 	0.256113
-0.00378912 	4.03549e-07 	-0.000548725 	0.256113
-0.00367879 	8.49617e-07 	-0.000551683 	0.257668
-0.00367879 	8.49617e-07 	-0.000551683 	0.257668
-0.00356649 	1.3126e-06 	-0.000554005 	0.259179
-0.00356649 	1.3126e-06 	-0.000554005 	0.259179
-0.00345217 	1.7927e-06 	-0.000555747 	0.260644
-0.00345217 	1.7927e-06 	-0.000555747 	0.260644
-0.0033358 	2.28934e-06 	-0.00055697 	0.26206
-0.0033358 	2.28934e-06 	-0.00055697 	0.26206
-0.00321735 	2.80154e-06 	-0.000557739 	0.263426
-0.00321735 	2.80154e-06 	-0.000557739 	0.263426
-0.00309677 	3.32808e-06 	-0.000558126 	0.264739
-0.00309677 	3.32808e-06 	-0.000558126 	0.264739
-0.00297403 	3.86746e-06 	-0.000558204 	0.265995
-0.00297403 	3.86746e-06 	-0.000558204 	0.265995
-0.00284909 	4.41788e-06 	-0.000558055 	0.267193
-0.00284909 	4.41788e-06 	-0.000558055 	0.267193
-0.0027219 	4.97722e-06 	-0.000557757 	0.26833
-0.0027219 	4.97722e-06 	-0.000557757 	0.26833
-0.00259244 	5.54314e-06 	-0.00055739 	0.269403
-0.00259244 	5.54314e-06 	-0.00055739 	0.269403
-0.00246065 	6.11309e-06 	-0.000557027 	0.270409
-0.00246065 	6.11309e-06 	-0.000557027 	0.270409
-0.00232651 	6.68413e-06 	-0.000556734 	0.271346
-0.00232651 	6.68413e-06 	-0.000556734 	0.271346
-0.00218995 	7.25298e-06 	-0.000556566 	0.272213
-0.00218995 	7.25298e-06 	-0.000556566 	0.272213
-0.00205095 	7.81602e-06 	-0.000556563 	0.273006
-0.00205095 	7.81602e-06 	-0.000556563 	0.273006
-0.00190946 	8.36908e-06 	-0.000556753 	0.273725
-0.00190946 	8.36908e-06 	-0.000556753 	0.273725
-0.00176543 	8.90726e-06 	-0.000557148 	0.274369
-0.00176543 	8.90726e-06 	-0.000557148 	0.274369
-0.00161881 	9.4249e-06 	-0.00055774 	0.274936
-0.00161881 	9.4249e-06 	-0.00055774 	0.274936
-0.00146957 	9.91581e-06 	-0.000558501 	0.275428
-0.00146957 	9.91581e-06 	-0.000558501 	0.275428
-0.00131765 	1.03736e-05 	-0.000559389 	0.275844
-0.00131765 	1.03736e-05 	-0.000559389 	0.275844
-0.001163 	1.07915e-05 	-0.000560349 	0.276184
-0.001163 	1.07915e-05 	-0.000560349 	0.276184
-0.00100559 	1.11622e-05 	-0.00056132 	0.276448
-0.00100559 	1.11622e-05 	-0.00056132 	0.276448
-0.000845345 	1.1477e-05 	-0.000562264 	0.276635
-0.000845345 	1.1477e-05 	-0.000562264 	0.276635
-0.000682232 	1.17257e-05 	-0.0005631 	0.276744
-0.000682232 	1.17257e-05 	-0.0005631 	0.276744
-0.000516194 	1.1897e-05 	-0.00056374 	0.276775
-0.000516194 	1.1897e-05 	-0.00056374 	0.276775
-0.000347178 	1.19787e-05 	-0.000564163 	0.276724
-0.000347178 	1.19787e-05 	-0.000564163 	0.276724
-0.000175132 	1.19606e-05 	-0.000564241 	0.276588
-0.000175132 	1.19606e-05 	-0.000564241 	0.276588
0 	1.18365e-05 	-0.000563957 	0.276367
0 	1.18365e-05 	-0.000563957 	0.276367
0 	1.18365e-05 	-0.000563957 	0.276367
0 	1.18365e-05 	-0.000563957 	0.276367
0.000175132 	1.16061e-05 	-0.000563345 	0.276062
0.000175132 	1.19852e-05 	-0.000463948 	0.272563
0.000347178 	1.12792e-05 	-0.000562316 	0.275679
0.000347178 	1.32424e-05 	-0.000464804 	0.272252
0.000516194 	1.08684e-05 	-0.000560937 	0.275224
0.000516194 	1.43221e-05 	-0.000465419 	0.27186
0.000682232 	1.0386e-05 	-0.000559207 	0.274701
0.000682232 	1.52378e-05 	-0.000465763 	0.271394
0.000845345 	9.84684e-06 	-0.000557082 	0.274113
0.000845345 	1.60051e-05 	-0.000465655 	0.270857
0.00100559 	9.26384e-06 	-0.000554609 	0.273463
0.00100559 	1.66387e-05 	-0.000465183 	0.270254
0.001163 	8.64836e-06 	-0.000551805 	0.272753
0.001163 	1.71526e-05 	-0.000464353 	0.269587
0.00131765 	8.01025e-06 	-0.000548689 	0.271986
0.00131765 	1.75597e-05 	-0.000463173 	0.268861
0.00146957 	7.358e-06 	-0.000545278 	0.271165
0.00146957 	1.78711e-05 	-0.000461655 	0.268076
0.00161881 	6.69886e-06 	-0.000541588 	0.270291
0.00161881 	1.8097e-05 	-0.000459808 	0.267236
0.00176543 	6.03893e-06 	-0.000537631 	0.269366
0.00176543 	1.82459e-05 	-0.000457644 	0.266343
0.00190946 	5.38332e-06 	-0.000533417 	0.268391
0.00190946 	1.83255e-05 	-0.00045517 	0.265398
0.00205095 	4.73622e-06 	-0.000528956 	0.267368
0.00205095 	1.83425e-05 	-0.000452391 	0.264403
0.00218995 	4.10103e-06 	-0.000524252 	0.266298
0.00218995 	1.83025e-05 	-0.000449311 	0.263359
0.00232651 	3.48057e-06 	-0.00051931 	0.265181
0.00232651 	1.82107e-05 	-0.000445934 	0.262267
0.00246065 	2.87709e-06 	-0.000514131 	0.264019
0.00246065 	1.80714e-05 	-0.000442259 	0.261129
0.00259244 	2.29242e-06 	-0.000508715 	0.262811
0.00259244 	1.78881e-05 	-0.000438285 	0.259944
0.0027219 	1.72793e-06 	-0.00050306 	0.261559
0.0027219 	1.76641e-05 	-0.000434008 	0.258714
0.00284909 	1.18464e-06 	-0.000497162 	0.260263
0.00284909 	1.74019e-05 	-0.000429422 	0.257439
0.00297403 	6.63281e-07 	-0.000491016 	0.258923
0.00297403 	1.71038e-05 	-0.000424519 	0.256119
0.00309677 	1.64339e-07 	-0.000484615 	0.257539
0.00309677 	1.67718e-05 	-0.000419288 	0.254755
0.00321735 	-3.11905e-07 	-0.000477951 	0.25611
0.00321735 	1.64077e-05 	-0.000413718 	0.253346
0.0033358 	-7.65316e-07 	-0.000471017 	0.254636
0.0033358 	1.60131e-05 	-0.000407799 	0.251891
0.00345217 	1.55895e-05 	-0.000401526 	0.250391
0.00345217 	-1.19587e-06 	-0.000463808 	0.253117
0.00356649 	-1.60361e-06 	-0.000456316 	0.251551
0.00356649 	1.51384e-05 	-0.000394895 	0.248844
0.00367879 	-1.98867e-06 	-0.00044853 	0.249939
0.00367879 	1.46618e-05 	-0.000387896 	0.247249
0.00378912 	-2.3512e-06 	-0.000440432 	0.248278
0.00378912 	1.41628e-05 	-0.000380512 	0.245609
0.0038975 	-2.69133e-06 	-0.000431996 	0.246568
0.0038975 	1.36446e-05 	-0.000372717 	0.243921
0.00400397 	-3.00925e-06 	-0.000423178 	0.244803
0.00400397 	1.31102e-05 	-0.00036445 	0.242178
0.00410857 	1.2562e-05 	-0.000355608 	0.240367
0.00410857 	-3.30549e-06 	-0.00041391 	0.242979
0.00421133 	-3.5811e-06 	-0.000404115 	0.241089
0.00421133 	1.20004e-05 	-0.000346094 	0.238479
0.00431227 	-3.83733e-06 	-0.000393713 	0.239127
0.00431227 	1.14249e-05 	-0.000335843 	0.236508
0.00441144 	-4.07501e-06 	-0.000382643 	0.237085
0.00441144 	1.08344e-05 	-0.000324819 	0.234448
0.00450886 	-4.29446e-06 	-0.000370878 	0.234958
0.00450886 	1.02283e-05 	-0.000313033 	0.232297
0.00460456 	-4.49596e-06 	-0.000358417 	0.232741
0.00460456 	9.60614e-06 	-0.000300524 	0.230051
0.00469858 	-4.67993e-06 	-0.000345278 	0.230428
0.00469858 	8.96787e-06 	-0.000287338 	0.227705
0.00479094 	-4.84687e-06 	-0.000331482 	0.228015
0.00479094 	8.31353e-06 	-0.000273526 	0.225255
0.00488168 	-4.99732e-06 	-0.000317061 	0.225498
0.00488168 	7.64332e-06 	-0.000259146 	0.222697
0.00497081 	-5.1318e-06 	-0.000302052 	0.222872
0.00497081 	6.95757e-06 	-0.000244262 	0.220026
0.00505838 	-5.25081e-06 	-0.000286509 	0.220133
0.00505838 	6.25679e-06 	-0.00022895 	0.21724
0.0051444 	-5.35487e-06 	-0.000270499 	0.217278
0.0051444 	5.54162e-06 	-0.000213299 	0.214335
0.00522891 	-5.44442e-06 	-0.000254105 	0.214302
0.00522891 	4.81297e-06 	-0.000197413 	0.211307
0.00531193 	-5.5199e-06 	-0.000237427 	0.211202
0.00531193 	4.07195e-06 	-0.000181414 	0.208156
0.00539348 	-5.5817e-06 	-0.000220579 	0.207976
0.00539348 	3.31991e-06 	-0.000165436 	0.204877
0.0054736 	-5.63017e-06 	-0.000203685 	0.204619
0.0054736 	2.55834e-06 	-0.000149621 	0.201471
0.00555231 	-5.6656e-06 	-0.000186878 	0.20113
0.00555231 	1.78893e-06 	-0.000134114 	0.197934
0.00562963 	-5.68821e-06 	-0.000170292 	0.197503
0.00562963 	1.01346e-06 	-0.000119056 	0.194265
0.00570559 	-5.69817e-06 	-0.000154057 	0.193734
0.00570559 	2.33845e-07 	-0.000104579 	0.190461
0.00578022 	-5.69558e-06 	-0.000138298 	0.189819
0.00578022 	-5.47895e-07 	-9.08016e-05 	0.186517
0.00585352 	-5.68046e-06 	-0.000123129 	0.185752
0.00585352 	-1.3296e-06 	-7.78244e-05 	0.182429
0.00592554 	-5.65277e-06 	-0.000108651 	0.181527
0.00592554 	-2.10897e-06 	-6.57295e-05 	0.178191
0.00599629 	-5.61244e-06 	-9.49506e-05 	0.177135
0.00599629 	-2.88352e-06 	-5.45781e-05 	0.173798
0.00606579 	-5.55943e-06 	-8.21011e-05 	0.172567
0.00606579 	-3.65057e-06 	-4.44122e-05 	0.169239
0.00613406 	-5.49366e-06 	-7.01629e-05 	0.167813
0.00613406 	-4.40729e-06 	-3.52546e-05 	0.164504
0.00620114 	-5.15065e-06 	-2.71115e-05 	0.159574
0.00620114 	-5.41494e-06 	-5.91829e-05 	0.162856
0.00626703 	-5.32282e-06 	-4.91971e-05 	0.157678
0.00626703 	-5.87711e-06 	-1.9979e-05 	0.154435
0.00633176 	-6.58207e-06 	-1.38427e-05 	0.14907
0.00633176 	-5.21685e-06 	-4.02332e-05 	0.152264
0.00639535 	-7.25993e-06 	-8.6721e-06 	0.143465
0.00639535 	-5.09671e-06 	-3.23013e-05 	0.146599
0.00645783 	-4.96218e-06 	-2.53909e-05 	0.140666
0.00645783 	-7.90418e-06 	-4.42005e-06 	0.137604
0.0065192 	-4.81303e-06 	-1.94763e-05 	0.134449
0.0065192 	-8.50721e-06 	-1.02706e-06 	0.131468
0.00657949 	-4.6491e-06 	-1.45184e-05 	0.127931
0.00657949 	-9.06011e-06 	1.57549e-06 	0.125042
0.00663871 	-4.47054e-06 	-1.0465e-05 	0.121095
0.00663871 	-9.55269e-06 	3.46291e-06 	0.118307
0.0066969 	-4.27788e-06 	-7.23729e-06 	0.113923
0.0066969 	-9.97339e-06 	4.72078e-06 	0.111244
0.00675406 	-1.03093e-05 	5.43947e-06 	0.103815
0.00675406 	-4.07112e-06 	-4.74203e-06 	0.106382
0.00681021 	-1.05449e-05 	5.70961e-06 	0.0959969
0.00681021 	-3.84943e-06 	-2.87854e-06 	0.0984408
0.00686537 	-1.06616e-05 	5.62126e-06 	0.0878078
0.00686537 	-3.61229e-06 	-1.55082e-06 	0.0901101
0.00691956 	-1.06398e-05 	5.26224e-06 	0.0793158
0.00691956 	-3.3601e-06 	-6.74176e-07 	0.0814554
0.0069728 	-1.04625e-05 	4.71896e-06 	0.0706385
0.0069728 	-3.09402e-06 	-1.55778e-07 	0.0725942
0.0070251 	-2.81546e-06 	1.0001e-07 	0.0636938
0.0070251 	-1.01192e-05 	4.07195e-06 	0.0619398
0.00707647 	-2.5259e-06 	1.84105e-07 	0.054952
0.00707647 	-9.60846e-06 	3.3907e-06 	0.0534102
0.00712695 	-2.22711e-06 	1.73496e-07 	0.0465627
0.00712695 	-8.93925e-06 	2.72874e-06 	0.0452342
0.00717653 	-1.92154e-06 	1.24393e-07 	0.0386786
0.00717653 	-8.12892e-06 	2.12129e-06 	0.037556
0.00722524 	-1.61302e-06 	7.04329e-08 	0.03139
0.00722524 	-7.19898e-06 	1.58634e-06 	0.0304607
0.00727309 	-6.17163e-06 	1.12977e-06 	0.0239779
0.00727309 	-1.30776e-06 	2.70573e-08 	0.0247281
0.0073201 	-5.06907e-06 	7.52082e-07 	0.0180992
0.0073201 	-1.01689e-06 	-7.54974e-10 	0.0186839
0.00736628 	-3.91636e-06 	4.46969e-07 	0.0127965
0.00736628 	-7.62211e-07 	-1.81337e-08 	0.0132281
0.00741165 	-5.49434e-07 	-1.85345e-08 	0.00832357
0.00741165 	-2.71422e-06 	2.21619e-07 	0.0080344
0.00745622 	-3.21028e-07 	-1.19934e-08 	0.00393269
0.00745622 	-1.41609e-06 	7.45972e-08 	0.00377623
0.0075 	0 	0 	0
0.0075 	0 	0 	0
