/*--------------------------------*- C++ -*----------------------------------*\
| =========                 |                                                 |
| \\      /  F ield         | OpenFOAM: The Open Source CFD Toolbox           |
|  \\    /   O peration     | Version:  v1912                                 |
|   \\  /    A nd           | Website:  www.openfoam.com                      |
|    \\/     M anipulation  |                                                 |
\*---------------------------------------------------------------------------*/
FoamFile
{
    version     2.0;
    format      ascii;
    class       volScalarField;
    location    "99.2";
    object      p_rgh;
}
// * * * * * * * * * * * * * * * * * * * * * * * * * * * * * * * * * * * * * //

dimensions      [1 -1 -2 0 0 0 0];


internalField   nonuniform List<scalar> 
2528
(
100000
99713.6
99833.1
99715.2
99999.9
99713.9
99833.4
99715.5
99999.8
99714.3
99833.8
99715.9
99999.5
99714.7
99834.2
99716.2
99999.3
99715.1
99834.5
99716.6
99999
99715.5
99834.8
99716.9
99998.8
99715.8
99835
99717.2
99998.4
99716.1
99835.1
99717.5
99998.1
99716.3
99835.1
99717.7
99997.6
99716.6
99835.1
99718
99997.1
99716.8
99835
99718.2
99996.4
99717
99835
99718.4
99995.8
99717.3
99834.8
99718.7
99995
99717.6
99834.7
99719
99994.1
99717.9
99834.5
99719.3
99993.2
99718.2
99834.2
99719.6
99992.1
99718.6
99834
99720
99991
99719
99833.7
99720.4
99989.8
99719.5
99833.4
99720.8
99988.5
99719.9
99833
99721.3
99987.2
99720.5
99832.6
99721.8
99985.7
99721
99832.2
99722.4
99984.1
99721.6
99831.8
99723
99982.4
99722.3
99831.3
99723.7
99980.7
99723
99830.7
99724.4
99978.8
99723.7
99830.2
99725.1
99976.9
99724.5
99829.6
99725.9
99974.9
99725.3
99829
99726.8
99972.7
99726.2
99828.3
99727.7
99970.5
99727.1
99827.6
99728.6
99968.3
99728.1
99826.9
99729.6
99965.9
99729.1
99826.2
99730.7
99963.5
99730.1
99825.4
99731.8
99961.1
99731.2
99824.6
99732.9
99958.6
99732.4
99823.8
99734.1
99956
99733.6
99823
99735.3
99953.4
99734.8
99822.2
99736.6
99950.7
99736.1
99821.3
99737.9
99947.9
99737.4
99820.4
99739.3
99945
99738.8
99819.4
99740.7
99942.1
99740.3
99818.4
99742.1
99939.1
99741.8
99817.3
99743.6
99936
99743.3
99816.2
99745.1
99932.9
99745
99815.1
99746.7
99929.7
99746.6
99814
99748.3
99926.4
99748.4
99812.9
99750
99923.1
99750.2
99811.8
99751.7
99919.8
99752
99810.6
99753.5
99916.4
99753.9
99809.5
99755.4
99912.9
99755.8
99808.3
99757.2
99909.5
99757.7
99807.2
99759
99906.2
99759.5
99806
99760.7
99903.2
99761.4
99804.8
99762.5
99900.3
99763.3
99803.5
99764.2
99897.7
99765.1
99802.3
99765.8
99895
99766.9
99801
99767.5
99892.4
99768.7
99799.7
99769.1
99889.5
99770.4
99798.4
99770.7
99886.3
99772.1
99797
99772.3
99883
99773.8
99795.6
99774.1
99879.7
99775.3
99794.1
99775.8
99876.6
99776.8
99792.6
99777.7
99873.8
99778.3
99791.1
99779.5
99871.3
99779.7
99789.5
99781.2
99869.1
99781
99787.8
99783
99866.8
99782.2
99786.1
99784.6
99864.4
99783.4
99784.4
99786.1
99861.9
99784.5
99782.7
99787.4
99859.3
99785.5
99780.9
99788.4
99856.9
99786.4
99779
99789.5
99854.6
99787.3
99777.2
99790.8
99852.4
99788.2
99775.3
99792.2
99850.2
99788.9
99773.4
99793.6
99848.2
99789.6
99771.5
99794.9
99846.3
99790.3
99769.5
99796.2
99844.4
99790.9
99767.6
99797.4
99842.7
99791.5
99765.7
99798.6
99841
99792
99763.7
99799.8
99839.4
99792.5
99761.8
99801
99736.3
99676.8
99688.5
99685.9
99737.2
99677.9
99689.6
99686.7
99738.1
99679
99690.8
99687.5
99739
99680.1
99691.9
99688.4
99739.9
99681.2
99692.9
99689.2
99740.8
99682.1
99693.9
99690
99741.5
99682.9
99694.6
99690.7
99742.1
99683.5
99695.2
99691.3
99742.5
99684
99695.6
99691.7
99742.9
99684.4
99695.9
99692
99743.1
99684.6
99696.1
99692.2
99743.3
99684.9
99696.2
99692.4
99743.4
99685.1
99696.3
99692.6
99743.5
99685.2
99696.4
99692.8
99743.6
99685.4
99696.5
99692.9
99743.7
99685.5
99696.5
99693
99743.8
99685.7
99696.5
99693.2
99743.8
99685.8
99696.5
99693.3
99743.8
99686
99696.5
99693.4
99743.8
99686.1
99696.5
99693.5
99743.9
99686.2
99696.5
99693.7
99743.9
99686.4
99696.4
99693.8
99743.8
99686.5
99696.4
99694
99743.8
99686.7
99696.3
99694.1
99743.8
99686.8
99696.3
99694.3
99743.7
99687
99696.2
99694.4
99743.7
99687.2
99696.1
99694.6
99743.6
99687.4
99696
99694.8
99743.6
99687.5
99695.8
99694.9
99743.5
99687.7
99695.7
99695.1
99743.4
99687.9
99695.6
99695.3
99743.3
99688.1
99695.4
99695.5
99743.2
99688.3
99695.2
99695.7
99743.1
99688.5
99695.1
99696
99743
99688.7
99694.9
99696.2
99742.9
99689
99694.7
99696.4
99742.8
99689.2
99694.5
99696.7
99742.7
99689.4
99694.3
99696.9
99742.5
99689.7
99694.1
99697.2
99742.4
99690
99693.9
99697.5
99742.3
99690.2
99693.7
99697.7
99742.1
99690.5
99693.5
99698
99742
99690.8
99693.3
99698.3
99741.8
99691.1
99693
99698.6
99741.6
99691.4
99692.7
99698.9
99741.4
99691.7
99692.5
99699.2
99741.3
99692
99692.2
99699.4
99741.1
99692.3
99691.9
99699.7
99740.9
99692.7
99691.6
99699.9
99740.7
99693
99691.4
99700.2
99740.5
99693.4
99691.3
99700.5
99740.3
99693.7
99691.2
99700.9
99740
99694.1
99691.1
99701.2
99739.8
99694.5
99690.9
99701.6
99739.6
99694.9
99690.6
99702
99739.4
99695.3
99690.3
99702.3
99739.1
99695.7
99690
99702.7
99738.9
99696.1
99689.7
99703.1
99738.7
99696.5
99689.4
99703.4
99738.5
99696.9
99689.2
99703.8
99738.4
99697.4
99688.9
99704.2
99738.3
99697.8
99688.6
99704.6
99738.1
99698.3
99688.3
99704.9
99737.9
99698.8
99688.1
99705.3
99737.6
99699.3
99687.8
99705.7
99737.3
99699.8
99687.5
99706.1
99737.1
99700.3
99687.2
99706.5
99736.8
99700.8
99687
99706.8
99736.5
99701.3
99686.7
99707.2
99736.3
99701.8
99686.5
99707.6
99736.1
99702.3
99686.3
99707.9
99736
99702.8
99686
99708.3
99735.9
99703.4
99685.8
99708.7
99735.7
99703.9
99685.6
99709
99735.4
99704.4
99685.4
99709.4
99735.2
99705
99685.2
99709.7
99734.9
99705.5
99685
99710.1
99734.6
99706
99684.8
99710.3
99734.4
99706.5
99684.7
99710.5
99566.8
99538.3
99557.9
99542.6
99568.1
99540.2
99559.8
99544.2
99569.5
99542.1
99561.8
99545.7
99570.9
99544
99563.8
99547.3
99572.3
99545.9
99565.6
99548.8
99573.6
99547.5
99567.3
99550.3
99574.7
99548.8
99568.7
99551.6
99575.6
99549.7
99569.7
99552.6
99576.3
99550.4
99570.4
99553.4
99576.8
99550.9
99570.9
99554
99577.1
99551.3
99571.3
99554.4
99577.4
99551.6
99571.5
99554.8
99577.7
99551.8
99571.7
99555.1
99577.8
99552
99571.9
99555.3
99578
99552.1
99572
99555.5
99578.1
99552.3
99572.1
99555.6
99578.1
99552.4
99572.1
99555.8
99578.2
99552.6
99572.2
99555.9
99578.2
99552.7
99572.2
99556.1
99578.2
99552.8
99572.2
99556.2
99578.2
99553
99572.2
99556.3
99578.2
99553.1
99572.2
99556.5
99578.2
99553.2
99572.2
99556.6
99578.1
99553.4
99572.2
99556.7
99578.1
99553.5
99572.1
99556.9
99578
99553.6
99572.1
99557
99577.9
99553.8
99572.1
99557.2
99577.8
99553.9
99572
99557.3
99577.7
99554.1
99572
99557.5
99577.5
99554.3
99571.9
99557.7
99577.4
99554.5
99571.9
99557.8
99577.2
99554.6
99571.8
99558
99577
99554.8
99571.7
99558.2
99576.9
99555
99571.7
99558.4
99576.6
99555.2
99571.6
99558.6
99576.4
99555.4
99571.5
99558.8
99576.2
99555.6
99571.4
99559
99576
99555.8
99571.4
99559.3
99575.7
99556
99571.3
99559.5
99575.4
99556.3
99571.2
99559.7
99575.2
99556.5
99571.1
99560
99574.9
99556.7
99571.1
99560.2
99574.6
99556.9
99571
99560.5
99574.3
99557.2
99570.9
99560.7
99573.9
99557.4
99570.9
99561
99573.6
99557.6
99570.8
99561.2
99573.3
99557.9
99570.7
99561.5
99573
99558.1
99570.7
99561.7
99572.6
99558.4
99570.6
99562
99572.3
99558.6
99570.5
99562.3
99571.9
99558.8
99570.5
99562.5
99571.6
99559.1
99570.4
99562.8
99571.2
99559.3
99570.4
99563.1
99570.9
99559.5
99570.3
99563.3
99570.6
99559.8
99570.3
99563.6
99570.2
99560
99570.2
99563.9
99569.9
99560.2
99570.2
99564.1
99569.5
99560.4
99570.1
99564.4
99569.2
99560.6
99570.1
99564.6
99568.9
99560.8
99570.1
99564.9
99568.6
99561
99570
99565.1
99568.3
99561.2
99570
99565.3
99568
99561.4
99569.9
99565.6
99567.7
99561.5
99569.9
99565.8
99567.4
99561.7
99569.8
99566
99567.1
99561.8
99569.7
99566.2
99566.9
99562
99569.7
99566.4
99566.6
99562.1
99569.6
99566.6
99566.3
99562.2
99569.6
99566.8
99566.1
99562.4
99569.5
99567
99565.9
99562.5
99569.4
99567.2
99565.7
99562.6
99569.4
99567.3
99565.4
99562.7
99569.4
99567.5
99565.2
99562.8
99569.4
99567.7
99565
99562.9
99569.4
99567.8
99564.9
99563
99569.5
99568
99564.7
99563.1
99569.4
99568.1
99564.5
99563.1
99569.4
99568.3
99564.3
99563.2
99569.4
99568.4
99632.1
99649.2
99615.3
99647
99634.2
99651.6
99617.4
99648.6
99636.2
99654
99619.5
99650.3
99638.3
99656.5
99621.7
99652
99640.4
99658.9
99623.9
99653.8
99642.3
99661.1
99626
99655.4
99644.1
99663
99627.9
99657
99645.6
99664.5
99629.5
99658.4
99646.7
99665.6
99630.8
99659.5
99647.6
99666.5
99631.8
99660.4
99648.2
99667.1
99632.6
99661
99648.8
99667.6
99633.2
99661.6
99649.2
99667.9
99633.7
99662
99649.6
99668.3
99634.1
99662.4
99649.9
99668.5
99634.5
99662.7
99650.2
99668.7
99634.8
99663
99650.5
99668.9
99635.1
99663.2
99650.7
99669.1
99635.4
99663.4
99650.9
99669.2
99635.7
99663.5
99651.1
99669.3
99635.9
99663.7
99651.4
99669.4
99636.1
99663.8
99651.6
99669.5
99636.3
99663.9
99651.7
99669.6
99636.6
99664
99651.9
99669.6
99636.8
99664.1
99652.1
99669.6
99637
99664.1
99652.3
99669.7
99637.1
99664.2
99652.5
99669.7
99637.3
99664.2
99652.7
99669.7
99637.5
99664.2
99652.8
99669.7
99637.7
99664.2
99653
99669.7
99637.9
99664.2
99653.2
99669.6
99638.1
99664.2
99653.4
99669.6
99638.3
99664.1
99653.6
99669.6
99638.5
99664.1
99653.8
99669.5
99638.7
99664
99653.9
99669.4
99638.9
99664
99654.1
99669.4
99639.1
99663.9
99654.3
99669.3
99639.3
99663.8
99654.5
99669.2
99639.5
99663.7
99654.7
99669.1
99639.7
99663.6
99654.9
99669
99639.9
99663.5
99655.1
99668.9
99640.2
99663.4
99655.3
99668.8
99640.4
99663.2
99655.5
99668.6
99640.6
99663.1
99655.8
99668.5
99640.9
99663
99656
99668.4
99641.1
99662.8
99656.2
99668.2
99641.4
99662.6
99656.4
99668.1
99641.6
99662.5
99656.6
99667.9
99641.9
99662.3
99656.8
99667.7
99642.1
99662.1
99657
99667.5
99642.4
99662
99657.2
99667.3
99642.6
99661.8
99657.5
99667.1
99642.9
99661.6
99657.6
99666.9
99643.1
99661.4
99657.8
99666.7
99643.4
99661.2
99658
99666.5
99643.6
99661
99658.2
99666.2
99643.9
99660.8
99658.4
99666
99644.2
99660.6
99658.6
99665.7
99644.4
99660.4
99658.8
99665.4
99644.7
99660.2
99659.1
99665.1
99644.9
99660
99659.3
99664.8
99645.2
99659.8
99659.4
99664.6
99645.4
99659.6
99659.5
99664.3
99645.6
99659.4
99659.7
99664
99645.9
99659.2
99659.9
99663.6
99646.1
99658.9
99660.1
99663.3
99646.4
99658.7
99660.3
99663
99646.6
99658.5
99660.5
99662.7
99646.8
99658.3
99660.7
99662.4
99647
99658
99660.9
99662.1
99647.2
99657.8
99661.1
99661.8
99647.4
99657.6
99661.3
99661.5
99647.7
99657.4
99661.5
99661.2
99647.9
99657.1
99661.7
99660.9
99648
99656.9
99661.8
99660.6
99648.2
99656.7
99662
99660.3
99648.4
99656.4
99662.2
99660
99648.6
99656.3
99662.4
99659.8
99648.8
99656.2
99662.5
99659.5
99648.9
99656.2
99837.9
99792.9
99759.9
99802.2
99836.4
99793.4
99757.9
99803.5
99834.9
99793.9
99756
99804.9
99833.3
99794.5
99754.1
99806.4
99831.7
99795.1
99752.3
99808.1
99830.2
99795.8
99750.5
99809.9
99828.5
99796.5
99748.7
99812
99826.9
99797.2
99746.7
99814.1
99825.2
99798
99744.7
99816.5
99823.4
99798.9
99742.6
99819.1
99821.7
99799.8
99740.2
99821.8
99819.8
99800.8
99737.7
99824.7
99818
99801.8
99735.1
99827.8
99816
99802.9
99732.3
99831
99814
99804.1
99729.5
99834.4
99812
99805.3
99726.5
99838
99809.9
99806.5
99723.5
99841.7
99807.8
99807.8
99720.4
99845.7
99805.5
99809.2
99717.3
99849.5
99803.3
99810.6
99714.1
99853
99800.9
99812
99710.9
99855.6
99798.5
99813.5
99707.7
99857.5
99796.1
99815
99704.6
99859.3
99793.5
99816.5
99701.5
99861.9
99791
99818.1
99698.4
99865.5
99788.6
99819.6
99695.3
99869.7
99786.2
99821.2
99692.3
99873.9
99784
99822.8
99689.4
99877.9
99781.6
99824.5
99686.5
99881.8
99779.2
99826.1
99683.6
99885.6
99776.6
99827.7
99680.9
99889.3
99773.9
99829.3
99678.2
99893
99771.2
99830.9
99675.5
99896.6
99768.4
99832.5
99673
99900.1
99765.7
99834.1
99670.5
99903.5
99763
99835.7
99668.1
99906.8
99760.3
99837.3
99665.8
99910
99757.7
99838.8
99663.6
99913.1
99755.1
99840.3
99661.5
99916.1
99752.5
99841.8
99659.6
99919
99750
99843.3
99657.7
99921.8
99747.6
99844.7
99655.9
99924.5
99745.3
99846.1
99654.2
99927.1
99743
99847.4
99652.6
99929.6
99740.8
99848.7
99651.1
99932
99738.8
99849.9
99649.7
99934.2
99736.8
99851.1
99648.3
99936.4
99734.9
99852.2
99647.1
99938.4
99733.1
99853.3
99646
99940.3
99731.4
99854.3
99644.9
99942.1
99729.8
99855.3
99643.9
99943.7
99728.3
99856.2
99643
99945.3
99726.9
99857.1
99642.2
99946.7
99725.5
99857.8
99641.4
99947.9
99724.3
99858.6
99640.7
99949.1
99723.2
99859.2
99640.1
99950.1
99722.2
99859.8
99639.5
99951.1
99721.2
99860.4
99639
99952
99720.4
99860.9
99638.5
99952.7
99719.6
99861.3
99638.1
99953.4
99718.9
99861.7
99637.8
99954
99718.4
99862.1
99637.4
99954.6
99717.8
99862.4
99637.2
99955.1
99717.4
99862.8
99636.9
99955.6
99717
99863
99636.8
99956
99716.7
99863.3
99636.6
99956.3
99716.4
99863.6
99636.5
99956.7
99716.2
99863.8
99636.5
99957
99716.1
99864.1
99636.5
99957.4
99716.1
99864.4
99636.5
99957.7
99716.1
99864.8
99636.6
99958.1
99716.2
99865.2
99636.7
99958.6
99716.5
99865.6
99636.8
99959
99716.8
99866
99636.9
99959.4
99717.1
99866.4
99637.1
99959.8
99717.4
99866.7
99637.3
99960.2
99717.8
99867.1
99637.5
99960.6
99718.1
99867.4
99637.7
99960.9
99718.5
99867.7
99637.9
99961.2
99734.1
99707
99684.5
99710.7
99733.9
99707.5
99684.3
99710.8
99733.6
99708.1
99684.1
99711
99733.3
99708.6
99683.9
99711.2
99733.1
99709.2
99683.8
99711.6
99732.8
99709.8
99683.6
99711.9
99732.4
99710.4
99683.4
99712.2
99732.1
99711
99683.1
99712.5
99731.8
99711.6
99682.9
99712.7
99731.5
99712.2
99682.7
99713
99731.1
99712.8
99682.5
99713.3
99730.8
99713.4
99682.3
99713.6
99730.4
99714
99682.1
99713.9
99730
99714.6
99681.9
99714.2
99729.7
99715.2
99681.7
99714.4
99729.3
99715.8
99681.4
99714.7
99728.9
99716.4
99681.2
99714.9
99728.6
99717
99681
99715.2
99728.2
99717.6
99680.8
99715.4
99727.8
99718.2
99680.6
99715.6
99727.5
99718.7
99680.4
99715.8
99727.1
99719.3
99680.2
99716
99726.7
99719.9
99680
99716.2
99726.4
99720.4
99679.8
99716.4
99726
99720.9
99679.7
99716.6
99725.6
99721.4
99679.5
99716.8
99725.3
99721.9
99679.3
99717
99725
99722.5
99679.1
99717.2
99724.7
99722.9
99679
99717.3
99724.4
99723.4
99678.8
99717.5
99724.1
99723.8
99678.7
99717.6
99723.8
99724.1
99678.5
99717.7
99723.5
99724.3
99678.4
99717.8
99723.2
99724.6
99678.2
99717.9
99722.9
99725
99678.1
99718
99722.7
99725.4
99678
99718.2
99722.4
99725.7
99677.9
99718.3
99722.2
99726.1
99677.8
99718.5
99722
99726.4
99677.7
99718.6
99721.8
99726.7
99677.6
99718.7
99721.7
99727
99677.5
99718.8
99721.5
99727.3
99677.4
99719
99721.4
99727.5
99677.3
99719.1
99721.2
99727.7
99677.2
99719.2
99721.1
99727.9
99677.2
99719.3
99721
99728.1
99677.1
99719.4
99720.9
99728.3
99677.1
99719.5
99720.8
99728.5
99677
99719.6
99720.7
99728.7
99677
99719.7
99720.6
99728.9
99677
99719.8
99720.5
99729.1
99676.9
99719.9
99720.5
99729.2
99676.9
99720
99720.4
99729.4
99676.9
99720.1
99720.4
99729.6
99676.9
99720.1
99720.3
99729.7
99676.9
99720.2
99720.3
99729.9
99676.9
99720.3
99720.3
99730
99677
99720.4
99720.3
99730.2
99677
99720.5
99720.3
99730.3
99677.1
99720.6
99720.4
99730.5
99677.2
99720.7
99720.4
99730.7
99677.2
99720.8
99720.5
99730.9
99677.3
99720.9
99720.6
99731.1
99677.5
99721.1
99720.7
99731.4
99677.6
99721.2
99720.8
99731.7
99677.8
99721.4
99721
99732.1
99678.1
99721.5
99721.2
99732.6
99678.4
99721.8
99721.5
99733.1
99678.8
99722.1
99721.9
99733.7
99679.3
99722.5
99722.5
99734.3
99679.9
99723
99723.2
99734.9
99680.6
99723.7
99724.1
99735.6
99681.4
99724.5
99725
99736.2
99682.1
99725.5
99725.9
99736.8
99682.9
99726.6
99726.9
99737.5
99683.7
99727.7
99727.9
99738
99684.4
99728.7
99728.8
99738.6
99685.1
99729.8
99729.7
99739.2
99685.8
99730.9
99730.6
99739.8
99686.5
99731.9
99564.2
99563.3
99569.3
99568.5
99564
99563.3
99569.2
99568.7
99563.8
99563.4
99569.2
99568.8
99563.7
99563.5
99569.1
99568.9
99563.5
99563.6
99569
99569.1
99563.3
99563.7
99568.9
99569.3
99563.1
99563.7
99568.8
99569.4
99562.9
99563.8
99568.7
99569.6
99562.7
99563.9
99568.6
99569.8
99562.5
99564
99568.5
99570
99562.2
99564.1
99568.4
99570.2
99562
99564.2
99568.2
99570.5
99561.8
99564.3
99568.1
99570.7
99561.6
99564.4
99568
99571
99561.3
99564.6
99567.8
99571.3
99561.1
99564.7
99567.7
99571.6
99560.8
99564.8
99567.5
99571.9
99560.5
99564.9
99567.4
99572.2
99560.3
99565.1
99567.2
99572.5
99560
99565.2
99567.1
99572.8
99559.7
99565.3
99566.9
99573.1
99559.4
99565.5
99566.8
99573.4
99559.2
99565.6
99566.6
99573.8
99558.9
99565.7
99566.4
99574.1
99558.6
99565.9
99566.2
99574.4
99558.3
99566
99566.1
99574.7
99558
99566.2
99565.9
99575
99557.7
99566.3
99565.7
99575.3
99557.4
99566.5
99565.6
99575.6
99557.1
99566.6
99565.4
99575.9
99556.8
99566.8
99565.3
99576.2
99556.5
99566.9
99565.1
99576.4
99556.2
99567.1
99565
99576.7
99556
99567.2
99564.9
99576.9
99555.7
99567.4
99564.7
99577.2
99555.4
99567.5
99564.6
99577.5
99555.1
99567.7
99564.5
99577.8
99554.8
99567.8
99564.4
99578
99554.6
99567.9
99564.2
99578.3
99554.3
99568.1
99564.1
99578.6
99554.1
99568.2
99564
99578.9
99553.9
99568.4
99563.9
99579.1
99553.6
99568.5
99563.9
99579.4
99553.4
99568.6
99563.8
99579.6
99553.3
99568.8
99563.7
99579.8
99553.1
99568.9
99563.7
99580
99552.9
99569
99563.6
99580.2
99552.8
99569.2
99563.6
99580.5
99552.6
99569.3
99563.5
99580.7
99552.5
99569.4
99563.5
99580.9
99552.4
99569.5
99563.5
99581.1
99552.2
99569.6
99563.5
99581.3
99552.1
99569.8
99563.5
99581.4
99552.1
99569.9
99563.5
99581.6
99552
99570
99563.5
99581.8
99551.9
99570.1
99563.5
99582
99551.9
99570.2
99563.6
99582.2
99551.8
99570.4
99563.7
99582.4
99551.8
99570.5
99563.8
99582.6
99551.8
99570.6
99563.9
99582.8
99551.8
99570.8
99564
99583
99551.9
99570.9
99564.1
99583.2
99551.9
99571.1
99564.3
99583.4
99552
99571.2
99564.6
99583.7
99552.1
99571.4
99564.9
99584
99552.2
99571.7
99565.3
99584.3
99552.4
99572
99565.8
99584.7
99552.7
99572.3
99566.4
99585.3
99553
99572.9
99567.2
99586
99553.5
99573.6
99568.1
99586.9
99554.3
99574.6
99569.2
99588.1
99555.4
99575.9
99570.3
99589.5
99556.9
99577.4
99571.4
99590.9
99558.7
99579
99572.6
99592.4
99560.8
99580.7
99573.7
99593.9
99562.8
99582.4
99574.8
99595.4
99564.9
99584.1
99575.9
99596.8
99566.9
99585.8
99577
99598.2
99568.9
99587.4
99578
99599.6
99662.7
99659.2
99649.1
99656.1
99662.9
99659
99649.3
99655.9
99663.1
99658.7
99649.4
99655.6
99663.3
99658.4
99649.6
99655.4
99663.5
99658.1
99649.8
99655.1
99663.7
99657.8
99650.1
99654.8
99664
99657.5
99650.3
99654.5
99664.2
99657.2
99650.5
99654.2
99664.5
99656.9
99650.8
99653.9
99664.7
99656.6
99651.1
99653.6
99665
99656.3
99651.4
99653.3
99665.3
99656
99651.7
99652.9
99665.6
99655.7
99652
99652.6
99665.9
99655.4
99652.4
99652.3
99666.3
99655.1
99652.8
99651.9
99666.6
99654.8
99653.2
99651.6
99667
99654.5
99653.6
99651.2
99667.3
99654.1
99654
99650.9
99667.7
99653.7
99654.5
99650.6
99668
99653.4
99654.9
99650.2
99668.4
99653
99655.4
99649.9
99668.8
99652.6
99655.9
99649.6
99669.2
99652.3
99656.4
99649.3
99669.6
99651.9
99656.8
99649
99670
99651.5
99657.2
99648.7
99670.4
99651.1
99657.6
99648.3
99670.6
99650.8
99658.1
99648
99670.9
99650.4
99658.6
99647.7
99671.1
99650
99659.2
99647.3
99671.4
99649.6
99659.7
99647
99671.8
99649.3
99660.2
99646.7
99672.3
99649
99660.8
99646.3
99672.7
99648.9
99661.3
99646
99673.2
99648.8
99661.9
99645.6
99673.6
99648.6
99662.4
99645.3
99674
99648.3
99662.9
99644.9
99674.5
99648
99663.4
99644.5
99674.9
99647.7
99663.9
99644.2
99675.3
99647.4
99664.4
99643.9
99675.7
99647.1
99664.8
99643.8
99676.1
99646.8
99665.3
99643.6
99676.5
99646.6
99665.8
99643.4
99676.8
99646.3
99666.2
99643.1
99677.2
99646.1
99666.6
99642.7
99677.5
99645.9
99667.1
99642.4
99677.8
99645.7
99667.5
99642
99678.2
99645.5
99667.8
99641.7
99678.5
99645.3
99668.2
99641.4
99678.8
99645.2
99668.6
99641.2
99679.1
99645
99668.9
99640.9
99679.4
99644.9
99669.2
99640.7
99679.7
99644.8
99669.6
99640.4
99679.9
99644.7
99669.8
99640.2
99680.2
99644.7
99670.1
99640.1
99680.5
99644.6
99670.4
99639.9
99680.7
99644.6
99670.6
99639.7
99681
99644.6
99670.9
99639.6
99681.2
99644.7
99671.1
99639.5
99681.4
99644.7
99671.4
99639.4
99681.7
99644.8
99671.6
99639.4
99681.9
99644.9
99671.8
99639.4
99682.1
99645.1
99672
99639.4
99682.4
99645.3
99672.3
99639.4
99682.6
99645.6
99672.5
99639.5
99682.9
99645.9
99672.9
99639.6
99683.3
99646.4
99673.2
99639.7
99683.7
99647
99673.7
99640
99684.3
99647.9
99674.3
99640.3
99685.1
99648.9
99675.2
99640.8
99686.1
99650.2
99676.4
99641.6
99687.6
99651.7
99677.8
99642.7
99689.5
99653.4
99679.6
99644.3
99691.8
99655.2
99681.6
99646.5
99694.4
99657
99683.8
99649.2
99697
99658.8
99686
99652.1
99699.6
99660.5
99688.2
99655.1
99702.2
99662.3
99690.5
99658.1
99704.7
99664
99692.7
99661.1
99707.2
99665.7
99694.8
99664
)
;

boundaryField
{
    leftWall
    {
        type            fixedFluxPressure;
        gradient        nonuniform List<scalar> 
16
(
-5244.35
-20491.3
-31144.2
-46245.8
-8111.47
-25239.4
-43571.5
-54562.2
-8829.72
-25661.1
-44685.6
-47546.2
-6983.02
-18663.9
-35184.8
-37578.7
)
;
        value           nonuniform List<scalar> 
16
(
99999.9
99735.9
99566.1
99631.1
99713.4
99676.3
99537.4
99648
99832.9
99688
99556.9
99614.3
99715.1
99685.5
99541.8
99646.2
)
;
    }
    rightWall
    {
        type            fixedFluxPressure;
        gradient        nonuniform List<scalar> 
16
(
8345.18
20546.6
45035.5
55343.3
6534.52
12691.7
36746
37916.2
5241.37
15647.3
24272.2
48634.1
6462.28
23303.8
31249.8
66136.2
)
;
        value           nonuniform List<scalar> 
16
(
99718.7
99731.1
99569.9
99708.4
99867.9
99740
99588.2
99666.5
99638
99686.9
99578.6
99695.9
99961.4
99732.4
99600.3
99665.5
)
;
    }
    leftSides_periodic0
    {
        type            cyclic;
    }
    leftSides_periodic1
    {
        type            cyclic;
    }
    rightSides_periodic0
    {
        type            cyclic;
    }
    rightSides_periodic1
    {
        type            cyclic;
    }
    leftInOut_periodic0
    {
        type            cyclic;
    }
    leftInOut_periodic1
    {
        type            cyclic;
    }
    rightInOut_periodic0
    {
        type            cyclic;
    }
    rightInOut_periodic1
    {
        type            cyclic;
    }
}


// ************************************************************************* //
