0 	0 	0 	0
5.01672e-05 	-2.17955e-05 	-4.44573e-06 	0.0203388
0.000100334 	-4.35909e-05 	-8.89145e-06 	0.0406776
0.000150502 	-6.53864e-05 	-1.33372e-05 	0.0610163
0.000200669 	-8.71818e-05 	-1.77829e-05 	0.0813551
0.000250836 	-0.000108977 	-2.22286e-05 	0.101694
0.000301003 	-0.000130773 	-2.66744e-05 	0.122033
0.000351171 	-0.000150584 	-3.18267e-05 	0.140265
0.000401338 	-0.000162891 	-3.96514e-05 	0.150531
0.000451505 	-0.000175198 	-4.7476e-05 	0.160797
0.000501672 	-0.000187505 	-5.53007e-05 	0.171063
0.000551839 	-0.000199811 	-6.31253e-05 	0.181329
0.000602007 	-0.000212118 	-7.095e-05 	0.191595
0.000652174 	-0.000224425 	-7.87746e-05 	0.201861
0.000702341 	-0.000236732 	-8.65992e-05 	0.212128
0.000752508 	-0.000246309 	-9.46519e-05 	0.220963
0.000802676 	-0.000249117 	-0.00010327 	0.226249
0.000852843 	-0.000251925 	-0.000111888 	0.231536
0.00090301 	-0.000254732 	-0.000120505 	0.236822
0.000953177 	-0.00025754 	-0.000129123 	0.242109
0.00100334 	-0.000260348 	-0.000137741 	0.247395
0.00105351 	-0.000263156 	-0.000146359 	0.252682
0.00110368 	-0.000265963 	-0.000154977 	0.257968
0.00115385 	-0.000268771 	-0.000163595 	0.263255
0.00120401 	-0.000271382 	-0.000172172 	0.268436
0.00125418 	-0.000269947 	-0.000179912 	0.27145
0.00130435 	-0.000268511 	-0.000187652 	0.274464
0.00135452 	-0.000267076 	-0.000195392 	0.277478
0.00140468 	-0.000265641 	-0.000203131 	0.280492
0.00145485 	-0.000264206 	-0.000210871 	0.283505
0.00150502 	-0.000262771 	-0.000218611 	0.286519
0.00155518 	-0.000261336 	-0.000226351 	0.289533
0.00160535 	-0.000259901 	-0.000234091 	0.292547
0.00165552 	-0.000258466 	-0.000241831 	0.295561
0.00170569 	-0.000257031 	-0.000249571 	0.298575
0.00175585 	-0.000255343 	-0.000256912 	0.3013
0.00180602 	-0.00025296 	-0.000263155 	0.30323
0.00185619 	-0.000250576 	-0.000269399 	0.305161
0.00190635 	-0.000248193 	-0.000275643 	0.307091
0.00195652 	-0.00024581 	-0.000281887 	0.309022
0.00200669 	-0.000243426 	-0.000288131 	0.310952
0.00205686 	-0.000241043 	-0.000294375 	0.312882
0.00210702 	-0.00023866 	-0.000300619 	0.314813
0.00215719 	-0.000236276 	-0.000306862 	0.316743
0.00220736 	-0.000233893 	-0.000313106 	0.318674
0.00225753 	-0.00023151 	-0.00031935 	0.320604
0.00230769 	-0.000229126 	-0.000325594 	0.322534
0.00235786 	-0.000226743 	-0.000331838 	0.324465
0.00240803 	-0.000224595 	-0.000336929 	0.325963
0.00245819 	-0.000222553 	-0.000341507 	0.327267
0.00250836 	-0.00022051 	-0.000346085 	0.328572
0.00255853 	-0.000218467 	-0.000350662 	0.329877
0.0026087 	-0.000216424 	-0.00035524 	0.331181
0.00265886 	-0.000214381 	-0.000359818 	0.332486
0.00270903 	-0.000212339 	-0.000364395 	0.333791
0.0027592 	-0.000210296 	-0.000368973 	0.335095
0.00280936 	-0.000208253 	-0.000373551 	0.3364
0.00285953 	-0.00020621 	-0.000378128 	0.337705
0.0029097 	-0.000204167 	-0.000382706 	0.33901
0.00295987 	-0.000202125 	-0.000387284 	0.340314
0.00301003 	-0.000200082 	-0.000391861 	0.341619
0.0030602 	-0.000198039 	-0.000396439 	0.342924
0.00311037 	-0.00019601 	-0.000400987 	0.344219
0.00316054 	-0.000194579 	-0.000404227 	0.345095
0.0032107 	-0.000193148 	-0.000407468 	0.345972
0.00326087 	-0.000191717 	-0.000410708 	0.346848
0.00331104 	-0.000190286 	-0.000413949 	0.347725
0.0033612 	-0.000188854 	-0.000417189 	0.348601
0.00341137 	-0.000187423 	-0.00042043 	0.349478
0.00346154 	-0.000185992 	-0.00042367 	0.350354
0.00351171 	-0.000184561 	-0.000426911 	0.351231
0.00356187 	-0.00018313 	-0.000430151 	0.352108
0.00361204 	-0.000181699 	-0.000433392 	0.352984
0.00366221 	-0.000180268 	-0.000436632 	0.353861
0.00371237 	-0.000178836 	-0.000439873 	0.354737
0.00376254 	-0.000177405 	-0.000443113 	0.355614
0.00381271 	-0.000175974 	-0.000446354 	0.35649
0.00386288 	-0.000174543 	-0.000449594 	0.357367
0.00391304 	-0.000173112 	-0.000452835 	0.358243
0.00396321 	-0.000171681 	-0.000456075 	0.35912
0.00401338 	-0.000170649 	-0.000458474 	0.359699
0.00406355 	-0.000169657 	-0.000460789 	0.360249
0.00411371 	-0.000168665 	-0.000463105 	0.360798
0.00416388 	-0.000167672 	-0.00046542 	0.361348
0.00421405 	-0.00016668 	-0.000467736 	0.361898
0.00426421 	-0.000165688 	-0.000470051 	0.362448
0.00431438 	-0.000164695 	-0.000472367 	0.362998
0.00436455 	-0.000163703 	-0.000474683 	0.363547
0.00441472 	-0.00016271 	-0.000476998 	0.364097
0.00446488 	-0.000161718 	-0.000479314 	0.364647
0.00451505 	-0.000160726 	-0.000481629 	0.365197
0.00456522 	-0.000159733 	-0.000483945 	0.365747
0.00461538 	-0.000158741 	-0.00048626 	0.366296
0.00466555 	-0.000157749 	-0.000488576 	0.366846
0.00471572 	-0.000156756 	-0.000490891 	0.367396
0.00476589 	-0.000155764 	-0.000493207 	0.367946
0.00481605 	-0.000154772 	-0.000495523 	0.368495
0.00486622 	-0.000153779 	-0.000497838 	0.369045
0.00491639 	-0.000152787 	-0.000500154 	0.369595
0.00496656 	-0.000151795 	-0.000502469 	0.370145
0.00501672 	-0.000151007 	-0.000504068 	0.370445
0.00506689 	-0.000150231 	-0.000505628 	0.370733
0.00511706 	-0.000149455 	-0.000507188 	0.37102
0.00516722 	-0.000148679 	-0.000508748 	0.371307
0.00521739 	-0.000147902 	-0.000510308 	0.371595
0.00526756 	-0.000147126 	-0.000511868 	0.371882
0.00531773 	-0.00014635 	-0.000513428 	0.372169
0.00536789 	-0.000145574 	-0.000514989 	0.372456
0.00541806 	-0.000144797 	-0.000516549 	0.372744
0.00546823 	-0.000144021 	-0.000518109 	0.373031
0.00551839 	-0.000143245 	-0.000519669 	0.373318
0.00556856 	-0.000142468 	-0.000521229 	0.373606
0.00561873 	-0.000141692 	-0.000522789 	0.373893
0.0056689 	-0.000140916 	-0.000524349 	0.37418
0.00571906 	-0.00014014 	-0.000525909 	0.374467
0.00576923 	-0.000139363 	-0.000527469 	0.374755
0.0058194 	-0.000138587 	-0.00052903 	0.375042
0.00586957 	-0.000137811 	-0.00053059 	0.375329
0.00591973 	-0.000137035 	-0.00053215 	0.375617
0.0059699 	-0.000136258 	-0.00053371 	0.375904
0.00602007 	-0.000135482 	-0.00053527 	0.376191
0.00607023 	-0.000134706 	-0.00053683 	0.376478
0.0061204 	-0.00013393 	-0.00053839 	0.376766
0.00617057 	-0.00013325 	-0.000539436 	0.376907
0.00622074 	-0.00013262 	-0.000540221 	0.376974
0.0062709 	-0.00013199 	-0.000541006 	0.377041
0.00632107 	-0.00013136 	-0.000541792 	0.377108
0.00637124 	-0.000130729 	-0.000542577 	0.377175
0.0064214 	-0.000130099 	-0.000543362 	0.377242
0.00647157 	-0.000129469 	-0.000544147 	0.377309
0.00652174 	-0.000128839 	-0.000544932 	0.377376
0.00657191 	-0.000128208 	-0.000545717 	0.377443
0.00662207 	-0.000127578 	-0.000546502 	0.37751
0.00667224 	-0.000126948 	-0.000547287 	0.377577
0.00672241 	-0.000126318 	-0.000548072 	0.377644
0.00677258 	-0.000125688 	-0.000548857 	0.377711
0.00682274 	-0.000125057 	-0.000549642 	0.377778
0.00687291 	-0.000124427 	-0.000550428 	0.377845
0.00692308 	-0.000123797 	-0.000551213 	0.377912
0.00697324 	-0.000123167 	-0.000551998 	0.377979
0.00702341 	-0.000122536 	-0.000552783 	0.378046
0.00707358 	-0.000121906 	-0.000553568 	0.378113
0.00712375 	-0.000121276 	-0.000554353 	0.37818
0.00717391 	-0.000120646 	-0.000555138 	0.378247
0.00722408 	-0.000120016 	-0.000555923 	0.378314
0.00727425 	-0.000119385 	-0.000556708 	0.378381
0.00732441 	-0.000118755 	-0.000557493 	0.378448
0.00737458 	-0.000118125 	-0.000558279 	0.378515
0.00742475 	-0.000117495 	-0.000559064 	0.378582
0.00747492 	-0.000116864 	-0.000559849 	0.378649
0.00752508 	-0.000116292 	-0.00056025 	0.378617
0.00757525 	-0.000115776 	-0.000560266 	0.378486
0.00762542 	-0.000115261 	-0.000560283 	0.378355
0.00767559 	-0.000114745 	-0.000560299 	0.378223
0.00772575 	-0.00011423 	-0.000560316 	0.378092
0.00777592 	-0.000113714 	-0.000560333 	0.377961
0.00782609 	-0.000113199 	-0.000560349 	0.37783
0.00787625 	-0.000112683 	-0.000560366 	0.377699
0.00792642 	-0.000112168 	-0.000560383 	0.377568
0.00797659 	-0.000111652 	-0.000560399 	0.377436
0.00802676 	-0.000111137 	-0.000560416 	0.377305
0.00807692 	-0.000110621 	-0.000560432 	0.377174
0.00812709 	-0.000110106 	-0.000560449 	0.377043
0.00817726 	-0.00010959 	-0.000560466 	0.376912
0.00822742 	-0.000109075 	-0.000560482 	0.376781
0.00827759 	-0.00010856 	-0.000560499 	0.376649
0.00832776 	-0.000108044 	-0.000560515 	0.376518
0.00837793 	-0.000107529 	-0.000560532 	0.376387
0.00842809 	-0.000107013 	-0.000560549 	0.376256
0.00847826 	-0.000106498 	-0.000560565 	0.376125
0.00852843 	-0.000105982 	-0.000560582 	0.375994
0.0085786 	-0.000105467 	-0.000560599 	0.375862
0.00862876 	-0.000104951 	-0.000560615 	0.375731
0.00867893 	-0.000104436 	-0.000560632 	0.3756
0.0087291 	-0.00010392 	-0.000560648 	0.375469
0.00877926 	-0.000103405 	-0.000560665 	0.375338
0.00882943 	-0.000102889 	-0.000560682 	0.375206
0.0088796 	-0.000102427 	-0.000560382 	0.374995
0.00892977 	-0.000102071 	-0.000559459 	0.374624
0.00897993 	-0.000101715 	-0.000558536 	0.374253
0.0090301 	-0.000101359 	-0.000557613 	0.373882
0.00908027 	-0.000101002 	-0.00055669 	0.373511
0.00913043 	-0.000100646 	-0.000555767 	0.37314
0.0091806 	-0.00010029 	-0.000554844 	0.372769
0.00923077 	-9.99338e-05 	-0.000553921 	0.372398
0.00928094 	-9.95775e-05 	-0.000552998 	0.372027
0.0093311 	-9.92213e-05 	-0.000552075 	0.371656
0.00938127 	-9.8865e-05 	-0.000551152 	0.371285
0.00943144 	-9.85088e-05 	-0.000550229 	0.370914
0.00948161 	-9.81525e-05 	-0.000549307 	0.370543
0.00953177 	-9.77963e-05 	-0.000548384 	0.370172
0.00958194 	-9.744e-05 	-0.000547461 	0.369801
0.00963211 	-9.70838e-05 	-0.000546538 	0.36943
0.00968227 	-9.67276e-05 	-0.000545615 	0.369059
0.00973244 	-9.63713e-05 	-0.000544692 	0.368688
0.00978261 	-9.60151e-05 	-0.000543769 	0.368317
0.00983278 	-9.56588e-05 	-0.000542846 	0.367946
0.00988294 	-9.53026e-05 	-0.000541923 	0.367575
0.00993311 	-9.49463e-05 	-0.000541 	0.367204
0.00998328 	-9.45901e-05 	-0.000540077 	0.366833
0.0100334 	-9.42513e-05 	-0.000539098 	0.366447
0.0100836 	-9.42383e-05 	-0.000537074 	0.365793
0.0101338 	-9.42252e-05 	-0.00053505 	0.365138
0.0101839 	-9.42122e-05 	-0.000533026 	0.364484
0.0102341 	-9.41992e-05 	-0.000531003 	0.363829
0.0102843 	-9.41862e-05 	-0.000528979 	0.363175
0.0103344 	-9.41732e-05 	-0.000526955 	0.36252
0.0103846 	-9.41601e-05 	-0.000524931 	0.361866
0.0104348 	-9.41471e-05 	-0.000522907 	0.361212
0.0104849 	-9.41341e-05 	-0.000520883 	0.360557
0.0105351 	-9.41211e-05 	-0.000518859 	0.359903
0.0105853 	-9.41081e-05 	-0.000516835 	0.359248
0.0106355 	-9.4095e-05 	-0.000514812 	0.358594
0.0106856 	-9.4082e-05 	-0.000512788 	0.357939
0.0107358 	-9.4069e-05 	-0.000510764 	0.357285
0.010786 	-9.4056e-05 	-0.00050874 	0.35663
0.0108361 	-9.40429e-05 	-0.000506716 	0.355976
0.0108863 	-9.40299e-05 	-0.000504692 	0.355321
0.0109365 	-9.40169e-05 	-0.000502668 	0.354667
0.0109866 	-9.40039e-05 	-0.000500645 	0.354012
0.0110368 	-9.40457e-05 	-0.000498478 	0.353325
0.011087 	-9.46473e-05 	-0.000494861 	0.352304
0.0111371 	-9.52489e-05 	-0.000491244 	0.351282
0.0111873 	-9.58505e-05 	-0.000487627 	0.350261
0.0112375 	-9.64521e-05 	-0.000484011 	0.349239
0.0112876 	-9.70537e-05 	-0.000480394 	0.348218
0.0113378 	-9.76553e-05 	-0.000476777 	0.347196
0.011388 	-9.82569e-05 	-0.00047316 	0.346175
0.0114381 	-9.88585e-05 	-0.000469543 	0.345153
0.0114883 	-9.94601e-05 	-0.000465926 	0.344132
0.0115385 	-0.000100062 	-0.000462309 	0.34311
0.0115886 	-0.000100663 	-0.000458692 	0.342089
0.0116388 	-0.000101265 	-0.000455075 	0.341067
0.011689 	-0.000101867 	-0.000451458 	0.340046
0.0117391 	-0.000102468 	-0.000447841 	0.339024
0.0117893 	-0.00010307 	-0.000444224 	0.338003
0.0118395 	-0.000103671 	-0.000440607 	0.336981
0.0118896 	-0.000104273 	-0.00043699 	0.33596
0.0119398 	-0.000105744 	-0.000430886 	0.334402
0.01199 	-0.000107235 	-0.000424725 	0.332831
0.0120401 	-0.000108725 	-0.000418563 	0.331261
0.0120903 	-0.000110216 	-0.000412401 	0.32969
0.0121405 	-0.000111707 	-0.00040624 	0.328119
0.0121906 	-0.000113198 	-0.000400078 	0.326549
0.0122408 	-0.000114689 	-0.000393917 	0.324978
0.012291 	-0.00011618 	-0.000387755 	0.323407
0.0123411 	-0.000117671 	-0.000381594 	0.321837
0.0123913 	-0.000119162 	-0.000375432 	0.320266
0.0124415 	-0.000120652 	-0.000369271 	0.318696
0.0124916 	-0.000122143 	-0.000363109 	0.317125
0.0125418 	-0.000123634 	-0.000356948 	0.315554
0.012592 	-0.000125125 	-0.000350786 	0.313984
0.0126421 	-0.000126866 	-0.000343663 	0.312129
0.0126923 	-0.000129167 	-0.000334381 	0.309638
0.0127425 	-0.000131469 	-0.0003251 	0.307147
0.0127926 	-0.00013377 	-0.000315819 	0.304655
0.0128428 	-0.000136072 	-0.000306537 	0.302164
0.012893 	-0.000138373 	-0.000297256 	0.299673
0.0129431 	-0.000140675 	-0.000287974 	0.297181
0.0129933 	-0.000142976 	-0.000278693 	0.29469
0.0130435 	-0.000145277 	-0.000269412 	0.292199
0.0130936 	-0.000147579 	-0.00026013 	0.289707
0.0131438 	-0.00014988 	-0.000250849 	0.287216
0.013194 	-0.000152182 	-0.000241568 	0.284725
0.0132441 	-0.000154483 	-0.000232286 	0.282233
0.0132943 	-0.000156483 	-0.000221413 	0.27853
0.0133445 	-0.000158373 	-0.00020996 	0.274385
0.0133946 	-0.000160263 	-0.000198507 	0.270241
0.0134448 	-0.000162153 	-0.000187055 	0.266096
0.013495 	-0.000164043 	-0.000175602 	0.261951
0.0135452 	-0.000165933 	-0.00016415 	0.257807
0.0135953 	-0.000167823 	-0.000152697 	0.253662
0.0136455 	-0.000169713 	-0.000141245 	0.249518
0.0136957 	-0.000171603 	-0.000129792 	0.245373
0.0137458 	-0.000173493 	-0.00011834 	0.241229
0.013796 	-0.000175383 	-0.000106887 	0.237084
0.0138462 	-0.000173387 	-9.70494e-05 	0.229646
0.0138963 	-0.000171202 	-8.72903e-05 	0.222048
0.0139465 	-0.000169017 	-7.75312e-05 	0.21445
0.0139967 	-0.000166832 	-6.77721e-05 	0.206852
0.0140468 	-0.000164646 	-5.8013e-05 	0.199254
0.014097 	-0.000162461 	-4.82539e-05 	0.191655
0.0141472 	-0.000160276 	-3.84948e-05 	0.184057
0.0141973 	-0.000158091 	-2.87357e-05 	0.176459
0.0142475 	-0.000155906 	-1.89766e-05 	0.168861
0.0142977 	-0.000148488 	-1.38594e-05 	0.158316
0.0143478 	-0.00013896 	-1.06143e-05 	0.146584
0.014398 	-0.000129432 	-7.36929e-06 	0.134851
0.0144482 	-0.000119904 	-4.12422e-06 	0.123119
0.0144983 	-0.000110376 	-8.79161e-07 	0.111386
0.0145485 	-0.000100848 	2.3659e-06 	0.0996534
0.0145987 	-9.13198e-05 	5.61096e-06 	0.0879208
0.0146488 	-8.17919e-05 	8.85603e-06 	0.0761881
0.014699 	-7.05058e-05 	8.42428e-06 	0.0651473
0.0147492 	-5.87548e-05 	7.02023e-06 	0.0542894
0.0147993 	-4.70039e-05 	5.61619e-06 	0.0434315
0.0148495 	-3.52529e-05 	4.21214e-06 	0.0325737
0.0148997 	-2.35019e-05 	2.80809e-06 	0.0217158
0.0149498 	-1.1751e-05 	1.40405e-06 	0.0108579
0.015 	0 	0 	0
