0 	0 	0 	0
5.01672e-05 	0.000377056 	-1.39882e-06 	0.0163756
0.000100334 	0.00176001 	-8.47107e-06 	0.0312923
0.000150502 	0.00322778 	-2.04065e-05 	0.0449766
0.000200669 	0.0042281 	-3.80224e-05 	0.0576097
0.000250836 	0.00482261 	-5.9975e-05 	0.0692922
0.000301003 	0.00515446 	-8.51327e-05 	0.0800788
0.000351171 	0.00530314 	-0.000112311 	0.0900078
0.000401338 	0.0053208 	-0.000140592 	0.0991137
0.000451505 	0.00524453 	-0.000169434 	0.10744
0.000501672 	0.00510152 	-0.00019876 	0.115044
0.000551839 	0.00491186 	-0.00022868 	0.12199
0.000602007 	0.00469067 	-0.000259032 	0.128347
0.000652174 	0.00444961 	-0.0002893 	0.13418
0.000702341 	0.00419764 	-0.000318856 	0.139553
0.000752508 	0.0039415 	-0.000347408 	0.14452
0.000802676 	0.00368629 	-0.000375353 	0.149125
0.000852843 	0.00343734 	-0.00040291 	0.153367
0.00090301 	0.00319673 	-0.00043005 	0.157338
0.000953177 	0.00296622 	-0.000456675 	0.161069
0.00100334 	0.00274716 	-0.00048261 	0.164586
0.00105351 	0.0025406 	-0.00050776 	0.167912
0.00110368 	0.0023476 	-0.000532152 	0.171063
0.00115385 	0.00217346 	-0.000555738 	0.174015
0.00120401 	0.00201435 	-0.000578798 	0.176832
0.00125418 	0.00186999 	-0.000601424 	0.179527
0.00130435 	0.00173989 	-0.000623681 	0.18211
0.00135452 	0.00162753 	-0.000645476 	0.184558
0.00140468 	0.00152846 	-0.000666847 	0.186901
0.00145485 	0.00143885 	-0.000687796 	0.189162
0.00150502 	0.00135741 	-0.000708295 	0.191348
0.00155518 	0.00128568 	-0.000727839 	0.193425
0.00160535 	0.00121861 	-0.000746775 	0.195438
0.00165552 	0.00115556 	-0.000765179 	0.197395
0.00170569 	0.00109757 	-0.000782895 	0.199275
0.00175585 	0.0010436 	-0.000800239 	0.201091
0.00180602 	0.000992413 	-0.000817338 	0.202864
0.00185619 	0.000945281 	-0.000834103 	0.204572
0.00190635 	0.000901608 	-0.000850198 	0.206225
0.00195652 	0.000860047 	-0.000865832 	0.207843
0.00200669 	0.000821997 	-0.00088054 	0.209399
0.00205686 	0.000786202 	-0.000894757 	0.210914
0.00210702 	0.000751898 	-0.000908652 	0.2124
0.00215719 	0.000720801 	-0.000922308 	0.213823
0.00220736 	0.000690854 	-0.000936092 	0.215224
0.00225753 	0.00066275 	-0.000950081 	0.216588
0.00230769 	0.00063688 	-0.000964249 	0.217915
0.00235786 	0.000611989 	-0.000978464 	0.219225
0.00240803 	0.000590309 	-0.000992251 	0.22049
0.00245819 	0.000569836 	-0.00100569 	0.22174
0.00250836 	0.000551811 	-0.00101844 	0.222961
0.00255853 	0.000535967 	-0.00103054 	0.224157
0.0026087 	0.000521672 	-0.00104217 	0.225336
0.00265886 	0.000510219 	-0.00105322 	0.22648
0.00270903 	0.000499441 	-0.00106412 	0.227617
0.0027592 	0.000491797 	-0.00107474 	0.228711
0.00280936 	0.000484591 	-0.00108533 	0.229799
0.00285953 	0.000479706 	-0.00109582 	0.230852
0.0029097 	0.000475525 	-0.00110624 	0.231893
0.00295987 	0.000473121 	-0.00111647 	0.232904
0.00301003 	0.000471592 	-0.00112659 	0.2339
0.0030602 	0.00047151 	-0.00113651 	0.23487
0.00311037 	0.000472413 	-0.00114631 	0.235824
0.00316054 	0.000474595 	-0.00115596 	0.236755
0.0032107 	0.000477818 	-0.0011655 	0.23767
0.00326087 	0.000482274 	-0.00117489 	0.238565
0.00331104 	0.00048775 	-0.0011841 	0.239445
0.0033612 	0.000494493 	-0.00119308 	0.240306
0.00341137 	0.000502114 	-0.00120189 	0.241155
0.00346154 	0.000511066 	-0.00121047 	0.241984
0.00351171 	0.000520657 	-0.00121901 	0.242804
0.00356187 	0.000531653 	-0.00122747 	0.243603
0.00361204 	0.000543011 	-0.00123585 	0.244396
0.00366221 	0.00055591 	-0.00124382 	0.245164
0.00371237 	0.00056886 	-0.00125176 	0.245932
0.00376254 	0.000583482 	-0.00125833 	0.246669
0.00381271 	0.000598104 	-0.00126491 	0.247407
0.00386288 	0.00061375 	-0.00127066 	0.248119
0.00391304 	0.000629604 	-0.00127625 	0.248826
0.00396321 	0.00064578 	-0.00128212 	0.249515
0.00401338 	0.000662179 	-0.0012882 	0.250192
0.00406355 	0.000678636 	-0.00129463 	0.250861
0.00411371 	0.00069522 	-0.00130182 	0.251511
0.00416388 	0.000711805 	-0.001309 	0.25216
0.00421405 	0.000728664 	-0.0013165 	0.252784
0.00426421 	0.000745524 	-0.00132399 	0.253407
0.00431438 	0.000762678 	-0.00133085 	0.254013
0.00436455 	0.000780001 	-0.00133732 	0.25461
0.00441472 	0.000797436 	-0.00134353 	0.2552
0.00446488 	0.000815249 	-0.00134885 	0.25577
0.00451505 	0.000833062 	-0.00135416 	0.25634
0.00456522 	0.000851153 	-0.00135916 	0.256888
0.00461538 	0.000869322 	-0.00136407 	0.25743
0.00466555 	0.00088754 	-0.00136891 	0.257964
0.00471572 	0.000905879 	-0.00137354 	0.258478
0.00476589 	0.000924217 	-0.00137817 	0.258992
0.00481605 	0.000942539 	-0.00138245 	0.259485
0.00486622 	0.000960855 	-0.00138662 	0.25997
0.00491639 	0.000979131 	-0.0013907 	0.26045
0.00496656 	0.000997217 	-0.00139436 	0.260906
0.00501672 	0.0010153 	-0.00139803 	0.261362
0.00506689 	0.00103314 	-0.00140139 	0.261801
0.00511706 	0.00105077 	-0.00140451 	0.262226
0.00516722 	0.0010684 	-0.00140762 	0.262652
0.00521739 	0.00108541 	-0.00141022 	0.26305
0.00526756 	0.00110233 	-0.00141275 	0.263445
0.00531773 	0.00111911 	-0.00141519 	0.263835
0.00536789 	0.00113507 	-0.00141712 	0.264199
0.00541806 	0.00115103 	-0.00141905 	0.264562
0.00546823 	0.00116652 	-0.00142075 	0.264914
0.00551839 	0.00118126 	-0.00142207 	0.265246
0.00556856 	0.001196 	-0.0014234 	0.265578
0.00561873 	0.00120992 	-0.00142439 	0.265892
0.0056689 	0.0012232 	-0.00142511 	0.266193
0.00571906 	0.00123649 	-0.00142583 	0.266494
0.00576923 	0.00124864 	-0.00142613 	0.266774
0.0058194 	0.00126029 	-0.00142624 	0.267044
0.00586957 	0.00127193 	-0.00142635 	0.267314
0.00591973 	0.00128223 	-0.00142599 	0.267561
0.0059699 	0.00129212 	-0.0014255 	0.267801
0.00602007 	0.00130202 	-0.001425 	0.268041
0.00607023 	0.00131049 	-0.00142402 	0.268259
0.0061204 	0.00131859 	-0.00142292 	0.268471
0.00617057 	0.00132669 	-0.00142181 	0.268682
0.00622074 	0.00133345 	-0.00142025 	0.268873
0.0062709 	0.00133979 	-0.00141854 	0.269057
0.00632107 	0.00134613 	-0.00141683 	0.269241
0.00637124 	0.00135131 	-0.00141474 	0.269407
0.0064214 	0.00135595 	-0.00141246 	0.269565
0.00647157 	0.00136059 	-0.00141019 	0.269723
0.00652174 	0.00136431 	-0.00140763 	0.269866
0.00657191 	0.00136726 	-0.00140484 	0.269996
0.00662207 	0.00137021 	-0.00140205 	0.270127
0.00667224 	0.00137257 	-0.00139908 	0.270248
0.00672241 	0.00137384 	-0.00139577 	0.270351
0.00677258 	0.00137512 	-0.00139246 	0.270454
0.00682274 	0.00137625 	-0.00138909 	0.270554
0.00687291 	0.00137607 	-0.0013852 	0.270629
0.00692308 	0.00137589 	-0.00138131 	0.270703
0.00697324 	0.00137571 	-0.00137742 	0.270778
0.00702341 	0.00137468 	-0.00137322 	0.270829
0.00707358 	0.00137342 	-0.00136895 	0.270874
0.00712375 	0.00137217 	-0.00136468 	0.270919
0.00717391 	0.00137046 	-0.0013603 	0.270951
0.00722408 	0.00136812 	-0.00135578 	0.270966
0.00727425 	0.00136578 	-0.00135127 	0.270981
0.00732441 	0.00136344 	-0.00134675 	0.270996
0.00737458 	0.00136038 	-0.00134175 	0.270981
0.00742475 	0.00135732 	-0.00133674 	0.270965
0.00747492 	0.00135426 	-0.00133174 	0.27095
0.00752508 	0.00135111 	-0.00132646 	0.27092
0.00757525 	0.00134789 	-0.0013209 	0.270874
0.00762542 	0.00134468 	-0.00131535 	0.270829
0.00767559 	0.00134145 	-0.00130979 	0.270783
0.00772575 	0.00133775 	-0.00130391 	0.270707
0.00777592 	0.00133405 	-0.00129803 	0.270631
0.00782609 	0.00133034 	-0.00129215 	0.270555
0.00787625 	0.00132642 	-0.00128624 	0.270462
0.00792642 	0.00132234 	-0.00128031 	0.270356
0.00797659 	0.00131825 	-0.00127438 	0.27025
0.00802676 	0.00131418 	-0.00126843 	0.270137
0.00807692 	0.00131014 	-0.00126243 	0.270002
0.00812709 	0.0013061 	-0.00125643 	0.269867
0.00817726 	0.00130206 	-0.00125043 	0.269732
0.00822742 	0.00129794 	-0.00124426 	0.269572
0.00827759 	0.0012938 	-0.00123808 	0.269409
0.00832776 	0.00128967 	-0.00123189 	0.269245
0.00837793 	0.00128535 	-0.00122562 	0.269064
0.00842809 	0.00128092 	-0.00121931 	0.268874
0.00847826 	0.0012765 	-0.00121299 	0.268683
0.00852843 	0.00127187 	-0.00120662 	0.268481
0.0085786 	0.001267 	-0.00120019 	0.268264
0.00862876 	0.00126213 	-0.00119376 	0.268046
0.00867893 	0.00125707 	-0.0011873 	0.267821
0.0087291 	0.00125162 	-0.00118076 	0.267577
0.00877926 	0.00124618 	-0.00117422 	0.267333
0.00882943 	0.00124056 	-0.00116766 	0.267084
0.0088796 	0.00123442 	-0.00116103 	0.266814
0.00892977 	0.00122828 	-0.0011544 	0.266544
0.00897993 	0.00122198 	-0.00114775 	0.266269
0.0090301 	0.00121503 	-0.00114105 	0.265973
0.00908027 	0.00120809 	-0.00113435 	0.265678
0.00913043 	0.00120094 	-0.00112764 	0.265376
0.0091806 	0.0011931 	-0.00112088 	0.265055
0.00923077 	0.00118525 	-0.00111412 	0.264733
0.00928094 	0.00117711 	-0.00110736 	0.264404
0.0093311 	0.00116828 	-0.00110058 	0.264056
0.00938127 	0.00115946 	-0.0010938 	0.263709
0.00943144 	0.00115016 	-0.00108699 	0.263351
0.00948161 	0.00114027 	-0.00108013 	0.262978
0.00953177 	0.00113039 	-0.00107326 	0.262605
0.00958194 	0.0011198 	-0.00106621 	0.262216
0.00963211 	0.00110878 	-0.00105905 	0.261817
0.00968227 	0.00109776 	-0.00105188 	0.261418
0.00973244 	0.00108581 	-0.0010447 	0.260997
0.00978261 	0.00107369 	-0.00103751 	0.260572
0.00983278 	0.00106146 	-0.0010304 	0.260144
0.00988294 	0.00104846 	-0.00102382 	0.259692
0.00993311 	0.00103546 	-0.00101724 	0.25924
0.00998328 	0.00102223 	-0.00101078 	0.258775
0.0100334 	0.0010087 	-0.00100446 	0.258294
0.0100836 	0.000995179 	-0.00099814 	0.257813
0.0101338 	0.000981414 	-0.000991198 	0.257305
0.0101839 	0.000967598 	-0.000984123 	0.256792
0.0102341 	0.000953693 	-0.000976838 	0.25627
0.0102843 	0.000939508 	-0.000968898 	0.255722
0.0103344 	0.000925324 	-0.000960958 	0.255173
0.0103846 	0.000910547 	-0.000952999 	0.2546
0.0104348 	0.000895525 	-0.000945032 	0.254016
0.0104849 	0.000880227 	-0.00093714 	0.253425
0.0105351 	0.000863934 	-0.000929518 	0.252806
0.0105853 	0.000847642 	-0.000921895 	0.252187
0.0106355 	0.000830421 	-0.000914266 	0.251541
0.0106856 	0.000812925 	-0.000906635 	0.250888
0.0107358 	0.000795101 	-0.000898921 	0.250221
0.010786 	0.000776715 	-0.000891066 	0.249533
0.0108361 	0.000758323 	-0.000883209 	0.248844
0.0108863 	0.000739274 	-0.000875148 	0.24812
0.0109365 	0.000720225 	-0.000867086 	0.247395
0.0109866 	0.000700803 	-0.000858883 	0.246645
0.0110368 	0.000681212 	-0.000850615 	0.245884
0.011087 	0.000661415 	-0.000842262 	0.245107
0.0111371 	0.000641321 	-0.000833784 	0.244307
0.0111873 	0.000621138 	-0.000825271 	0.2435
0.0112375 	0.00060052 	-0.000816583 	0.242659
0.0112876 	0.000579903 	-0.000807895 	0.241818
0.0113378 	0.000558723 	-0.000798995 	0.240936
0.011388 	0.000537525 	-0.000790087 	0.240053
0.0114381 	0.000515812 	-0.000780987 	0.239132
0.0114883 	0.000493978 	-0.000771841 	0.238204
0.0115385 	0.000471702 	-0.00076252 	0.237242
0.0115886 	0.000449224 	-0.000753119 	0.236266
0.0116388 	0.000426391 	-0.000743564 	0.23526
0.011689 	0.000403323 	-0.000733908 	0.234234
0.0117391 	0.000379967 	-0.000724108 	0.233179
0.0117893 	0.00035638 	-0.000714192 	0.232101
0.0118395 	0.000332537 	-0.000704124 	0.230995
0.0118896 	0.000308477 	-0.000693928 	0.229864
0.0119398 	0.000284157 	-0.000683563 	0.228702
0.01199 	0.000259637 	-0.000673066 	0.227515
0.0120401 	0.000234824 	-0.000662375 	0.226292
0.0120903 	0.000209834 	-0.000651566 	0.225047
0.0121405 	0.000184481 	-0.000640526 	0.223758
0.0121906 	0.000158985 	-0.000629394 	0.222451
0.0122408 	0.000132996 	-0.00061798 	0.221089
0.012291 	0.000106915 	-0.000606513 	0.219716
0.0123411 	8.01314e-05 	-0.000594693 	0.218272
0.0123913 	5.31864e-05 	-0.000582804 	0.216814
0.0124415 	2.55601e-05 	-0.000570626 	0.215293
0.0124916 	-2.47697e-06 	-0.000558306 	0.213737
0.0125418 	-3.10927e-05 	-0.000545786 	0.212133
0.012592 	-6.04545e-05 	-0.000533048 	0.210468
0.0126421 	-9.01843e-05 	-0.000520203 	0.208772
0.0126923 	-0.000121046 	-0.000507059 	0.206983
0.0127425 	-0.000152288 	-0.000493818 	0.205161
0.0127926 	-0.000184412 	-0.000480358 	0.203263
0.0128428 	-0.000217288 	-0.000466724 	0.201299
0.012893 	-0.000250633 	-0.000452982 	0.199292
0.0129431 	-0.000285213 	-0.000438989 	0.197172
0.0129933 	-0.000320319 	-0.000424903 	0.195004
0.0130435 	-0.000356218 	-0.000410678 	0.192762
0.0130936 	-0.000393284 	-0.000396281 	0.190415
0.0131438 	-0.000431038 	-0.000381797 	0.188005
0.013194 	-0.000469906 	-0.000367183 	0.185495
0.0132441 	-0.000510043 	-0.00035246 	0.182868
0.0132943 	-0.000551033 	-0.00033768 	0.18016
0.0133445 	-0.000593226 	-0.000322838 	0.177334
0.0133946 	-0.000636761 	-0.000307976 	0.174365
0.0134448 	-0.000681201 	-0.000293116 	0.171293
0.013495 	-0.000726614 	-0.000278265 	0.168108
0.0135452 	-0.000773455 	-0.000263477 	0.164732
0.0135953 	-0.000821072 	-0.000248786 	0.161228
0.0136455 	-0.000869428 	-0.000234217 	0.157589
0.0136957 	-0.000918541 	-0.000219836 	0.153779
0.0137458 	-0.000968255 	-0.000205708 	0.149759
0.013796 	-0.00101822 	-0.000191787 	0.145568
0.0138462 	-0.00106825 	-0.000178094 	0.141194
0.0138963 	-0.00111812 	-0.000164657 	0.136626
0.0139465 	-0.00116711 	-0.000151646 	0.131782
0.0139967 	-0.00121459 	-0.00013899 	0.126711
0.0140468 	-0.00125979 	-0.000126715 	0.121403
0.014097 	-0.00130155 	-0.000114896 	0.115845
0.0141472 	-0.00133834 	-0.000103618 	0.11002
0.0141973 	-0.00136815 	-9.29057e-05 	0.103908
0.0142475 	-0.00138682 	-8.27189e-05 	0.0974349
0.0142977 	-0.00139315 	-7.29314e-05 	0.0906408
0.0143478 	-0.00138509 	-6.36219e-05 	0.0835432
0.014398 	-0.00136073 	-5.4887e-05 	0.0761826
0.0144482 	-0.00131862 	-4.6745e-05 	0.0686284
0.0144983 	-0.00125825 	-3.91761e-05 	0.0609794
0.0145485 	-0.00118059 	-3.21839e-05 	0.0533581
0.0145987 	-0.00108788 	-2.57889e-05 	0.0458957
0.0146488 	-0.000982748 	-2.00019e-05 	0.0387121
0.014699 	-0.000866608 	-1.48369e-05 	0.0318979
0.0147492 	-0.000737992 	-1.03131e-05 	0.0255062
0.0147993 	-0.000590309 	-6.47194e-06 	0.0195572
0.0148495 	-0.000407303 	-3.39991e-06 	0.0140441
0.0148997 	-0.000192051 	-1.29357e-06 	0.00894559
0.0149498 	-2.67188e-05 	-1.88768e-07 	0.0042611
0.015 	0 	0 	0
