0 	0 	0 	0
0 	0 	0 	0
0.00752508 	-0.00151522 	0.000280805 	-0.285435
0.00752508 	-0.00151522 	0.000280805 	-0.285435
0.00757525 	-0.00152325 	0.000278339 	-0.285354
0.00762542 	-0.00153128 	0.000275874 	-0.285272
0.00762542 	-0.00153128 	0.000275874 	-0.285272
0.00767559 	-0.00153934 	0.000273406 	-0.28519
0.00772575 	-0.00154986 	0.000270641 	-0.285063
0.00777592 	-0.00156039 	0.000267876 	-0.284936
0.00782609 	-0.00157091 	0.000265112 	-0.284808
0.00782609 	-0.00157091 	0.000265112 	-0.284808
0.00787625 	-0.00158087 	0.000263391 	-0.284653
0.00792642 	-0.00159041 	0.000262428 	-0.284478
0.00797659 	-0.00159996 	0.000261465 	-0.284303
0.00802676 	-0.00160902 	0.000260998 	-0.284116
0.00802676 	-0.00160902 	0.000260998 	-0.284116
0.00807692 	-0.00161626 	0.000262391 	-0.283888
0.00812709 	-0.0016235 	0.000263784 	-0.28366
0.00812709 	-0.0016235 	0.000263784 	-0.28366
0.00817726 	-0.00163075 	0.000265176 	-0.283431
0.00822742 	-0.00163664 	0.000267024 	-0.28316
0.00822742 	-0.00163664 	0.000267024 	-0.28316
0.00827759 	-0.0016424 	0.000268921 	-0.282883
0.00832776 	-0.00164815 	0.000270819 	-0.282607
0.00832776 	-0.00164815 	0.000270819 	-0.282607
0.00837793 	-0.00165396 	0.000272359 	-0.282317
0.00842809 	-0.0016598 	0.000273708 	-0.28202
0.00842809 	-0.0016598 	0.000273708 	-0.28202
0.00847826 	-0.00166565 	0.000275056 	-0.281723
0.00847826 	-0.00166565 	0.000275056 	-0.281723
0.00852843 	-0.00167171 	0.000275977 	-0.281425
0.00852843 	-0.00167171 	0.000275977 	-0.281425
0.0085786 	-0.00167803 	0.000276387 	-0.281128
0.0085786 	-0.00167803 	0.000276387 	-0.281128
0.00862876 	-0.00168436 	0.000276796 	-0.280831
0.00867893 	-0.00169056 	0.000277541 	-0.28053
0.00867893 	-0.00169056 	0.000277541 	-0.28053
0.0087291 	-0.00169651 	0.000279007 	-0.28022
0.00877926 	-0.00170246 	0.000280473 	-0.279911
0.00877926 	-0.00170246 	0.000280473 	-0.279911
0.00882943 	-0.00170803 	0.000282326 	-0.279595
0.0088796 	-0.00171235 	0.000285443 	-0.279256
0.0088796 	-0.00171235 	0.000285443 	-0.279256
0.00897993 	-0.00172048 	0.000291833 	-0.278573
0.00897993 	-0.00172048 	0.000291833 	-0.278573
0.0090301 	-0.00172233 	0.000295711 	-0.278204
0.00908027 	-0.00172417 	0.000299589 	-0.277835
0.00908027 	-0.00172417 	0.000299589 	-0.277835
0.00913043 	-0.00172544 	0.000303537 	-0.27746
0.0091806 	-0.00172475 	0.000307718 	-0.277066
0.0091806 	-0.00172475 	0.000307718 	-0.277066
0.00923077 	-0.00172407 	0.000311899 	-0.276671
0.00928094 	-0.00172264 	0.000316151 	-0.276271
0.00928094 	-0.00172264 	0.000316151 	-0.276271
0.0093311 	-0.00171956 	0.000320563 	-0.275857
0.00938127 	-0.00171647 	0.000324975 	-0.275443
0.00938127 	-0.00171647 	0.000324975 	-0.275443
0.00943144 	-0.00171231 	0.000329581 	-0.275021
0.00943144 	-0.00171231 	0.000329581 	-0.275021
0.00948161 	-0.00170679 	0.000334437 	-0.27459
0.00948161 	-0.00170679 	0.000334437 	-0.27459
0.00953177 	-0.00170127 	0.000339293 	-0.274158
0.00953177 	-0.00170127 	0.000339293 	-0.274158
0.00958194 	-0.00169423 	0.000344522 	-0.273717
0.00958194 	-0.00169423 	0.000344522 	-0.273717
0.00963211 	-0.00168626 	0.000349982 	-0.273268
0.00963211 	-0.00168626 	0.000349982 	-0.273268
0.00968227 	-0.00167829 	0.000355443 	-0.27282
0.00968227 	-0.00167829 	0.000355443 	-0.27282
0.00973244 	-0.00166827 	0.000361322 	-0.272356
0.00978261 	-0.00165788 	0.000367277 	-0.271889
0.00983278 	-0.0016472 	0.00037328 	-0.27142
0.00988294 	-0.00163447 	0.000379627 	-0.270934
0.00988294 	-0.00163447 	0.000379627 	-0.270934
0.00993311 	-0.00162174 	0.000385974 	-0.270449
0.00998328 	-0.001608 	0.00039247 	-0.269954
0.00998328 	-0.001608 	0.00039247 	-0.269954
0.0100334 	-0.00159305 	0.000399147 	-0.269449
0.0100334 	-0.00159305 	0.000399147 	-0.269449
0.0100836 	-0.00157809 	0.000405824 	-0.268944
0.0101338 	-0.0015614 	0.000412735 	-0.268423
0.0101338 	-0.0015614 	0.000412735 	-0.268423
0.0102341 	-0.00152681 	0.00042673 	-0.267369
0.0102341 	-0.00152681 	0.00042673 	-0.267369
0.0102843 	-0.0015078 	0.000433993 	-0.266823
0.0103344 	-0.00148878 	0.000441256 	-0.266278
0.0103344 	-0.00148878 	0.000441256 	-0.266278
0.0103846 	-0.00146847 	0.000448756 	-0.265718
0.0103846 	-0.00146847 	0.000448756 	-0.265718
0.0104348 	-0.00144763 	0.000456354 	-0.265151
0.0104849 	-0.00142642 	0.000464038 	-0.26458
0.0104849 	-0.00142642 	0.000464038 	-0.26458
0.0105351 	-0.00140388 	0.000472029 	-0.263988
0.0105853 	-0.00138135 	0.000480021 	-0.263397
0.0105853 	-0.00138135 	0.000480021 	-0.263397
0.0106355 	-0.00135767 	0.000487934 	-0.262783
0.0106856 	-0.00133366 	0.000495825 	-0.262162
0.0106856 	-0.00133366 	0.000495825 	-0.262162
0.0107358 	-0.00130917 	0.000503225 	-0.261527
0.0107358 	-0.00130917 	0.000503225 	-0.261527
0.010786 	-0.00128386 	0.000509783 	-0.260869
0.010786 	-0.00128386 	0.000509783 	-0.260869
0.0108361 	-0.00125854 	0.000516334 	-0.260211
0.0108361 	-0.00125854 	0.000516334 	-0.260211
0.0108863 	-0.001232 	0.000521951 	-0.259505
0.0109365 	-0.00120547 	0.000527568 	-0.258799
0.0109365 	-0.00120547 	0.000527568 	-0.258799
0.0109866 	-0.00117923 	0.000534372 	-0.258044
0.0109866 	-0.00117923 	0.000534372 	-0.258044
0.0110368 	-0.00115312 	0.000541717 	-0.257267
0.011087 	-0.0011289 	0.000550309 	-0.256447
0.011087 	-0.0011289 	0.000550309 	-0.256447
0.0111371 	-0.00110743 	0.00056071 	-0.255567
0.0111873 	-0.00108717 	0.000571175 	-0.25467
0.0111873 	-0.00108717 	0.000571175 	-0.25467
0.0112375 	-0.0010728 	0.000581952 	-0.253691
0.0112876 	-0.00105844 	0.000592729 	-0.252712
0.0112876 	-0.00105844 	0.000592729 	-0.252712
0.0113378 	-0.00104674 	0.000599915 	-0.251709
0.011388 	-0.00103511 	0.000606991 	-0.250706
0.011388 	-0.00103511 	0.000606991 	-0.250706
0.0114883 	-0.00100314 	0.000613453 	-0.248795
0.0114883 	-0.00100314 	0.000613453 	-0.248795
0.0115385 	-0.000981238 	0.000615594 	-0.247879
0.0115886 	-0.000956861 	0.000617425 	-0.246979
0.0115886 	-0.000956861 	0.000617425 	-0.246979
0.0116388 	-0.000928985 	0.000620229 	-0.246079
0.011689 	-0.000898801 	0.000623675 	-0.245179
0.011689 	-0.000898801 	0.000623675 	-0.245179
0.0117391 	-0.000867144 	0.000628008 	-0.244258
0.0117893 	-0.0008343 	0.000633054 	-0.243319
0.0117893 	-0.0008343 	0.000633054 	-0.243319
0.0118395 	-0.000801103 	0.000638195 	-0.242353
0.0118896 	-0.000767609 	0.000643416 	-0.241362
0.0118896 	-0.000767609 	0.000643416 	-0.241362
0.0119398 	-0.00073432 	0.000647954 	-0.240341
0.0119398 	-0.00073432 	0.000647954 	-0.240341
0.01199 	-0.000701189 	0.000651967 	-0.239297
0.01199 	-0.000701189 	0.000651967 	-0.239297
0.0120401 	-0.000668326 	0.000655032 	-0.238223
0.0120401 	-0.000668326 	0.000655032 	-0.238223
0.0120903 	-0.000635624 	0.000657526 	-0.23713
0.0120903 	-0.000635624 	0.000657526 	-0.23713
0.0121405 	-0.000602569 	0.000659038 	-0.236009
0.0121405 	-0.000602569 	0.000659038 	-0.236009
0.0121906 	-0.000569374 	0.000660161 	-0.234876
0.0121906 	-0.000569374 	0.000660161 	-0.234876
0.0122408 	-0.000534778 	0.000660349 	-0.233713
0.0122408 	-0.000534778 	0.000660349 	-0.233713
0.012291 	-0.000499916 	0.00066036 	-0.232545
0.012291 	-0.000499916 	0.00066036 	-0.232545
0.0123411 	-0.000462802 	0.000659846 	-0.231338
0.0123411 	-0.000462802 	0.000659846 	-0.231338
0.0123913 	-0.000425256 	0.000659283 	-0.230121
0.0123913 	-0.000425256 	0.000659283 	-0.230121
0.0124415 	-0.000385895 	0.000658511 	-0.228866
0.0124916 	-0.00034564 	0.000657497 	-0.227588
0.0124916 	-0.00034564 	0.000657497 	-0.227588
0.012592 	-0.000261088 	0.000654132 	-0.224925
0.012592 	-0.000261088 	0.000654132 	-0.224925
0.0126421 	-0.000217299 	0.000651793 	-0.223554
0.0126923 	-0.000171033 	0.000648357 	-0.222122
0.0126923 	-0.000171033 	0.000648357 	-0.222122
0.0127425 	-0.000123841 	0.00064457 	-0.220669
0.0127425 	-0.000123841 	0.00064457 	-0.220669
0.0127926 	-7.44625e-05 	0.000639974 	-0.219167
0.0128428 	-2.29756e-05 	0.000634728 	-0.21762
0.0128428 	-2.29756e-05 	0.000634728 	-0.21762
0.012893 	2.98279e-05 	0.000629076 	-0.216045
0.0129431 	8.64656e-05 	0.000622373 	-0.214393
0.0129431 	8.64656e-05 	0.000622373 	-0.214393
0.0129933 	0.000144852 	0.000615229 	-0.212708
0.0130435 	0.00020588 	0.000607421 	-0.21097
0.0130435 	0.00020588 	0.000607421 	-0.21097
0.0130936 	0.000270913 	0.000598714 	-0.209157
0.0131438 	0.000338325 	0.000589517 	-0.207299
0.0131438 	0.000338325 	0.000589517 	-0.207299
0.013194 	0.000409603 	0.000579563 	-0.205368
0.0132441 	0.000485444 	0.000568785 	-0.203351
0.0132441 	0.000485444 	0.000568785 	-0.203351
0.0132943 	0.000564491 	0.000557501 	-0.201273
0.0133445 	0.000648225 	0.000545559 	-0.199104
0.0133445 	0.000648225 	0.000545559 	-0.199104
0.0133946 	0.000738007 	0.000532976 	-0.196822
0.0134448 	0.000832678 	0.000519808 	-0.194454
0.0134448 	0.000832678 	0.000519808 	-0.194454
0.013495 	0.00093305 	0.000505925 	-0.19199
0.0135452 	0.00104527 	0.000490678 	-0.189356
0.0135452 	0.00104527 	0.000490678 	-0.189356
0.0136455 	0.00129691 	0.000458004 	-0.183719
0.0136455 	0.00129691 	0.000458004 	-0.183719
0.0136957 	0.00143904 	0.000440715 	-0.180666
0.0137458 	0.00159297 	0.000422941 	-0.177392
0.0137458 	0.00159297 	0.000422941 	-0.177392
0.013796 	0.00175417 	0.000404588 	-0.173932
0.0138462 	0.00192162 	0.000385562 	-0.170267
0.0138462 	0.00192162 	0.000385562 	-0.170267
0.0138963 	0.00209406 	0.000365793 	-0.166374
0.0138963 	0.00209406 	0.000365793 	-0.166374
0.0139465 	0.00226988 	0.000345205 	-0.162143
0.0139967 	0.00244522 	0.000323926 	-0.157616
0.0139967 	0.00244522 	0.000323926 	-0.157616
0.0140468 	0.00261767 	0.000302016 	-0.15277
0.0140468 	0.00261767 	0.000302016 	-0.15277
0.014097 	0.00278476 	0.000279595 	-0.147573
0.0141472 	0.00294388 	0.000256777 	-0.141991
0.0141973 	0.00309214 	0.00023347 	-0.135983
0.0141973 	0.00309214 	0.00023347 	-0.135983
0.0142475 	0.00322228 	0.000209314 	-0.12943
0.0142977 	0.00332916 	0.000184961 	-0.122372
0.0143478 	0.00340277 	0.000161241 	-0.11479
0.0143478 	0.00340277 	0.000161241 	-0.11479
0.014398 	0.00343034 	0.000138642 	-0.106678
0.014398 	0.00343034 	0.000138642 	-0.106678
0.0144482 	0.00339758 	0.000117161 	-0.0980601
0.0144983 	0.00329058 	9.67299e-05 	-0.0890032
0.0144983 	0.00329058 	9.67299e-05 	-0.0890032
0.0145485 	0.00309935 	7.76848e-05 	-0.0796185
0.0145987 	0.00282225 	6.05734e-05 	-0.0700537
0.0145987 	0.00282225 	6.05734e-05 	-0.0700537
0.0146488 	0.0024694 	4.57142e-05 	-0.0604699
0.014699 	0.00206428 	3.32868e-05 	-0.0510119
0.014699 	0.00206428 	3.32868e-05 	-0.0510119
0.0147492 	0.00164531 	2.34204e-05 	-0.041784
0.0147993 	0.00127231 	1.60296e-05 	-0.0328462
0.0147993 	0.00127231 	1.60296e-05 	-0.0328462
0.0148495 	0.00104514 	1.08287e-05 	-0.0242193
0.0148495 	0.00104514 	1.08287e-05 	-0.0242193
0.0148997 	0.000984683 	6.63352e-06 	-0.0158939
0.0148997 	0.000984683 	6.63352e-06 	-0.0158939
0.0149498 	0.000771624 	2.98361e-06 	-0.00784932
0.0149498 	0.000771624 	2.98361e-06 	-0.00784932
0.015 	0 	0 	0
