-0.0075 	373
-0.00715932 	361.502
-0.00676191 	359.71
-0.00629832 	358.989
-0.00575752 	358.541
-0.00512667 	358.187
-0.00439077 	357.867
-0.00353231 	357.555
-0.00253089 	357.234
-0.00136271 	356.885
0 	356.498
0.00136271 	356.075
0.00253089 	355.63
0.00353231 	355.171
0.00439077 	354.683
0.00512667 	354.128
0.00575752 	353.423
0.00629832 	352.38
0.00676191 	350.133
0.00715932 	338.763
0.0075 	313
