/*--------------------------------*- C++ -*----------------------------------*\
| =========                 |                                                 |
| \\      /  F ield         | OpenFOAM: The Open Source CFD Toolbox           |
|  \\    /   O peration     | Version:  v1912                                 |
|   \\  /    A nd           | Website:  www.openfoam.com                      |
|    \\/     M anipulation  |                                                 |
\*---------------------------------------------------------------------------*/
FoamFile
{
    version     2.0;
    format      ascii;
    class       volScalarField;
    location    "97.6";
    object      alphat;
}
// * * * * * * * * * * * * * * * * * * * * * * * * * * * * * * * * * * * * * //

dimensions      [1 -1 -1 0 0 0 0];


internalField   nonuniform List<scalar> 
2528
(
5.54389e-09
4.26474e-09
3.16085e-09
5.18136e-09
1.80838e-08
1.19193e-08
8.18663e-09
1.32701e-08
2.73872e-07
1.69183e-07
1.12545e-07
1.79946e-07
1.98643e-06
1.22408e-06
8.12657e-07
1.28968e-06
8.45441e-06
5.24873e-06
3.48901e-06
5.47202e-06
2.55664e-05
1.6117e-05
1.07625e-05
1.65819e-05
6.07836e-05
3.91923e-05
2.63938e-05
3.97351e-05
0.000120687
8.00452e-05
5.45668e-05
7.99865e-05
0.000208542
0.000142763
9.8782e-05
0.000140792
0.000323499
0.000228762
0.000160902
0.000223094
0.000461603
0.000336728
0.000240782
0.000325416
0.000617457
0.000463459
0.000336575
0.000444693
0.000779299
0.000604966
0.000445399
0.000577213
0.000933238
0.000745486
0.000564009
0.000707082
0.00109087
0.000885233
0.000672284
0.000838432
0.00125202
0.0010296
0.000783583
0.000974173
0.00141526
0.00117873
0.000898582
0.00111402
0.00157921
0.00133171
0.00101657
0.00125684
0.00174276
0.00148771
0.00113684
0.00140163
0.00190505
0.00164601
0.00125881
0.00154735
0.00206555
0.0018061
0.00138203
0.00169307
0.00222393
0.0019678
0.00150622
0.00183799
0.00237933
0.00213115
0.00163129
0.00198148
0.00253044
0.0022952
0.00175738
0.00212307
0.00267772
0.00245675
0.00188488
0.00226245
0.00282122
0.00261731
0.00201413
0.00239925
0.00296117
0.00277699
0.0021441
0.00253239
0.00309844
0.00293553
0.00226895
0.00266139
0.0032344
0.00309286
0.00239225
0.00278706
0.00337016
0.00324985
0.00251513
0.0029097
0.00350566
0.00340904
0.00263885
0.00302928
0.00363985
0.00357478
0.00276577
0.00314533
0.00377204
0.00375223
0.00289907
0.00325707
0.00390313
0.00394527
0.00304146
0.00336367
0.00403557
0.00415372
0.00319334
0.00346461
0.00417297
0.0043704
0.0033516
0.00356022
0.0043201
0.0045803
0.00350978
0.00365214
0.00448179
0.00476483
0.0036601
0.00374294
0.00465849
0.00491065
0.00379715
0.00383394
0.00484069
0.00501723
0.0039214
0.00392239
0.00501075
0.00510009
0.00403888
0.00400132
0.00515563
0.00518723
0.00415755
0.0040645
0.00527723
0.00530429
0.00428513
0.00411519
0.00538603
0.00545751
0.00443094
0.00413613
0.00548798
0.00563075
0.00460921
0.00414758
0.00558119
0.00579626
0.00483796
0.00415346
0.00566071
0.00593321
0.00513065
0.00415538
0.00572319
0.00605209
0.00546081
0.00415438
0.00577065
0.00621399
0.00570431
0.00415059
0.00581241
0.00652021
0.00582668
0.0041439
0.00586371
0.00704382
0.00594267
0.0041341
0.00594069
0.00758331
0.00605138
0.00412103
0.00605244
0.00767908
0.00615194
0.00410446
0.00618591
0.0077687
0.00624331
0.00408412
0.0063017
0.00785458
0.00632452
0.00405979
0.00631587
0.00794015
0.00639482
0.00403141
0.00628899
0.00802815
0.00645315
0.00399914
0.00625249
0.00812036
0.0064989
0.00396352
0.00620705
0.00821672
0.00653192
0.00392557
0.00615376
0.00831589
0.00655248
0.00388706
0.00609312
0.00841672
0.00656127
0.00385054
0.00602401
0.00851791
0.0065593
0.00381944
0.00594483
0.00861746
0.00654769
0.00379787
0.00585442
0.00871212
0.00652812
0.00379032
0.00575219
0.00879369
0.00649909
0.00380088
0.00563827
0.00885409
0.00645912
0.00383214
0.00551388
0.00889289
0.0064086
0.00388209
0.00538165
0.00892335
0.00634987
0.00394537
0.00524591
0.00895109
0.00628578
0.00401517
0.00511259
0.00897539
0.00621958
0.00408516
0.00498747
0.00899517
0.00615518
0.00414989
0.00487162
0.00900884
0.00609667
0.00420274
0.00476269
0.00901422
0.00604792
0.00423647
0.00465796
0.00900836
0.00601282
0.00424552
0.00455449
0.00900284
0.00599561
0.00422546
0.0044487
0.00900017
0.00600114
0.00417297
0.00433621
0.00900137
0.00603514
0.00408584
0.00422185
0.00900972
0.00610405
0.0039631
0.00411307
0.00902805
0.00621562
0.00380528
1.12965e-08
1.41575e-08
1.34042e-08
1.19626e-08
1.60117e-08
2.13611e-08
1.9201e-08
1.68158e-08
1.32421e-07
1.79319e-07
1.68586e-07
1.50925e-07
9.19913e-07
1.2142e-06
1.17538e-06
1.07754e-06
3.92977e-06
5.04079e-06
4.97454e-06
4.66316e-06
1.20477e-05
1.50095e-05
1.49948e-05
1.43401e-05
2.93208e-05
3.54679e-05
3.5688e-05
3.47055e-05
6.02575e-05
7.07836e-05
7.14964e-05
7.04376e-05
0.000108874
0.00012428
0.000125757
0.000125099
0.000177865
0.000197542
0.000200001
0.000200384
0.000268225
0.000290341
0.000293876
0.000296077
0.000379388
0.000401153
0.000405586
0.00041054
0.000509669
0.000527638
0.000532503
0.000541366
0.000656703
0.000666081
0.000671732
0.00068591
0.000817858
0.000804493
0.000820519
0.00084187
0.000990543
0.000952909
0.000967172
0.0010024
0.00117242
0.00111068
0.00111748
0.00116916
0.00136151
0.00127674
0.0012713
0.00134419
0.00155622
0.00144992
0.0014269
0.0015264
0.00175492
0.00162892
0.00158263
0.00171474
0.00195619
0.0018123
0.00173688
0.00190815
0.00215878
0.00199841
0.00188823
0.00210564
0.0023617
0.00218538
0.00203551
0.00230626
0.00256419
0.00237115
0.00217774
0.00250913
0.0027656
0.00255362
0.00231395
0.00271286
0.00296543
0.00273094
0.00244309
0.00291651
0.00316328
0.00290157
0.00256463
0.00312049
0.00335883
0.00306473
0.00267958
0.00332474
0.00354037
0.00322186
0.00279492
0.00352903
0.00369445
0.00337472
0.00292089
0.00373277
0.003847
0.00351844
0.00306248
0.00393512
0.00402353
0.00362659
0.00320425
0.00413555
0.0042318
0.00364442
0.00329961
0.00433344
0.00444905
0.00352873
0.00329069
0.00452795
0.00464723
0.00332707
0.00316362
0.00471786
0.00479879
0.00318561
0.00298426
0.00490326
0.00483097
0.0032624
0.00286554
0.00508445
0.0045998
0.00364841
0.00290989
0.00526047
0.00413521
0.00427057
0.00317328
0.00542996
0.00380385
0.00482469
0.00361057
0.00559105
0.003928
0.00501014
0.00401898
0.00574137
0.00461788
0.00515881
0.00418881
0.00587835
0.00562759
0.00530542
0.00425593
0.0060002
0.00607526
0.00544896
0.00432012
0.00592801
0.00621958
0.00558829
0.00437873
0.00531655
0.00635831
0.00572184
0.00442895
0.00448687
0.00648405
0.00584765
0.00446925
0.00409653
0.0066102
0.0059634
0.00392395
0.00447689
0.00672002
0.00606644
0.00302149
0.00557117
0.00682877
0.00615353
0.00238539
0.00656728
0.00695182
0.00622115
0.00242738
0.00663923
0.00708251
0.00626578
0.00346401
0.00670213
0.00718504
0.00628228
0.00463882
0.00675702
0.00727907
0.00626985
0.00473616
0.00680424
0.00736405
0.00623008
0.00486656
0.00684507
0.00743897
0.00536285
0.00504786
0.0068811
0.00750275
0.00379368
0.00528141
0.00691178
0.00740332
0.00274692
0.00554144
0.00693634
0.00555373
0.00266502
0.00581779
0.00695493
0.00421324
0.0039128
0.00611038
0.0069671
0.00458935
0.00565494
0.00641739
0.00697142
0.00761373
0.00568005
0.00673599
0.0069652
0.00771899
0.00572785
0.00706227
0.00694511
0.00778979
0.00579712
0.00739042
0.00690677
0.00785511
0.00588504
0.00771433
0.00483334
0.00790673
0.00598871
0.0080259
0.00306516
0.00794223
0.00610525
0.00832006
0.00292813
0.00795945
0.00622806
0.0085896
0.0047217
0.0058779
0.00636241
0.00882849
0.00655167
0.00375131
0.00649449
0.00903227
0.00657742
0.00402568
0.00660205
0.00921097
0.00662724
0.0079986
0.0066849
0.00937366
0.00670777
0.00807997
0.0067464
0.00952182
0.00682795
0.00818583
0.00678919
0.00965632
0.00698233
0.00830846
0.00682765
0.00977733
0.0071597
0.00842379
0.00686161
0.00988481
0.0073558
0.00854523
0.00689292
0.00997889
0.00756429
0.00867624
0.00692453
0.00923839
0.00777696
0.00881216
0.00685712
0.00485419
0.00798907
1.3029e-08
1.50823e-08
1.159e-08
8.64425e-09
2.04651e-08
2.28763e-08
1.78797e-08
1.21921e-08
1.69624e-07
1.90222e-07
1.44735e-07
8.84149e-08
1.13981e-06
1.28173e-06
9.69935e-07
5.94997e-07
4.71373e-06
5.28076e-06
4.01519e-06
2.51543e-06
1.40018e-05
1.55373e-05
1.19627e-05
7.70722e-06
3.29871e-05
3.61302e-05
2.83124e-05
1.88509e-05
6.55489e-05
7.07715e-05
5.65839e-05
3.90372e-05
0.000114517
0.000121888
9.94888e-05
7.11489e-05
0.000181205
0.000190272
0.00015845
0.000117313
0.000265523
0.000275308
0.000233569
0.000178621
0.000366451
0.000375423
0.000323926
0.000255154
0.000482539
0.000488678
0.000428012
0.000346229
0.000602152
0.000604179
0.00054072
0.000450699
0.000734028
0.00072824
0.000655969
0.000567232
0.000879676
0.000863159
0.00078019
0.000690479
0.00104009
0.00100916
0.000913831
0.000819143
0.00121607
0.00116646
0.00105665
0.000958285
0.00140835
0.00133536
0.0012083
0.00110793
0.00161668
0.00151601
0.00136837
0.00126799
0.00183775
0.00170774
0.00153634
0.00143841
0.00206583
0.00190803
0.00171158
0.00161905
0.00228869
0.00210212
0.00189331
0.00180979
0.00251926
0.00229469
0.00208056
0.00201041
0.00275682
0.00249128
0.00227227
0.00222027
0.00300057
0.00269139
0.00246728
0.00243779
0.00324962
0.0028945
0.00266451
0.00266062
0.003503
0.00310005
0.00286278
0.00287987
0.00375967
0.00330751
0.00306022
0.00310114
0.00401848
0.00351633
0.00325219
0.00332616
0.00427822
0.00372596
0.00343809
0.00355445
0.00453758
0.00393589
0.00362207
0.00378552
0.00479518
0.00414561
0.00379956
0.00401875
0.0050496
0.00435469
0.00395024
0.0042535
0.00529937
0.00456285
0.00408042
0.00448908
0.00554297
0.00476996
0.00419747
0.00472473
0.00578271
0.0049759
0.00431297
0.00495966
0.00602094
0.0051804
0.00443866
0.00519292
0.00625837
0.00538288
0.00458209
0.00542346
0.00649596
0.00558256
0.00474311
0.00564575
0.00673443
0.00577855
0.00491474
0.0058536
0.00697405
0.0059696
0.0050882
0.00604166
0.0072145
0.00615403
0.00525714
0.00618748
0.00745512
0.00632997
0.00541738
0.00626733
0.00769548
0.00649597
0.00556451
0.0062996
0.00793533
0.00665046
0.00569186
0.00633541
0.00817444
0.00679177
0.00579089
0.00642553
0.00841258
0.00691817
0.00585822
0.00660036
0.00864953
0.00702217
0.00591655
0.0068502
0.00888534
0.00709093
0.00603296
0.00713538
0.00911686
0.0071377
0.00628422
0.00742001
0.0093383
0.00715997
0.00646764
0.0076906
0.00954842
0.00714588
0.00657322
0.00794772
0.00974585
0.00704869
0.00667955
0.00819083
0.0099291
0.00679472
0.00678974
0.00841029
0.0100966
0.00638964
0.00690667
0.00859381
0.0102403
0.00597666
0.00703133
0.00874637
0.0101969
0.00576507
0.00716555
0.00888456
0.0100169
0.00593413
0.00730595
0.00901072
0.00979807
0.00653272
0.00744603
0.00910668
0.00967794
0.00729534
0.00758301
0.00913384
0.00967776
0.00734685
0.00771639
0.00900935
0.0097126
0.00740833
0.00784559
0.00862104
0.00970093
0.00748796
0.00796981
0.00799928
0.00959475
0.00759275
0.00808798
0.00737654
0.00936437
0.00772541
0.0081988
0.0070091
0.00898863
0.00788772
0.00830137
0.00708033
0.00846859
0.00807019
0.00839672
0.00761999
0.00787987
0.00825287
0.00848506
0.00839367
0.00743294
0.00843556
0.00856738
0.00885832
0.00740721
0.00861826
0.00864551
0.0087618
0.00794309
0.008801
0.0087219
0.00864996
0.00893821
0.00898427
0.00879913
0.0085254
0.0096555
0.0091666
0.00887969
0.00839069
0.0094939
0.00934652
0.00896583
0.0082481
0.00932649
0.00952355
0.00905937
0.00809999
0.00914429
0.00969905
0.00916152
0.00794947
0.00894636
0.00987149
0.00927286
0.0077958
0.00873683
0.0100397
0.00925808
0.00763899
3.0852e-09
6.05207e-09
4.3649e-09
3.77009e-09
8.78077e-09
1.73933e-08
1.04304e-08
8.59913e-09
1.25554e-07
2.5047e-07
1.37713e-07
1.10845e-07
9.10887e-07
1.80942e-06
9.94584e-07
8.0053e-07
3.90477e-06
7.67376e-06
4.25859e-06
3.4417e-06
1.19547e-05
2.30309e-05
1.30094e-05
1.05841e-05
2.89134e-05
5.41266e-05
3.13479e-05
2.57415e-05
5.86361e-05
0.000106023
6.3257e-05
5.2557e-05
0.000103785
0.000180759
0.000111324
9.37551e-05
0.000165115
0.000277067
0.00017605
0.000150451
0.00024153
0.000391376
0.00025602
0.00022211
0.000330685
0.000506575
0.000348608
0.000307003
0.000418942
0.000623163
0.000435191
0.000402816
0.000508792
0.000746278
0.000527188
0.000495429
0.000603902
0.000875776
0.000624596
0.000593209
0.000704315
0.001011
0.000727176
0.00069692
0.000809783
0.00115139
0.000834518
0.000806449
0.000920154
0.00129647
0.000946266
0.000921515
0.0010352
0.00144587
0.00106211
0.00104188
0.00115471
0.00159931
0.00118181
0.00116736
0.00127882
0.00175649
0.00130516
0.00129794
0.00140869
0.00191731
0.00143204
0.00143373
0.00154703
0.00208236
0.00156247
0.00157494
0.00169651
0.00225358
0.00169699
0.00172156
0.00185459
0.00243397
0.00183702
0.00187307
0.00200882
0.00262524
0.00198494
0.00202852
0.002143
0.00282313
0.00214211
0.00218656
0.00225873
0.00300929
0.00230315
0.00234557
0.00239601
0.00315851
0.002455
0.00251734
0.00261611
0.00326469
0.00258128
0.00271135
0.00293315
0.00336645
0.00267584
0.0029297
0.00328125
0.00353869
0.00276348
0.00316382
0.00358983
0.00384584
0.00289926
0.00340087
0.00381253
0.00427387
0.00313764
0.00363294
0.0040187
0.00470517
0.00348093
0.0038597
0.0042263
0.00498013
0.00384868
0.00408593
0.00443976
0.00515409
0.00415009
0.00431563
0.00465895
0.00531647
0.00436333
0.00453955
0.00488365
0.00546524
0.0045339
0.00476967
0.00511363
0.00560163
0.00470515
0.00500592
0.00534861
0.00492903
0.0048779
0.00524755
0.00558823
0.00454386
0.00505206
0.00549341
0.00583198
0.00486462
0.00522758
0.00574194
0.00607917
0.00577176
0.00540445
0.00599197
0.00632884
0.00622433
0.00558267
0.00624383
0.00657975
0.00634359
0.00576226
0.00649783
0.00683063
0.00646213
0.00594322
0.00675325
0.00708043
0.00658004
0.00612563
0.00700919
0.0073277
0.00669704
0.00630957
0.00726453
0.00757032
0.00681269
0.00649517
0.00752042
0.00780916
0.00692668
0.00668247
0.00777848
0.00804748
0.00703898
0.00687169
0.00803829
0.00828381
0.00714991
0.00706325
0.00829908
0.00851723
0.00726001
0.0072576
0.00855983
0.00874678
0.00737014
0.00745531
0.00881937
0.00897154
0.00748151
0.00765687
0.00907632
0.00919064
0.00759557
0.00786582
0.00932923
0.00940334
0.00771385
0.00808173
0.00957656
0.00960906
0.00783781
0.00830368
0.00981681
0.0098074
0.0079683
0.00853018
0.0100487
0.00999808
0.00810564
0.00875933
0.0102713
0.0101808
0.00824969
0.00898896
0.0104841
0.0103555
0.00839964
0.0092167
0.0106878
0.010522
0.00855357
0.00944008
0.0108838
0.0106808
0.00870783
0.00965663
0.0110755
0.0108323
0.00886653
0.00986386
0.0112676
0.0109777
0.00904238
0.0100613
0.0114669
0.0111186
0.00922902
0.0102458
0.0116746
0.0112567
0.0094201
0.0104158
0.0118865
0.0113941
0.0096102
0.0105702
0.0120979
0.0115324
0.00979381
0.0107085
0.0123044
0.0116732
0.00996977
0.0108298
0.0125055
0.0118179
0.0101348
0.0109343
0.0127039
0.0119684
0.0102882
0.0110232
0.0129015
0.0121269
0.010417
0.0110981
0.0130999
0.0122967
0.0105213
0.0111606
0.0133002
0.0124805
0.0106018
0.011212
0.0135027
0.0126668
0.0106597
0.011253
0.0137066
0.0128406
0.0106972
0.0112839
0.0139098
0.00401367
0.00905818
0.00637787
0.00361674
0.00392762
0.00910038
0.00658754
0.00340721
0.00385807
0.00915199
0.00682659
0.00319022
0.00380773
0.00921007
0.0070767
0.00297816
0.00377906
0.00927183
0.00732377
0.00277808
0.003774
0.00933507
0.00755753
0.00262024
0.00379353
0.00939801
0.00777071
0.00253725
0.00383735
0.00945901
0.00795828
0.00253198
0.00390562
0.00951573
0.00811678
0.00258769
0.00399793
0.00956562
0.0082441
0.00268003
0.00411106
0.00960627
0.00833887
0.00278854
0.00424218
0.00963598
0.00840201
0.00290836
0.00438855
0.00965392
0.0084366
0.00303618
0.00454706
0.00965982
0.00844537
0.00316797
0.00471426
0.00965374
0.00843066
0.00329908
0.00488657
0.00963588
0.00839452
0.00342603
0.00506042
0.00960648
0.00833887
0.00354665
0.00523252
0.00956573
0.00826563
0.00365975
0.00540057
0.00951368
0.00817614
0.00376474
0.00556258
0.00945031
0.00807088
0.00386142
0.00571557
0.0093756
0.00795243
0.00394975
0.00585653
0.00928955
0.00782239
0.00402985
0.00598286
0.0091922
0.00760203
0.0041017
0.00609254
0.00908362
0.00731272
0.00416517
0.00618404
0.00896389
0.0070156
0.00422053
0.00625603
0.00883302
0.00678337
0.00426956
0.00630776
0.00869088
0.00666349
0.00416366
0.00612947
0.00853724
0.0066431
0.00397857
0.00588944
0.00837198
0.00664364
0.00396405
0.00573051
0.00819453
0.00652973
0.00410339
0.00570894
0.00800633
0.00635774
0.00427826
0.00582607
0.00780876
0.0061799
0.00432211
0.00601729
0.00760283
0.00599495
0.00428235
0.00616838
0.00738928
0.00580382
0.00423
0.00616842
0.00716849
0.00560758
0.00416594
0.0061004
0.00694106
0.00540729
0.00409107
0.00601868
0.00670787
0.00519401
0.00400627
0.00592364
0.0064697
0.00496772
0.00388439
0.00581492
0.00622732
0.00473946
0.00372763
0.00568719
0.00598146
0.00450961
0.0035732
0.00553905
0.00573285
0.00427701
0.00343899
0.0053782
0.00548219
0.00404127
0.00332689
0.00520608
0.00523015
0.0038036
0.00322488
0.00502246
0.00497737
0.0035659
0.00311724
0.00482616
0.00472446
0.00332986
0.00299435
0.00461598
0.004472
0.00309664
0.00285596
0.00439296
0.00422058
0.00286719
0.00270786
0.00416057
0.00397074
0.00264197
0.00255647
0.00392229
0.00372304
0.0024187
0.00240513
0.00368055
0.00344987
0.00220526
0.00225179
0.00343726
0.00316951
0.00200274
0.00208409
0.00319435
0.0028988
0.00181078
0.00191633
0.00295372
0.00263899
0.001629
0.00175605
0.00271682
0.00239167
0.00145726
0.00160389
0.00248353
0.00215751
0.00129552
0.00145899
0.00225503
0.0019361
0.00114379
0.00132018
0.00203472
0.00172698
0.00100206
0.0011867
0.00182339
0.00152979
0.000870286
0.00105831
0.00162133
0.00134426
0.000748364
0.000935082
0.00142882
0.00117023
0.000636119
0.00081729
0.0012462
0.00100764
0.000533168
0.000705329
0.00107388
0.000856491
0.000437249
0.000599817
0.000912286
0.000716869
0.000340508
0.000501254
0.000761835
0.000588342
0.000255974
0.000406613
0.00062271
0.000463344
0.000184637
0.000309759
0.000494546
0.0003432
0.000126971
0.000224931
0.00036245
0.000240664
8.27043e-05
0.000154276
0.000249267
0.000157958
5.07055e-05
9.89855e-05
0.000158539
9.58816e-05
2.90828e-05
5.88531e-05
9.18641e-05
5.32066e-05
1.55023e-05
3.21402e-05
4.78659e-05
2.67013e-05
7.61323e-06
1.59777e-05
2.22e-05
1.19762e-05
3.39993e-06
7.14746e-06
9.06289e-06
4.71894e-06
1.35207e-06
2.82447e-06
3.1831e-06
1.5852e-06
4.62717e-07
9.55159e-07
9.12727e-07
4.30153e-07
1.28739e-07
2.61542e-07
1.91478e-07
8.55484e-08
2.64681e-08
5.26478e-08
2.41619e-08
1.0678e-08
3.59219e-09
6.80899e-09
2.09645e-09
1.20665e-09
6.28588e-10
9.78612e-10
1.02079e-09
8.2609e-10
5.18048e-10
7.58849e-10
0.00894761
0.00455591
0.00405508
0.00818465
0.00907669
0.00472387
0.00532615
0.00836839
0.00919252
0.00647305
0.00869593
0.00855245
0.00928945
0.00707664
0.011215
0.00875436
0.00936274
0.00708073
0.0112782
0.00433197
0.00940994
0.00708452
0.0112865
0.00388924
0.00943022
0.00708595
0.0112484
0.00579621
0.00942412
0.0070827
0.0111722
0.0092878
0.00939357
0.00707417
0.0110652
0.0110072
0.0093414
0.00706052
0.0109364
0.0112308
0.00927084
0.00704181
0.0107949
0.0105427
0.00918523
0.00701776
0.0106442
0.00949877
0.00908769
0.00698793
0.0104848
0.0105602
0.00898086
0.00695185
0.0103171
0.0119099
0.00886692
0.0068932
0.0101415
0.0119879
0.00874756
0.00683445
0.00995817
0.0120274
0.00862403
0.00678441
0.00976734
0.0120276
0.00849718
0.00673039
0.00956914
0.0119881
0.00836758
0.00666597
0.00936363
0.011909
0.00823552
0.00658988
0.00915313
0.0117987
0.00810138
0.00650354
0.00893854
0.0116762
0.00796523
0.00640908
0.00872071
0.0115519
0.00782711
0.00630838
0.00850035
0.011429
0.00768717
0.00620259
0.00827808
0.00814656
0.00754567
0.00609226
0.00805446
0.00626587
0.00740276
0.00597764
0.00782995
0.00615279
0.00725845
0.00585918
0.00760483
0.00741514
0.0071126
0.0057371
0.00737918
0.00927044
0.00696504
0.00561097
0.00715303
0.0104571
0.00681565
0.00548014
0.00692647
0.0107676
0.00666434
0.00534436
0.00669962
0.0106842
0.00651105
0.0052041
0.00647171
0.0104816
0.0063552
0.0050601
0.00624185
0.0102619
0.00619558
0.00491272
0.00601058
0.0100428
0.00603163
0.004763
0.00577905
0.00976888
0.00586372
0.00461552
0.0055481
0.00940103
0.00569225
0.00446614
0.00531829
0.0089969
0.00551756
0.00428694
0.00508929
0.00863765
0.00533998
0.00405999
0.00486017
0.00834491
0.00515971
0.00381528
0.00463049
0.00809011
0.00497687
0.00360016
0.00440023
0.00782685
0.00478838
0.00343441
0.00417063
0.00752518
0.0045923
0.00330415
0.00394266
0.0071851
0.00438982
0.00318241
0.00371262
0.00682594
0.00418292
0.00305073
0.00347156
0.00646853
0.00397017
0.00290639
0.00323143
0.00612474
0.00371279
0.00275615
0.00299431
0.00579675
0.00344455
0.00260689
0.0027628
0.00548126
0.0031819
0.00246115
0.0025379
0.0051738
0.00293837
0.00231673
0.00231394
0.00487106
0.00271741
0.00216399
0.00210224
0.00457138
0.00251503
0.00199342
0.00190621
0.00427434
0.00232356
0.00182678
0.00172547
0.0039801
0.00212939
0.0016685
0.00155823
0.00368892
0.00193763
0.0015186
0.00140246
0.00340108
0.00175391
0.00137585
0.00125651
0.0031168
0.00157917
0.00123909
0.00111915
0.00283607
0.00141301
0.00110763
0.00098956
0.00255941
0.00125479
0.000981182
0.000867282
0.00228882
0.00110404
0.000859836
0.000752113
0.00202573
0.000960614
0.000743969
0.000644075
0.00177151
0.000824687
0.000634105
0.000542919
0.00152764
0.000696708
0.000530001
0.000441608
0.00129558
0.000576978
0.000419412
0.00033983
0.00107248
0.000459472
0.000317714
0.000250405
0.000843915
0.000341107
0.000229131
0.000175383
0.000636049
0.000238987
0.000155914
0.000115896
0.000454075
0.000156212
9.91907e-05
7.17622e-05
0.000303145
9.41469e-05
5.84944e-05
4.1379e-05
0.000186631
5.17377e-05
3.17263e-05
2.20828e-05
0.000104544
2.5649e-05
1.5698e-05
1.08207e-05
5.26738e-05
1.13258e-05
7.00598e-06
4.80715e-06
2.36199e-05
4.3702e-06
2.76741e-06
1.89583e-06
9.28732e-06
1.42784e-06
9.36175e-07
6.4109e-07
3.11288e-06
3.74639e-07
2.56032e-07
1.75447e-07
8.4223e-07
7.18966e-08
5.10416e-08
3.51265e-08
1.6594e-07
8.52683e-09
6.16257e-09
4.30849e-09
1.95617e-08
6.99566e-10
4.79416e-10
3.6277e-10
1.18925e-09
4.15847e-10
2.56051e-10
2.11902e-10
4.23919e-10
0.00852239
0.0102011
0.00884568
0.00748379
0.00831222
0.0103501
0.00887929
0.00733611
0.00810679
0.0104806
0.00929098
0.00719891
0.00790663
0.01059
0.00971533
0.00708086
0.00771566
0.0106767
0.00994909
0.00698601
0.00753776
0.0107403
0.0100408
0.00692338
0.0073755
0.0104522
0.010069
0.0068892
0.00723114
0.0101301
0.0100505
0.00687334
0.0071056
0.00989467
0.00999148
0.00686978
0.00699867
0.00975837
0.00990071
0.00687515
0.00690904
0.00969005
0.00978906
0.00688758
0.00684428
0.00965412
0.0096616
0.00690581
0.00680979
0.00962753
0.00951657
0.00692848
0.00679758
0.00959759
0.00935693
0.00695369
0.00680084
0.00955725
0.00918737
0.00697942
0.00681526
0.0095019
0.00900517
0.00700363
0.00683782
0.0094291
0.00880629
0.00702446
0.00686637
0.00933919
0.00859159
0.00704035
0.00689901
0.00923462
0.00836702
0.00705044
0.0069336
0.00911847
0.008142
0.00705419
0.00696779
0.0089931
0.00792714
0.00696345
0.00668679
0.00886035
0.00773408
0.00657851
0.00628922
0.0087212
0.00757659
0.006062
0.00599638
0.00857533
0.00746341
0.00570647
0.00583413
0.00842179
0.00738722
0.00576049
0.00577567
0.00825966
0.00731775
0.00625602
0.00579248
0.00808829
0.00720351
0.00694852
0.0058636
0.00790737
0.00699839
0.00696384
0.00596796
0.00771703
0.0067053
0.00693638
0.00607248
0.00751835
0.00638212
0.00689953
0.00612779
0.00731344
0.00608652
0.00685332
0.00608907
0.00710491
0.00583711
0.0067274
0.00595405
0.00689492
0.00562466
0.00634073
0.00577058
0.0066846
0.00543519
0.00593822
0.00559151
0.00647412
0.0052599
0.00562573
0.0054382
0.00626311
0.00509331
0.00543211
0.00530602
0.00605123
0.00493122
0.00533676
0.00518344
0.00583859
0.00477044
0.00531831
0.00506262
0.00562605
0.00460864
0.00535192
0.00493947
0.00541486
0.0044448
0.00538888
0.00481114
0.00520584
0.00427914
0.00536432
0.00467545
0.00499891
0.00411232
0.00523838
0.00453172
0.00479311
0.00394475
0.00502662
0.00438081
0.00458727
0.00377638
0.00478147
0.00422425
0.0043806
0.003607
0.00454956
0.00406321
0.00417291
0.0034364
0.00434884
0.00389829
0.00396443
0.0032646
0.00417185
0.00372981
0.00375551
0.0030918
0.00400126
0.00355814
0.00354652
0.00291836
0.00382338
0.00338383
0.00333773
0.00274458
0.00363311
0.0032074
0.0031294
0.00256979
0.00343203
0.00302926
0.00292168
0.00238953
0.00322428
0.00284967
0.00271428
0.00220868
0.00301328
0.00266885
0.00250454
0.00203157
0.0028008
0.00248674
0.00229385
0.0018586
0.00258741
0.00230156
0.00208788
0.00168957
0.00237154
0.00210511
0.00188711
0.00152433
0.00215759
0.0019103
0.00169146
0.00136304
0.00194763
0.00172005
0.0015012
0.00120622
0.00174261
0.00153446
0.001317
0.00105441
0.00154344
0.0013536
0.00113891
0.000903614
0.00135122
0.00117801
0.0009665
0.000739838
0.00116683
0.00100878
0.000785469
0.000586941
0.00099139
0.000847042
0.000617377
0.000448381
0.000825205
0.000685601
0.000465903
0.000327565
0.000667937
0.000520856
0.000334708
0.000227183
0.000503146
0.000374404
0.000226774
0.000148525
0.000358822
0.000251419
0.000143535
9.09555e-05
0.000239207
0.000155544
8.41317e-05
5.18975e-05
0.000147037
8.74642e-05
4.53169e-05
2.74484e-05
8.2229e-05
4.41649e-05
2.22599e-05
1.33636e-05
4.13381e-05
1.97953e-05
9.86573e-06
5.91901e-06
1.8464e-05
7.75131e-06
3.87334e-06
2.33655e-06
7.21121e-06
2.57676e-06
1.30367e-06
7.93868e-07
2.39299e-06
6.88891e-07
3.55031e-07
2.18756e-07
6.39209e-07
1.33762e-07
7.04599e-08
4.3981e-08
1.24095e-07
1.55532e-08
8.3692e-09
5.28808e-09
1.43841e-08
9.88412e-10
5.12592e-10
3.18029e-10
8.35942e-10
4.03072e-10
1.82673e-10
1.05425e-10
2.73913e-10
0.0129964
0.0107153
0.0113031
0.0141093
0.013129
0.0107141
0.0113079
0.0143013
0.0132325
0.0106962
0.0112981
0.0144805
0.0132994
0.0106648
0.0112744
0.0146401
0.0133272
0.0106221
0.011238
0.0147981
0.013311
0.0105695
0.0111903
0.0149487
0.0132479
0.010508
0.0111325
0.015085
0.0131364
0.0104383
0.0110658
0.0152005
0.0129757
0.0103615
0.0109912
0.015287
0.0127657
0.0102788
0.0109112
0.0153402
0.012507
0.0101917
0.0108261
0.0153597
0.0122145
0.0101008
0.0107361
0.0153448
0.0119238
0.0100058
0.0106413
0.0152949
0.0116531
0.00990592
0.0105423
0.0152095
0.0113968
0.0098004
0.0104394
0.0150881
0.0111646
0.00968882
0.0103322
0.0149321
0.00806311
0.00957113
0.0102196
0.0147512
0.00522075
0.00944759
0.0101002
0.0145582
0.00526355
0.00931864
0.00997331
0.0143599
0.00811593
0.00918467
0.00983854
0.014159
0.0103219
0.00904594
0.00969493
0.013959
0.0102041
0.00890269
0.00954389
0.0137625
0.0100603
0.00875517
0.00938819
0.0135653
0.00988854
0.00860362
0.00922951
0.0133535
0.00969363
0.00844836
0.00906649
0.0131377
0.0094812
0.00828971
0.007656
0.00994526
0.0092571
0.00812815
0.00600674
0.00720756
0.00902718
0.00796421
0.00558875
0.00713654
0.00879576
0.00779842
0.006361
0.00890863
0.00733974
0.00763166
0.00771774
0.0122492
0.00568857
0.00746332
0.00816358
0.0122017
0.00518112
0.00729289
0.00803218
0.0120284
0.00579944
0.00712013
0.00788109
0.0118239
0.00700629
0.00694479
0.00771083
0.0115899
0.00755179
0.00676657
0.00752317
0.0113299
0.00738239
0.00658522
0.00731983
0.0110479
0.00719405
0.00639989
0.00710694
0.0107459
0.00698738
0.00620926
0.00680788
0.0099153
0.00676617
0.00601332
0.00646575
0.0084967
0.00640337
0.00581309
0.00620811
0.00757113
0.0059859
0.00560936
0.00599954
0.00747448
0.00563882
0.00540267
0.00579778
0.00787595
0.00539133
0.00519338
0.00558163
0.00832007
0.00520609
0.00498167
0.00534841
0.00821561
0.00503214
0.00476762
0.00510243
0.00778932
0.00483734
0.00455127
0.00484774
0.00730161
0.00461658
0.00433272
0.00458766
0.00683247
0.00438052
0.00411188
0.00432512
0.00634874
0.00414032
0.00388686
0.00406188
0.00591288
0.0039013
0.00365777
0.00379844
0.00553474
0.00366419
0.00342534
0.00353486
0.00517944
0.00342793
0.00318449
0.00327131
0.00482601
0.00319148
0.00293514
0.00300804
0.00446974
0.00295433
0.00268584
0.00274642
0.00411387
0.00271615
0.00244022
0.00248896
0.00376277
0.00247599
0.0021998
0.00223727
0.00341967
0.00223946
0.00196596
0.00199297
0.00308664
0.00200804
0.00174083
0.00175764
0.00276491
0.00178274
0.00152681
0.00153277
0.0024557
0.00156475
0.00132464
0.00131863
0.00216078
0.00135532
0.00113412
0.00111187
0.00188111
0.00115463
0.000955944
0.00091002
0.00161743
0.000957981
0.000781869
0.000724388
0.00137037
0.000765052
0.000616075
0.000557615
0.00114006
0.000588999
0.00046742
0.000412296
0.000925711
0.000433477
0.000338621
0.000290578
0.000718327
0.000301913
0.000231978
0.000193604
0.00051888
0.000196765
0.000148675
0.000120933
0.000351077
0.000118581
8.81258e-05
7.02584e-05
0.000219164
6.53208e-05
4.77308e-05
3.76746e-05
0.000124338
3.25216e-05
2.33108e-05
1.84901e-05
6.3254e-05
1.44528e-05
1.00993e-05
8.20809e-06
2.85139e-05
5.63135e-06
3.79525e-06
3.2329e-06
1.12202e-05
1.86639e-06
1.19673e-06
1.09342e-06
3.74975e-06
4.98712e-07
3.00624e-07
3.00253e-07
1.00898e-06
9.75839e-08
5.51059e-08
6.07494e-08
1.97527e-07
1.19742e-08
6.40659e-09
7.88909e-09
2.33744e-08
1.31747e-09
7.25909e-10
1.09844e-09
1.76386e-09
9.05686e-10
6.29469e-10
8.31423e-10
9.26961e-10
)
;

boundaryField
{
    leftWall
    {
        type            compressible::alphatWallFunction;
        Prt             0.85;
        value           uniform 0;
    }
    rightWall
    {
        type            compressible::alphatWallFunction;
        Prt             0.85;
        value           uniform 0;
    }
    leftSides_periodic0
    {
        type            cyclic;
    }
    leftSides_periodic1
    {
        type            cyclic;
    }
    rightSides_periodic0
    {
        type            cyclic;
    }
    rightSides_periodic1
    {
        type            cyclic;
    }
    leftInOut_periodic0
    {
        type            cyclic;
    }
    leftInOut_periodic1
    {
        type            cyclic;
    }
    rightInOut_periodic0
    {
        type            cyclic;
    }
    rightInOut_periodic1
    {
        type            cyclic;
    }
}


// ************************************************************************* //
