/*--------------------------------*- C++ -*----------------------------------*\
| =========                 |                                                 |
| \\      /  F ield         | OpenFOAM: The Open Source CFD Toolbox           |
|  \\    /   O peration     | Version:  v1912                                 |
|   \\  /    A nd           | Website:  www.openfoam.com                      |
|    \\/     M anipulation  |                                                 |
\*---------------------------------------------------------------------------*/
FoamFile
{
    version     2.0;
    format      ascii;
    class       volScalarField;
    location    "97.6";
    object      k;
}
// * * * * * * * * * * * * * * * * * * * * * * * * * * * * * * * * * * * * * //

dimensions      [0 2 -2 0 0 0 0];


internalField   nonuniform List<scalar> 
2528
(
8.71705e-07
6.70497e-07
4.9694e-07
8.14586e-07
4.87498e-07
3.22487e-07
2.21328e-07
3.58964e-07
2.49928e-06
1.55414e-06
1.03225e-06
1.65314e-06
8.63708e-06
5.35668e-06
3.54697e-06
5.64992e-06
2.13517e-05
1.32943e-05
8.79533e-06
1.38997e-05
4.27305e-05
2.68505e-05
1.77766e-05
2.77617e-05
7.37747e-05
4.70741e-05
3.1259e-05
4.80282e-05
0.000113818
7.42333e-05
4.95819e-05
7.4622e-05
0.000160494
0.000107603
7.25041e-05
0.000106474
0.000210454
0.000145563
9.91824e-05
0.000141719
0.000260437
0.000186021
0.000128336
0.000178181
0.000307989
0.000226951
0.000158536
0.000213888
0.000351677
0.000266749
0.000188487
0.000247383
0.000391024
0.000304377
0.00021719
0.000277803
0.000426043
0.000339383
0.000244033
0.000304842
0.000456752
0.000371692
0.000268875
0.00032853
0.000483278
0.000401184
0.000291544
0.000348907
0.000505825
0.000427833
0.000311951
0.000366103
0.000524631
0.000451673
0.000330078
0.000380299
0.00053995
0.000472778
0.000345956
0.000391707
0.000552036
0.000491239
0.000359649
0.000400546
0.000561133
0.000507151
0.000371245
0.000407031
0.000567472
0.000520622
0.00038084
0.000411367
0.000571271
0.000531767
0.000388538
0.000413749
0.000572738
0.000540709
0.00039445
0.000414354
0.000572059
0.000547577
0.000398693
0.00041335
0.000569412
0.000552489
0.000401391
0.000410889
0.000564961
0.000555557
0.000402658
0.000407113
0.000558872
0.000556886
0.000402617
0.000402156
0.000551312
0.000556578
0.000401369
0.000396142
0.000542455
0.000554734
0.000399013
0.000389194
0.000532472
0.00055147
0.000395643
0.000381428
0.000521526
0.000546932
0.000391366
0.000372952
0.000509768
0.000541304
0.000386303
0.000363868
0.000497341
0.000534797
0.000380597
0.000354267
0.00048439
0.000527626
0.00037439
0.000344234
0.000471069
0.000519963
0.000367806
0.000333853
0.000457555
0.0005119
0.000360924
0.000323209
0.000444044
0.000503433
0.00035377
0.000312394
0.000430719
0.00049448
0.00034633
0.000301498
0.00041771
0.000484919
0.000338572
0.000290596
0.000405064
0.000474643
0.000330472
0.000279745
0.000392771
0.000463612
0.000322027
0.000268993
0.000380808
0.000451856
0.000313258
0.000258407
0.000369163
0.000439428
0.000304237
0.000248092
0.00035782
0.000426382
0.000295098
0.000238176
0.000346753
0.000412799
0.000286009
0.000228723
0.000335912
0.000398747
0.000277139
0.000219787
0.000325241
0.000384319
0.000268523
0.000211384
0.000314698
0.000369753
0.000260134
0.000203463
0.000304264
0.000355418
0.000251978
0.000195954
0.000293959
0.000341605
0.000244045
0.000188787
0.000283833
0.000328163
0.000236286
0.000181894
0.000273955
0.000314987
0.00022866
0.000175213
0.000264337
0.000302203
0.000221136
0.000168684
0.000254914
0.00028992
0.000213695
0.000162262
0.000245649
0.000278262
0.00020633
0.00015592
0.000236552
0.000267353
0.000199043
0.000149657
0.000227658
0.00025727
0.000191852
0.0001435
0.000219016
0.000247999
0.000184781
0.000137507
0.000210644
0.000239456
0.000177866
0.000131764
0.000202482
0.000231569
0.000171148
0.000126384
0.000194434
0.000224284
0.000164672
0.000121509
0.000186422
0.000217566
0.000158485
0.000117305
0.000178396
0.000211417
0.000152672
0.000113957
0.000170339
0.000205854
0.000147339
0.00011163
0.000162277
0.000200865
0.000142557
0.000110373
0.000154287
0.00019644
0.000138377
0.000109983
0.0001465
0.000192578
0.000134848
0.000110074
0.000139105
0.000189285
0.000132011
0.000110288
0.000132275
0.000186568
0.000129903
0.00011035
0.000126029
0.000184441
0.000128554
0.000110053
0.000120276
0.000182916
0.000127994
0.000109253
0.000114929
0.000182011
0.000128263
0.000107854
0.000109922
0.000181747
0.000129418
0.000105802
0.000105219
0.000182149
0.000131551
0.000103077
0.000100813
0.000183245
0.000134797
9.96869e-05
9.67269e-05
0.000185072
0.000139335
9.56648e-05
9.30113e-05
0.000187677
0.000145405
9.107e-05
1.77606e-06
2.22537e-06
2.10711e-06
1.88094e-06
4.33747e-07
5.69076e-07
5.3149e-07
4.70669e-07
1.2339e-06
1.6484e-06
1.60311e-06
1.44789e-06
4.07096e-06
5.35672e-06
5.30583e-06
4.88363e-06
1.00028e-05
1.29573e-05
1.29445e-05
1.21254e-05
2.00382e-05
2.55474e-05
2.5634e-05
2.44273e-05
3.48663e-05
4.37148e-05
4.39563e-05
4.25821e-05
5.46768e-05
6.73399e-05
6.77728e-05
6.66685e-05
7.90623e-05
9.55279e-05
9.61775e-05
9.59588e-05
0.000107063
0.000126756
0.000127656
0.000129058
0.000137377
0.00015923
0.000160439
0.000164247
0.00016866
0.00019129
0.000192883
0.000199869
0.000199762
0.000221658
0.000223724
0.000234588
0.000229837
0.000249547
0.000252132
0.00026747
0.000258347
0.000274715
0.000277683
0.000297985
0.000284993
0.000297111
0.00030033
0.00032598
0.000309651
0.000316799
0.000320118
0.000351378
0.000332305
0.000333926
0.000337174
0.00037423
0.000353003
0.000348693
0.000351657
0.000394642
0.000371829
0.000361327
0.000363746
0.000412752
0.000388881
0.000372063
0.000373621
0.000428714
0.000404264
0.000381135
0.000381455
0.000442684
0.000418081
0.000388757
0.000387412
0.000454814
0.000430425
0.000395116
0.000391646
0.000465246
0.000441385
0.000400374
0.000394292
0.000474109
0.000451038
0.000404667
0.000395468
0.000481522
0.000459462
0.000408104
0.000395277
0.000487593
0.000466728
0.000410768
0.000393807
0.000492419
0.000472897
0.000412732
0.000391147
0.000496091
0.000478007
0.000414055
0.000387421
0.000498696
0.000482083
0.000414802
0.000382815
0.000500316
0.000485151
0.000415023
0.000377564
0.000501031
0.000487286
0.000414689
0.000371859
0.000500916
0.000488628
0.000413555
0.000365708
0.000500041
0.000489349
0.000411028
0.000358817
0.000498477
0.000489638
0.000406245
0.000350608
0.000496301
0.000489648
0.000398665
0.000340473
0.000493596
0.000489295
0.000388922
0.000328332
0.000490455
0.000487683
0.000378603
0.000315131
0.000486979
0.00048336
0.000368783
0.000302218
0.000483277
0.000475142
0.000359548
0.000290334
0.000479462
0.000464007
0.000350696
0.000279401
0.000475656
0.000452427
0.000342171
0.000269167
0.000471981
0.000441614
0.000334003
0.000259629
0.000468494
0.000431219
0.00032623
0.000250916
0.000464868
0.000420923
0.00031888
0.000243165
0.000459428
0.000410711
0.000311986
0.000236474
0.000449924
0.00040061
0.000305583
0.000230721
0.000435755
0.000390633
0.000299712
0.000224912
0.000419882
0.000380774
0.000294415
0.000216585
0.000404922
0.000371038
0.000289732
0.000204748
0.000390761
0.000361451
0.000285688
0.000192402
0.000376812
0.000352079
0.000282289
0.000182813
0.000363044
0.000343027
0.00027954
0.00017547
0.000349606
0.00033444
0.000277429
0.000169494
0.000336627
0.000326499
0.000275734
0.00016484
0.000324221
0.000319427
0.0002733
0.000161623
0.00031254
0.000313342
0.000266197
0.000159903
0.00030176
0.000307754
0.000250354
0.000159571
0.000292055
0.000299527
0.000230019
0.000160492
0.000283621
0.000286891
0.000213511
0.000162552
0.000276666
0.00027484
0.000200423
0.000165652
0.000271395
0.000265374
0.000188793
0.000169715
0.000268011
0.000257665
0.00017852
0.000174686
0.000266572
0.000251412
0.000169639
0.000180523
0.00026644
0.000246747
0.000162078
0.000187207
0.000264161
0.000243718
0.000155714
0.000194739
0.000254225
0.000242262
0.000150408
0.000203132
0.000239274
0.000241806
0.000146001
0.000212416
0.000226629
0.00023969
0.000142503
0.000222553
0.000216228
0.000231809
0.000139956
0.000233413
0.000207054
0.000222325
0.000138309
0.000245032
0.00019938
0.000214865
0.000137521
0.000257606
0.000193342
0.000208685
0.000137572
0.000271305
0.000189131
0.000203472
0.00013846
0.000286249
0.000186877
0.000199447
0.000140192
0.000302441
0.000186647
0.000196622
0.000142786
0.000319634
0.000188537
0.000194956
0.000146235
0.000339357
0.000192684
0.000194396
0.000150685
0.000363619
0.000199288
2.04841e-06
2.37094e-06
1.82208e-06
1.35919e-06
5.30811e-07
6.05155e-07
4.64338e-07
3.16789e-07
1.51596e-06
1.73674e-06
1.29572e-06
7.90214e-07
4.92357e-06
5.63472e-06
4.19093e-06
2.55207e-06
1.19717e-05
1.36054e-05
1.01719e-05
6.27323e-06
2.3755e-05
2.67156e-05
2.01687e-05
1.26602e-05
4.08659e-05
4.53945e-05
3.47185e-05
2.22729e-05
6.3183e-05
6.92669e-05
5.38079e-05
3.54e-05
8.98439e-05
9.7193e-05
7.68457e-05
5.19833e-05
0.000119427
0.000127514
0.00010277
7.1612e-05
0.00015029
0.000158434
0.000130267
9.35949e-05
0.000180923
0.000188373
0.000158028
0.000117093
0.000210177
0.000216181
0.000184955
0.000141265
0.000237352
0.000241213
0.000210259
0.000165383
0.000262235
0.000263354
0.000233509
0.000188887
0.000284776
0.000282587
0.000254615
0.000211431
0.000305018
0.000299031
0.000273519
0.000232887
0.000323094
0.000312893
0.000290253
0.000253168
0.000339202
0.000324438
0.000304912
0.000272234
0.000353577
0.000333963
0.000317632
0.000290086
0.000366476
0.000341775
0.000328574
0.000306757
0.000378168
0.000348164
0.000337903
0.000322296
0.000388897
0.000353392
0.000345781
0.00033677
0.000398829
0.000357677
0.000352357
0.000350252
0.00040809
0.000361203
0.000357767
0.000362818
0.000416778
0.000364096
0.000362134
0.000374546
0.000424971
0.000366457
0.000365561
0.000385515
0.000432728
0.000368362
0.000368139
0.000395795
0.000440086
0.000369867
0.000369946
0.000405444
0.000447068
0.00037101
0.000371049
0.0004145
0.000453678
0.000371813
0.000371501
0.000422992
0.000459907
0.000372276
0.000371347
0.000430941
0.000465744
0.000372385
0.000370609
0.00043836
0.000471177
0.000372107
0.00036929
0.000445261
0.000476189
0.000371409
0.000367365
0.000451653
0.000480766
0.000370264
0.000364793
0.000457547
0.000484887
0.000368666
0.000361539
0.000462953
0.000488522
0.00036664
0.00035759
0.000467881
0.000491634
0.000364239
0.000352977
0.000472338
0.000494183
0.000361533
0.000347764
0.000476331
0.000496142
0.000358591
0.000342032
0.000479863
0.000497515
0.00035547
0.000335862
0.000482932
0.00049833
0.000352201
0.000329319
0.00048552
0.000498629
0.000348794
0.000322459
0.000487571
0.000498448
0.000345249
0.000315321
0.000488991
0.000497821
0.000341565
0.000307928
0.000489621
0.000496778
0.000337738
0.00030028
0.000489302
0.000495344
0.000333765
0.000292354
0.000487955
0.000493547
0.000329641
0.000284119
0.000485624
0.000491407
0.000325359
0.000275596
0.000482439
0.000488947
0.000320905
0.000266942
0.000478541
0.000486185
0.000316263
0.000258373
0.000474051
0.000483144
0.000311412
0.000249964
0.000469072
0.000479841
0.000306315
0.000241777
0.000463695
0.000476297
0.000300845
0.000233927
0.000457998
0.000472524
0.000294724
0.00022651
0.000452037
0.00046852
0.000287573
0.000219603
0.000445846
0.000464239
0.000279098
0.000213284
0.000439468
0.000459575
0.000269437
0.000207645
0.000432947
0.000454381
0.000259472
0.000202782
0.000426321
0.000448559
0.000250055
0.000198751
0.000419607
0.000442126
0.00024107
0.000195591
0.000412779
0.000435137
0.000232414
0.000193332
0.00040563
0.000427598
0.000224273
0.000192002
0.000397669
0.000419459
0.000216807
0.000191626
0.000388257
0.000410597
0.000210152
0.000192228
0.000376841
0.00040079
0.000204395
0.000193825
0.000363395
0.000389676
0.000199734
0.000196434
0.000348801
0.000376747
0.000196353
0.000200064
0.000334269
0.0003616
0.000194314
0.000204714
0.000320126
0.000344754
0.00019366
0.000210374
0.000306083
0.000327421
0.000194416
0.000217017
0.000292093
0.000310671
0.00019659
0.000224596
0.000278319
0.000295023
0.000200174
0.000233035
0.00026491
0.000279964
0.000205138
0.000242215
0.000252009
0.000265164
0.000211434
0.000251964
0.000239751
0.000250818
0.000218985
0.000262042
0.000228254
0.000237089
0.000227687
0.000272129
0.000217764
0.000224147
0.000237405
0.000281812
0.000208573
4.85125e-07
9.5156e-07
6.86347e-07
5.92792e-07
2.36364e-07
4.71865e-07
2.80862e-07
2.33464e-07
1.14245e-06
2.31306e-06
1.25412e-06
1.02397e-06
3.9437e-06
7.99161e-06
4.31355e-06
3.52532e-06
9.79836e-06
1.97767e-05
1.07235e-05
8.77719e-06
1.97947e-05
3.95709e-05
2.16732e-05
1.77775e-05
3.46713e-05
6.82186e-05
3.79437e-05
3.12383e-05
5.45668e-05
0.000105032
5.96183e-05
4.93614e-05
7.88988e-05
0.000147835
8.59647e-05
7.17122e-05
0.000106454
0.00019359
0.000115576
9.7274e-05
0.000135669
0.000239281
0.000146722
0.000124685
0.000164987
0.000282598
0.000177751
0.00015255
0.000193156
0.000322404
0.000207398
0.000179693
0.00021947
0.00035827
0.00023512
0.000205302
0.000243689
0.000389886
0.00026059
0.000229081
0.000265603
0.000417172
0.000283574
0.000250884
0.000285124
0.000440208
0.000303968
0.000270636
0.000302262
0.000459188
0.000321768
0.000288353
0.000317095
0.00047437
0.000337039
0.000304114
0.000329743
0.000486041
0.000349888
0.00031804
0.000340348
0.0004945
0.000360456
0.000330275
0.000349067
0.000500046
0.000368901
0.000340974
0.000356068
0.000502975
0.000375394
0.000350297
0.000361542
0.00050358
0.000380107
0.0003584
0.000365706
0.000502154
0.000383211
0.000365431
0.000368783
0.000499004
0.000384883
0.000371526
0.000370929
0.000494431
0.000385308
0.000376802
0.000372172
0.000488677
0.000384674
0.000381352
0.00037244
0.000481854
0.000383141
0.000385258
0.000371739
0.000473919
0.000380794
0.000388605
0.000370347
0.000464781
0.000377603
0.000391507
0.000368677
0.000454527
0.000373459
0.000394113
0.00036717
0.000443598
0.000368311
0.000396577
0.000366034
0.000432617
0.000362338
0.000399023
0.000365272
0.000421945
0.000355938
0.000401521
0.000364829
0.000411629
0.000349478
0.000404104
0.000364651
0.000401696
0.000343144
0.000406774
0.000364694
0.000392184
0.00033701
0.000409524
0.000364915
0.000383097
0.000331058
0.000412344
0.000365279
0.00037397
0.000325233
0.000415219
0.000365752
0.000363882
0.000319493
0.000418132
0.000366308
0.000352291
0.000313814
0.000421063
0.000366929
0.000340143
0.000308181
0.000423992
0.000367605
0.00032875
0.000302587
0.000426897
0.000368333
0.000318007
0.00029703
0.000429763
0.000369109
0.000307748
0.00029151
0.00043257
0.000369934
0.000298084
0.000286029
0.000435295
0.00037081
0.000289004
0.000280593
0.00043792
0.000371738
0.000280475
0.000275216
0.000440431
0.00037272
0.000272468
0.000269916
0.000442824
0.000373753
0.000264955
0.000264723
0.000445096
0.000374834
0.0002579
0.000259671
0.000447245
0.00037595
0.000251274
0.000254802
0.000449268
0.000377087
0.000245046
0.000250161
0.000451163
0.000378228
0.000239193
0.000245795
0.000452921
0.000379348
0.000233695
0.000241752
0.000454532
0.000380423
0.000228542
0.000238079
0.000455978
0.000381421
0.000223741
0.000234823
0.000457232
0.000382307
0.000219319
0.000232024
0.000458261
0.00038304
0.000215323
0.000229721
0.000459021
0.000383578
0.00021181
0.000227944
0.000459457
0.000383876
0.000208838
0.00022672
0.000459505
0.00038389
0.000206457
0.000226066
0.000459091
0.000383571
0.000204717
0.000225998
0.000458133
0.000382868
0.000203655
0.000226523
0.000456551
0.000381725
0.000203301
0.000227644
0.000454281
0.000380084
0.000203674
0.000229357
0.000451291
0.000377893
0.000204777
0.000231651
0.000447592
0.000375112
0.000206601
0.000234511
0.000443242
0.000371731
0.000209121
0.000237912
0.00043833
0.000367791
0.000212298
0.00024182
0.000432963
0.000363386
0.000216085
0.000246189
0.000427267
0.000358654
0.000220427
0.000250965
0.000421384
0.00035376
0.000225258
0.000256078
0.000415466
0.000348871
0.000230514
0.000261446
0.000409678
0.000344154
0.000236135
0.000266982
0.000404187
0.000339772
0.000242066
0.000272591
0.000399164
0.000335879
0.000248269
0.000278183
0.000394784
0.000332607
0.000254734
0.000283687
0.00039121
8.9777e-05
0.000191104
0.000153223
8.60435e-05
8.71662e-05
0.000195352
0.000162666
8.08408e-05
8.52934e-05
0.000200382
0.000173278
7.57301e-05
8.42694e-05
0.000206136
0.000184648
7.09779e-05
8.4221e-05
0.000212544
0.000196427
6.69394e-05
8.52801e-05
0.00021954
0.000208353
6.4226e-05
8.75714e-05
0.000227065
0.000220242
6.36324e-05
9.11996e-05
0.000235057
0.000231966
6.53015e-05
9.61873e-05
0.000243452
0.000243446
6.88436e-05
0.000102519
0.000252183
0.00025456
7.37955e-05
0.000110216
0.000261183
0.000265205
7.98528e-05
0.000119251
0.000270386
0.00027537
8.68448e-05
0.000129555
0.000279727
0.000285056
9.46566e-05
0.000141026
0.000289147
0.000294275
0.00010314
0.000153534
0.000298589
0.000303042
0.000112125
0.000166918
0.000308002
0.000311373
0.000121486
0.000180985
0.000317337
0.000319285
0.000131149
0.000195523
0.000326555
0.000326792
0.000141075
0.000210315
0.000335617
0.000333908
0.000151253
0.000225196
0.000344492
0.000340642
0.000161684
0.000240139
0.000353151
0.000346988
0.000172375
0.000255178
0.000361568
0.000352936
0.000183332
0.000270336
0.00036972
0.000358473
0.000194548
0.000285603
0.000377587
0.000363576
0.00020601
0.000300956
0.000385151
0.000368189
0.000217701
0.000316353
0.000392397
0.000372206
0.000229576
0.000331767
0.000399312
0.000375505
0.000241586
0.000347248
0.000405886
0.000378026
0.000253576
0.000362834
0.000412113
0.000379802
0.000264982
0.000378385
0.000417989
0.000380943
0.000275289
0.000393449
0.000423514
0.000381562
0.00028452
0.000407489
0.000428691
0.000381723
0.000293028
0.000420258
0.000433524
0.000381453
0.000301148
0.000431822
0.000438019
0.000380765
0.000308981
0.000442452
0.000442183
0.00037967
0.000316542
0.000452404
0.000446022
0.000378175
0.000323822
0.000461798
0.000449542
0.000376283
0.000330799
0.000470655
0.000452749
0.000373995
0.000337428
0.000478968
0.000455648
0.000371312
0.000343645
0.000486725
0.000458245
0.000368237
0.000349361
0.000493921
0.000460544
0.000364773
0.000354469
0.000500552
0.000462544
0.000360919
0.000358901
0.00050662
0.000464237
0.000356667
0.000362653
0.000512128
0.000465606
0.000352001
0.000365765
0.000517079
0.000466625
0.0003469
0.000368275
0.000521472
0.00046726
0.000341332
0.000370188
0.000525296
0.000467463
0.000335259
0.000371464
0.000528522
0.000467175
0.000328626
0.000372021
0.000531099
0.000466326
0.000321364
0.000371755
0.000532957
0.000464797
0.000313404
0.000370542
0.000533997
0.000462458
0.000304674
0.000368224
0.00053409
0.000459135
0.000295101
0.000364649
0.000533074
0.000454617
0.000284608
0.000359647
0.000530742
0.000448668
0.000273116
0.000353047
0.000526843
0.000441029
0.000260554
0.000344688
0.000521072
0.000431421
0.00024686
0.000334419
0.000513077
0.000419561
0.000231995
0.000322109
0.000502462
0.000405167
0.00021595
0.000307643
0.000488796
0.000387975
0.000198758
0.000290936
0.000471633
0.000367759
0.000180508
0.000271954
0.000450536
0.00034436
0.000161351
0.000250728
0.00042511
0.00031772
0.000141484
0.000227382
0.000395059
0.000287925
0.000121185
0.000202158
0.000360265
0.000255248
0.000100996
0.000175436
0.000320869
0.000220127
8.15967e-05
0.000147674
0.000277299
0.00018335
6.36901e-05
0.000119902
0.000230372
0.000146464
4.78913e-05
9.33995e-05
0.000182215
0.000111441
3.46114e-05
6.94574e-05
0.000135883
8.02735e-05
2.3991e-05
4.91145e-05
9.4709e-05
5.44779e-05
1.59067e-05
3.29166e-05
6.1304e-05
3.46952e-05
1.00431e-05
2.08353e-05
3.66936e-05
2.06312e-05
5.99079e-06
1.23815e-05
2.02028e-05
1.13449e-05
3.33157e-06
6.8302e-06
1.01087e-05
5.66094e-06
1.68973e-06
3.42685e-06
4.47196e-06
2.47508e-06
7.53674e-07
1.50875e-06
1.65202e-06
8.90624e-07
2.78618e-07
5.48295e-07
4.6065e-07
2.41589e-07
8.16779e-08
1.53848e-07
1.29478e-07
8.21559e-08
4.27911e-08
6.64757e-08
4.3035e-07
3.48201e-07
2.18306e-07
3.19837e-07
0.000194878
0.00015599
0.000383125
0.000208504
0.00019628
0.000160645
0.000384473
0.000220063
0.000198448
0.000163862
0.000378743
0.000233705
0.000201255
0.000167013
0.000372928
0.00025074
0.000204601
0.00017091
0.000368479
0.000276253
0.000208411
0.000175495
0.000365624
0.000309801
0.000212627
0.000180479
0.000364143
0.000330648
0.000217199
0.000185641
0.000363767
0.00034228
0.00022209
0.000190889
0.000364264
0.0003526
0.000227274
0.000196223
0.000365416
0.000363814
0.000232729
0.000201685
0.000367027
0.000376795
0.000238437
0.000207295
0.000368928
0.000391622
0.000244375
0.000213042
0.000370979
0.000405159
0.00025052
0.000218898
0.000373072
0.00041656
0.000256853
0.000224834
0.000375134
0.000427752
0.000263361
0.000230828
0.000377118
0.000439392
0.00027003
0.000236868
0.000378999
0.000451745
0.000276849
0.000242948
0.000380763
0.000464956
0.000283807
0.000249068
0.000382406
0.000479133
0.000290895
0.000255225
0.000383928
0.000494262
0.000298111
0.000261415
0.000385329
0.000510171
0.000305452
0.000267635
0.000386609
0.000526751
0.000312917
0.000273878
0.000387759
0.000544821
0.000320504
0.00028014
0.000388768
0.000566609
0.000328206
0.000286413
0.000389616
0.000592532
0.000336005
0.000292693
0.000390278
0.000616659
0.000343871
0.000298974
0.000390735
0.00063311
0.00035177
0.000305251
0.000390974
0.000643408
0.000359666
0.000311531
0.000391
0.000651411
0.000367522
0.000317823
0.000390829
0.000659129
0.000375306
0.000324124
0.000390483
0.000666848
0.000382987
0.000330429
0.000389983
0.000674583
0.000390548
0.000336732
0.000389345
0.000682286
0.00039799
0.000343026
0.000388582
0.000689929
0.000405319
0.000349303
0.000387703
0.000697505
0.000412541
0.000355552
0.000386717
0.000705042
0.000419658
0.000361759
0.000385627
0.000712534
0.000426668
0.000367913
0.000384437
0.000719857
0.000433565
0.000373997
0.000383146
0.000726867
0.000440336
0.000379932
0.000381753
0.000733473
0.000446961
0.00038553
0.000380257
0.000739656
0.000453414
0.000390571
0.000378652
0.000745422
0.000459663
0.000394921
0.000376935
0.000750752
0.00046567
0.000398545
0.00037509
0.000755571
0.000471389
0.000401453
0.000373095
0.000759747
0.000476766
0.000403631
0.000370906
0.000763116
0.000481735
0.000405016
0.000368449
0.000765506
0.000486167
0.000405501
0.000365624
0.000766743
0.000489851
0.000404964
0.000362292
0.000766661
0.000492506
0.000403278
0.000358272
0.000765088
0.000493823
0.000400302
0.000353365
0.000761843
0.000493507
0.000395853
0.000347354
0.000756729
0.000491289
0.000389768
0.000340026
0.000749531
0.00048689
0.000381864
0.000331181
0.000740012
0.000480036
0.000371978
0.000320638
0.000727914
0.000470445
0.000359969
0.000308247
0.000712953
0.000457838
0.000345716
0.000293888
0.000694819
0.00044197
0.000329126
0.00027749
0.000673171
0.000422632
0.000310143
0.000259039
0.000647649
0.000399671
0.000288763
0.000238596
0.000617885
0.000373018
0.000265055
0.000216313
0.000583524
0.000342723
0.000239188
0.000192445
0.000544259
0.000308997
0.000211452
0.000167332
0.000499873
0.00027226
0.000182189
0.000141471
0.00045031
0.000233142
0.000152172
0.000115779
0.000395689
0.00019254
0.000122563
9.13461e-05
0.000336648
0.000152284
9.47122e-05
6.92417e-05
0.000274999
0.000114613
6.99172e-05
5.03014e-05
0.000213745
8.16559e-05
4.91425e-05
3.49594e-05
0.000156714
5.48677e-05
3.28004e-05
2.31994e-05
0.000107649
3.46632e-05
2.07213e-05
1.46461e-05
6.89759e-05
2.0483e-05
1.23137e-05
8.73131e-06
4.10757e-05
1.11965e-05
6.80191e-06
4.84932e-06
2.25683e-05
5.54081e-06
3.41855e-06
2.452e-06
1.12461e-05
2.38848e-06
1.50571e-06
1.08569e-06
4.90818e-06
8.38047e-07
5.43485e-07
3.93366e-07
1.75468e-06
2.14059e-07
1.43234e-07
1.04273e-07
4.52675e-07
5.14277e-08
3.39465e-08
2.62023e-08
8.40606e-08
1.75263e-07
1.07911e-07
8.92882e-08
1.7867e-07
0.00021223
0.000247864
0.000290671
0.000200941
0.000201568
0.000258706
0.000298273
0.000195096
0.000192446
0.000269729
0.000304446
0.0001911
0.000185071
0.00028086
0.000309524
0.000188908
0.000179477
0.000292049
0.000313944
0.000188384
0.00017568
0.000303288
0.000318016
0.000189205
0.000173676
0.000314654
0.000321896
0.000190934
0.000173439
0.00032619
0.000325676
0.000193397
0.000174922
0.000337806
0.00032942
0.000196593
0.000178058
0.000349359
0.000333164
0.000200533
0.000182763
0.000360708
0.000336929
0.000205201
0.000188856
0.000371776
0.000340723
0.000210551
0.000196113
0.000382558
0.000344554
0.000216519
0.000204435
0.00039307
0.000348428
0.000223078
0.000213758
0.000403332
0.000352355
0.000230241
0.00022403
0.000413372
0.000356341
0.00023802
0.00023522
0.000423213
0.000360396
0.000246417
0.000247315
0.000432878
0.000364531
0.000255421
0.000260316
0.000442383
0.00036875
0.000265015
0.000274196
0.000451741
0.000373052
0.000275176
0.000288813
0.000460956
0.000377428
0.000285878
0.000304241
0.000470032
0.000381868
0.000297101
0.000320704
0.000478971
0.000386363
0.000308966
0.000337992
0.000487773
0.000390912
0.000321551
0.000355653
0.000496437
0.000395534
0.000334466
0.000373319
0.000504962
0.000400275
0.000346888
0.000390754
0.000513345
0.000405216
0.000358412
0.000407821
0.000521577
0.000410457
0.000369523
0.000424466
0.000529645
0.000416078
0.000380898
0.000440683
0.00053753
0.000422076
0.000392944
0.000456531
0.000545203
0.000428342
0.000405722
0.000472217
0.000552628
0.00043471
0.000419123
0.000488003
0.000559759
0.00044102
0.000433121
0.000503981
0.000566548
0.000447153
0.000447758
0.000520034
0.00057294
0.000453023
0.000462821
0.00053593
0.000578876
0.000458551
0.000477856
0.000551444
0.000584296
0.000463665
0.000492453
0.000566418
0.000589132
0.000468306
0.000506325
0.000580744
0.000593322
0.000472417
0.000519329
0.000594372
0.000596795
0.00047594
0.000531475
0.000607264
0.000599469
0.000478814
0.000542886
0.000619358
0.000601264
0.000480969
0.000553707
0.000630583
0.000602107
0.000482332
0.000564003
0.000640848
0.000601928
0.000482825
0.000573701
0.000650041
0.00060066
0.000482365
0.000582601
0.000658034
0.000598234
0.000480869
0.000590457
0.000664684
0.000594579
0.000478242
0.000597054
0.000669838
0.000589617
0.000474387
0.000602249
0.000673332
0.000583269
0.000469199
0.000605949
0.000674992
0.000575448
0.000462566
0.000608063
0.000674633
0.000566057
0.000454371
0.000608476
0.00067206
0.000554991
0.000444484
0.000607037
0.000667069
0.000542132
0.000432775
0.000603565
0.000659448
0.000527342
0.000419132
0.000597856
0.000648974
0.00051047
0.000403457
0.000589679
0.000635409
0.000491372
0.000385672
0.000578775
0.000618459
0.000469916
0.000365725
0.00056486
0.000597858
0.000445983
0.0003436
0.000547641
0.000573357
0.000419477
0.000319325
0.000526819
0.000544739
0.000390339
0.00029299
0.00050211
0.000511839
0.000358574
0.000264747
0.000473265
0.000474571
0.0003242
0.000234737
0.000440114
0.000432964
0.000287327
0.00020338
0.000402611
0.000387229
0.000248448
0.000171448
0.000360898
0.000337802
0.000208484
0.000139994
0.000315171
0.000285237
0.0001688
0.000110249
0.000266224
0.000231252
0.000131109
8.34375e-05
0.000215789
0.000178499
9.71979e-05
6.05223e-05
0.000166454
0.000130127
6.85128e-05
4.19977e-05
0.000121252
8.9015e-05
4.57858e-05
2.78246e-05
8.28894e-05
5.68683e-05
2.89183e-05
1.75371e-05
5.29318e-05
3.37717e-05
1.71636e-05
1.04395e-05
3.14247e-05
1.8483e-05
9.464e-06
5.79282e-06
1.71942e-05
9.15512e-06
4.74681e-06
2.92971e-06
8.51502e-06
3.96186e-06
2.08596e-06
1.29967e-06
3.68446e-06
1.40131e-06
7.50312e-07
4.72213e-07
1.30296e-06
3.57906e-07
1.9459e-07
1.23586e-07
3.31532e-07
6.97025e-08
3.63019e-08
2.25714e-08
5.89892e-08
1.69914e-07
7.69872e-08
4.44251e-08
1.15465e-07
0.000330076
0.000261457
0.000289042
0.000388583
0.000328367
0.000268399
0.000294214
0.00038698
0.000327512
0.000275544
0.000299232
0.000386418
0.000327539
0.000282904
0.000304164
0.000386906
0.000328478
0.000290482
0.000309087
0.000388432
0.000330353
0.000298285
0.00031408
0.000390964
0.000333185
0.000306313
0.000319219
0.000394465
0.000337006
0.000314561
0.000324574
0.00039891
0.000341856
0.000323018
0.00033021
0.000404291
0.000347797
0.000331664
0.000336185
0.000410615
0.000354906
0.00034047
0.000342555
0.000417898
0.00036323
0.000349399
0.000349367
0.000426163
0.000372735
0.0003584
0.000356664
0.000435438
0.000383471
0.000367416
0.000364486
0.000445758
0.000395684
0.000376392
0.000372866
0.000457163
0.000409477
0.000385284
0.000381837
0.000469681
0.000424726
0.000394072
0.000391427
0.000483288
0.000442614
0.000402757
0.000401663
0.000497932
0.000462068
0.000411351
0.000412566
0.000513588
0.000475601
0.00041986
0.000424155
0.000530249
0.000483309
0.000428286
0.000436442
0.000547903
0.000489685
0.000436625
0.000449428
0.000566555
0.00049702
0.000444863
0.000463099
0.000586288
0.000505729
0.000452978
0.000477472
0.000607415
0.000515893
0.00046094
0.000492545
0.000629926
0.000527553
0.000468712
0.000508112
0.000653783
0.000540695
0.00047625
0.000524166
0.000680486
0.000555279
0.000483501
0.000539896
0.000709779
0.000571197
0.000490414
0.000551839
0.000736159
0.000588165
0.00049695
0.000559118
0.000754897
0.000605893
0.00050309
0.000563722
0.00076827
0.000623116
0.000508834
0.000567314
0.000780165
0.000635906
0.000514176
0.00057058
0.000791706
0.00064355
0.000519107
0.000573582
0.000802878
0.000648483
0.000523607
0.00057633
0.000814026
0.000652574
0.000527648
0.000578782
0.000825286
0.000656543
0.000531199
0.000580843
0.000836724
0.000660443
0.000534226
0.000582355
0.000848261
0.000664199
0.000536686
0.000583163
0.000859632
0.000667668
0.000538535
0.00058312
0.000870159
0.000670619
0.000539728
0.000582163
0.000878452
0.000672755
0.000540226
0.00058029
0.000883911
0.000673791
0.000539992
0.000577518
0.000887151
0.000673587
0.000538992
0.00057385
0.000889102
0.00067214
0.000537192
0.000569272
0.000890212
0.000669486
0.000534557
0.000563753
0.000890521
0.000665623
0.00053105
0.000557245
0.000889852
0.000660496
0.000526631
0.00054969
0.000888006
0.000654015
0.00052125
0.000541024
0.000884732
0.000646082
0.000514848
0.000531174
0.000879819
0.000636594
0.000507355
0.000520062
0.000873142
0.000625448
0.000498678
0.000507595
0.000864585
0.000612533
0.000488705
0.000493667
0.000853998
0.000597724
0.000477293
0.000478159
0.000841173
0.000580875
0.000464276
0.000460938
0.000825854
0.00056181
0.00044946
0.000441871
0.000807733
0.000540349
0.000432623
0.000420821
0.000786458
0.000516307
0.000413518
0.000397664
0.00076163
0.000489502
0.000391921
0.000372295
0.000732811
0.000459769