/*--------------------------------*- C++ -*----------------------------------*\
| =========                 |                                                 |
| \\      /  F ield         | OpenFOAM: The Open Source CFD Toolbox           |
|  \\    /   O peration     | Version:  v1912                                 |
|   \\  /    A nd           | Website:  www.openfoam.com                      |
|    \\/     M anipulation  |                                                 |
\*---------------------------------------------------------------------------*/
FoamFile
{
    version     2.0;
    format      ascii;
    class       volScalarField;
    location    "97.6";
    object      p;
}
// * * * * * * * * * * * * * * * * * * * * * * * * * * * * * * * * * * * * * //

dimensions      [1 -1 -2 0 0 0 0];


internalField   nonuniform List<scalar> 
2528
(
100000
99961
99965.5
99966.9
99999.9
99961
99965.5
99966.9
99999.8
99961
99965.5
99966.9
99999.7
99961
99965.5
99966.9
99999.5
99961
99965.5
99966.9
99999.4
99961
99965.5
99966.9
99999.2
99961.1
99965.4
99966.9
99999.1
99961.1
99965.4
99966.9
99998.9
99961.1
99965.4
99966.9
99998.8
99961.1
99965.4
99966.9
99998.6
99961.1
99965.4
99966.9
99998.4
99961.1
99965.4
99966.9
99998.1
99961.2
99965.4
99967
99997.9
99961.2
99965.4
99967
99997.6
99961.2
99965.4
99967
99997.3
99961.3
99965.3
99967.1
99997
99961.3
99965.3
99967.1
99996.7
99961.4
99965.3
99967.1
99996.4
99961.4
99965.3
99967.2
99996
99961.5
99965.2
99967.2
99995.6
99961.5
99965.2
99967.3
99995.3
99961.6
99965.2
99967.3
99994.9
99961.7
99965.1
99967.4
99994.4
99961.7
99965.1
99967.5
99994
99961.8
99965
99967.5
99993.6
99961.9
99965
99967.6
99993.1
99962
99964.9
99967.7
99992.7
99962.1
99964.9
99967.7
99992.2
99962.2
99964.8
99967.8
99991.7
99962.3
99964.8
99967.9
99991.2
99962.4
99964.7
99968
99990.8
99962.5
99964.7
99968.1
99990.3
99962.7
99964.6
99968.2
99989.8
99962.8
99964.6
99968.2
99989.2
99962.9
99964.5
99968.3
99988.7
99963
99964.4
99968.4
99988.2
99963.2
99964.4
99968.5
99987.7
99963.3
99964.3
99968.6
99987.1
99963.5
99964.2
99968.7
99986.6
99963.6
99964.2
99968.8
99986
99963.7
99964.1
99968.9
99985.5
99963.9
99964
99969
99984.9
99964
99963.9
99969.1
99984.4
99964.2
99963.9
99969.2
99983.8
99964.3
99963.8
99969.3
99983.3
99964.5
99963.7
99969.4
99982.7
99964.6
99963.6
99969.5
99982.2
99964.8
99963.5
99969.5
99981.6
99964.9
99963.4
99969.6
99981.1
99965.1
99963.4
99969.7
99980.6
99965.2
99963.3
99969.8
99980.1
99965.4
99963.2
99969.8
99979.6
99965.6
99963.1
99969.9
99979.1
99965.8
99963
99970
99978.6
99965.9
99962.9
99970
99978.1
99966.1
99962.9
99970.1
99977.6
99966.2
99962.8
99970.2
99977.2
99966.4
99962.7
99970.2
99976.7
99966.5
99962.6
99970.3
99976.3
99966.7
99962.6
99970.3
99975.9
99966.8
99962.5
99970.4
99975.5
99967
99962.4
99970.4
99975.2
99967.1
99962.4
99970.4
99974.8
99967.3
99962.3
99970.5
99974.5
99967.4
99962.3
99970.5
99974.2
99967.5
99962.2
99970.5
99973.9
99967.6
99962.2
99970.5
99973.6
99967.7
99962.1
99970.6
99973.3
99967.9
99962.1
99970.6
99973.1
99968
99962
99970.6
99972.9
99968.1
99962
99970.6
99972.7
99968.2
99962
99970.6
99972.5
99968.2
99961.9
99970.6
99972.3
99968.3
99961.9
99970.6
99972.1
99968.4
99961.9
99970.6
99972
99968.5
99961.9
99970.7
99971.8
99968.6
99961.8
99970.7
99971.7
99968.6
99961.8
99970.7
99971.6
99968.7
99961.8
99970.7
99637.8
99623.6
99633.9
99617.6
99637.8
99623.6
99633.9
99617.6
99637.8
99623.6
99633.9
99617.6
99637.8
99623.6
99633.9
99617.6
99637.8
99623.6
99633.9
99617.6
99637.8
99623.6
99633.8
99617.6
99637.8
99623.6
99633.8
99617.6
99637.8
99623.6
99633.8
99617.6
99637.8
99623.6
99633.8
99617.6
99637.8
99623.6
99633.8
99617.6
99637.8
99623.6
99633.8
99617.6
99637.8
99623.6
99633.8
99617.6
99637.8
99623.7
99633.8
99617.6
99637.8
99623.7
99633.8
99617.7
99637.8
99623.7
99633.8
99617.7
99637.8
99623.7
99633.8
99617.7
99637.8
99623.7
99633.7
99617.7
99637.7
99623.7
99633.7
99617.8
99637.7
99623.7
99633.7
99617.8
99637.7
99623.7
99633.7
99617.8
99637.7
99623.8
99633.7
99617.9
99637.6
99623.8
99633.6
99617.9
99637.6
99623.8
99633.6
99618
99637.6
99623.8
99633.6
99618
99637.5
99623.9
99633.5
99618.1
99637.5
99623.9
99633.5
99618.2
99637.5
99623.9
99633.5
99618.2
99637.4
99624
99633.4
99618.3
99637.4
99624
99633.4
99618.4
99637.3
99624.1
99633.3
99618.5
99637.3
99624.1
99633.3
99618.6
99637.2
99624.1
99633.2
99618.7
99637.2
99624.2
99633.2
99618.8
99637.1
99624.2
99633.1
99618.9
99637
99624.3
99633.1
99619
99637
99624.3
99633
99619.1
99636.9
99624.4
99633
99619.2
99636.8
99624.4
99633
99619.3
99636.8
99624.4
99632.9
99619.4
99636.7
99624.5
99632.9
99619.6
99636.7
99624.5
99632.8
99619.7
99636.6
99624.6
99632.8
99619.8
99636.6
99624.7
99632.7
99620
99636.5
99624.7
99632.6
99620.1
99636.4
99624.8
99632.6
99620.2
99636.3
99624.9
99632.5
99620.4
99636.2
99624.9
99632.5
99620.5
99636.2
99625
99632.4
99620.5
99636.1
99625
99632.3
99620.6
99636
99625.1
99632.3
99620.8
99635.9
99625.2
99632.3
99620.9
99635.8
99625.2
99632.3
99621.1
99635.7
99625.3
99632.2
99621.2
99635.6
99625.4
99632.2
99621.4
99635.5
99625.4
99632.1
99621.5
99635.5
99625.5
99632
99621.7
99635.4
99625.6
99632
99621.8
99635.3
99625.6
99631.9
99622
99635.2
99625.6
99631.8
99622.1
99635.1
99625.6
99631.8
99622.3
99635.1
99625.6
99631.7
99622.4
99635
99625.7
99631.6
99622.6
99635
99625.7
99631.5
99622.7
99634.9
99625.8
99631.4
99622.9
99634.8
99625.8
99631.3
99623
99634.7
99625.9
99631.2
99623.1
99634.6
99625.9
99631.1
99623.1
99634.5
99626
99631
99623.2
99634.4
99626
99630.9
99623.3
99634.4
99626.1
99630.8
99623.4
99634.3
99626.1
99630.7
99623.5
99634.3
99626.1
99630.6
99623.7
99634.2
99626.2
99630.4
99623.8
99634.2
99626.2
99630.3
99624
99634.1
99626.3
99630.2
99624.1
99634
99626.3
99630
99624.2
99633.9
99626.4
99629.9
99624.4
99633.8
99626.4
99629.8
99624.6
99633.6
99626.5
99629.8
99624.7
99277.5
99282.2
99280.9
99283.3
99277.5
99282.2
99280.9
99283.3
99277.5
99282.2
99280.9
99283.3
99277.5
99282.2
99280.9
99283.3
99277.5
99282.2
99280.9
99283.3
99277.5
99282.2
99280.9
99283.3
99277.5
99282.2
99280.9
99283.3
99277.5
99282.2
99280.9
99283.3
99277.5
99282.2
99280.9
99283.3
99277.5
99282.2
99280.9
99283.3
99277.5
99282.2
99280.9
99283.3
99277.5
99282.2
99280.9
99283.3
99277.5
99282.2
99280.9
99283.3
99277.5
99282.2
99280.9
99283.3
99277.5
99282.2
99280.9
99283.3
99277.5
99282.2
99280.9
99283.3
99277.5
99282.2
99280.9
99283.3
99277.5
99282.2
99280.9
99283.3
99277.5
99282.2
99280.9
99283.3
99277.5
99282.2
99280.9
99283.2
99277.5
99282.2
99280.9
99283.2
99277.5
99282.2
99280.9
99283.2
99277.5
99282.2
99280.9
99283.2
99277.5
99282.2
99280.9
99283.2
99277.5
99282.2
99280.9
99283.2
99277.5
99282.2
99280.9
99283.1
99277.5
99282.2
99280.9
99283.1
99277.5
99282.2
99280.9
99283.1
99277.5
99282.2
99280.9
99283.1
99277.5
99282.2
99280.9
99283
99277.4
99282.2
99280.9
99283
99277.4
99282.2
99280.9
99283
99277.4
99282.2
99280.9
99283
99277.4
99282.2
99280.9
99282.9
99277.4
99282.2
99280.9
99282.9
99277.4
99282.2
99281
99282.8
99277.4
99282.2
99281
99282.8
99277.4
99282.2
99281
99282.8
99277.4
99282.2
99281
99282.7
99277.4
99282.2
99281
99282.7
99277.4
99282.2
99281
99282.6
99277.4
99282.2
99281
99282.6
99277.4
99282.3
99281
99282.5
99277.4
99282.3
99281
99282.4
99277.4
99282.3
99281
99282.4
99277.4
99282.3
99281
99282.3
99277.4
99282.3
99281
99282.3
99277.3
99282.3
99281
99282.2
99277.3
99282.3
99281
99282.2
99277.3
99282.3
99281
99282.1
99277.3
99282.3
99281
99282
99277.3
99282.3
99281
99282
99277.3
99282.3
99281
99281.9
99277.3
99282.3
99281
99281.8
99277.3
99282.3
99281
99281.7
99277.3
99282.3
99281
99281.7
99277.3
99282.3
99281
99281.6
99277.3
99282.3
99281
99281.5
99277.3
99282.3
99281
99281.4
99277.3
99282.3
99281
99281.3
99277.3
99282.4
99281
99281.2
99277.3
99282.4
99281
99281.2
99277.3
99282.4
99281
99281.1
99277.3
99282.4
99281
99281
99277.3
99282.4
99281
99280.9
99277.3
99282.4
99281
99280.9
99277.3
99282.4
99281
99280.8
99277.3
99282.4
99281
99280.7
99277.3
99282.4
99281
99280.7
99277.3
99282.4
99281
99280.6
99277.3
99282.4
99281
99280.5
99277.3
99282.4
99281
99280.4
99277.3
99282.4
99281
99280.3
99277.3
99282.4
99281
99280.3
99277.3
99282.4
99281
99280.2
99277.3
99282.4
99281
99280.1
99277.4
99282.4
99281
99280
99277.4
99282.4
99281.1
99279.9
99277.4
99282.4
99281.1
99279.8
99068.5
98986
99060.1
98971
99068.5
98986
99060.1
98971
99068.5
98986
99060.1
98971
99068.5
98986
99060.1
98971
99068.5
98986
99060.1
98971
99068.5
98986
99060.1
98971
99068.4
98986
99060.1
98971
99068.4
98986
99060.1
98971.1
99068.4
98986
99060
98971.1
99068.4
98986.1
99060
98971.1
99068.3
98986.1
99060
98971.2
99068.3
98986.1
99059.9
98971.2
99068.3
98986.2
99059.9
98971.3
99068.2
98986.2
99059.8
98971.4
99068.2
98986.3
99059.8
98971.4
99068.1
98986.3
99059.7
98971.5
99068
98986.4
99059.7
98971.6
99067.9
98986.5
99059.6
98971.7
99067.9
98986.6
99059.5
98971.8
99067.8
98986.7
99059.4
98972
99067.7
98986.8
99059.3
98972.1
99067.5
98986.9
99059.2
98972.2
99067.4
98987
99059
98972.4
99067.3
98987.2
99058.9
98972.6
99067.1
98987.3
99058.8
98972.8
99067
98987.5
99058.6
98973
99066.8
98987.7
99058.4
98973.2
99066.6
98987.9
99058.2
98973.5
99066.4
98988.1
99058
98973.8
99066.2
98988.3
99057.8
98974
99065.9
98988.5
99057.6
98974.4
99065.7
98988.7
99057.4
98974.7
99065.4
98989
99057.2
98975.1
99065.1
98989.3
99056.9
98975.4
99064.7
98989.6
99056.6
98975.9
99064.4
98989.9
99056.3
98976.3
99064
98990.3
99056
98976.7
99063.7
98990.7
99055.6
98977.2
99063.3
98991
99055.3
98977.7
99062.9
98991.4
99054.9
98978.3
99062.4
98991.7
99054.5
98978.8
99062
98992
99054.1
98979.4
99061.5
98992.3
99053.7
98980
99061
98992.6
99053.2
98980.6
99060.5
98993
99052.8
98981.3
99060
98993.5
99052.3
98982
99059.4
98993.9
99051.9
98982.7
99058.8
98994.3
99051.4
98983.4
99058.2
98994.8
99050.9
98984.2
99057.6
98995.2
99050.4
98985
99057
98995.7
99049.9
98985.8
99056.4
98996.1
99049.3
98986.6
99055.7
98996.6
99048.8
98987.5
99055
98997
99048.2
98988.4
99054.4
98997.5
99047.7
98989.3
99053.7
98997.9
99047.1
98990.2
99052.9
98998.4
99046.5
98991.2
99052.2
98998.9
99045.9
98992.2
99051.5
98999.3
99045.3
98993.2
99050.7
98999.8
99044.7
98994.2
99050
99000.3
99044
98995.2
99049.2
99000.7
99043.4
98996.3
99048.4
99001.2
99042.7
98997.3
99047.6
99001.7
99042.1
98998.4
99046.8
99002.2
99041.4
98999.5
99046.1
99002.6
99040.7
99000.6
99045.3
99003.1
99040
99001.7
99044.5
99003.6
99039.3
99002.9
99043.7
99004.1
99038.5
99004
99042.8
99004.6
99037.8
99005.2
99042
99005.1
99037.1
99006.3
99041.2
99005.7
99036.4
99007.5
99040.4
99006.2
99035.6
99008.8
99039.6
99006.7
99034.9
99010
99038.7
99007.2
99034.1
99011.2
99037.9
99007.8
99033.4
99012.5
99037
99008.3
99032.7
99013.8
99036.1
99008.8
99031.9
99015.1
99035.3
99009.4
99031.2
99016.4
99971.5
99968.7
99961.8
99970.7
99971.4
99968.8
99961.8
99970.7
99971.3
99968.9
99961.7
99970.7
99971.2
99968.9
99961.7
99970.7
99971.1
99969
99961.7
99970.7
99971
99969.1
99961.6
99970.7
99970.9
99969.1
99961.6
99970.7
99970.8
99969.2
99961.6
99970.7
99970.8
99969.2
99961.5
99970.7
99970.7
99969.3
99961.5
99970.7
99970.6
99969.4
99961.5
99970.7
99970.5
99969.4
99961.4
99970.7
99970.4
99969.5
99961.4
99970.7
99970.3
99969.5
99961.4
99970.6
99970.2
99969.6
99961.3
99970.6
99970.2
99969.7
99961.3
99970.6
99970.1
99969.7
99961.3
99970.6
99970
99969.8
99961.2
99970.6
99969.9
99969.8
99961.2
99970.5
99969.8
99969.9
99961.2
99970.5
99969.7
99969.9
99961.1
99970.5
99969.6
99970
99961.1
99970.4
99969.5
99970
99961.1
99970.4
99969.4
99970.1
99961.1
99970.3
99969.3
99970.1
99961
99970.3
99969.2
99970.2
99961
99970.2
99969.1
99970.2
99961
99970.2
99969
99970.3
99961
99970.1
99968.9
99970.3
99960.9
99970.1
99968.8
99970.4
99960.9
99970
99968.7
99970.4
99960.9
99970
99968.6
99970.5
99960.9
99969.9
99968.6
99970.5
99960.9
99969.8
99968.5
99970.5
99960.9
99969.8
99968.4
99970.6
99960.8
99969.7
99968.3
99970.6
99960.8
99969.6
99968.2
99970.7
99960.8
99969.6
99968.1
99970.7
99960.8
99969.5
99968.1
99970.7
99960.8
99969.4
99968
99970.7
99960.8
99969.4
99967.9
99970.8
99960.8
99969.3
99967.8
99970.8
99960.8
99969.2
99967.8
99970.8
99960.8
99969.2
99967.7
99970.9
99960.8
99969.1
99967.6
99970.9
99960.7
99969.1
99967.6
99970.9
99960.7
99969
99967.5
99970.9
99960.7
99968.9
99967.5
99970.9
99960.7
99968.9
99967.4
99971
99960.7
99968.8
99967.4
99971
99960.7
99968.8
99967.3
99971
99960.7
99968.8
99967.3
99971
99960.7
99968.7
99967.3
99971
99960.7
99968.7
99967.2
99971
99960.7
99968.6
99967.2
99971
99960.7
99968.6
99967.2
99971.1
99960.7
99968.6
99967.1
99971.1
99960.7
99968.5
99967.1
99971.1
99960.7
99968.5
99967.1
99971.1
99960.7
99968.5
99967.1
99971.1
99960.7
99968.5
99967.1
99971.1
99960.7
99968.4
99967
99971.1
99960.7
99968.4
99967
99971.1
99960.7
99968.4
99967
99971.1
99960.7
99968.4
99967
99971.1
99960.7
99968.4
99967
99971.1
99960.7
99968.4
99967
99971.1
99960.7
99968.3
99967
99971.1
99960.7
99968.3
99967
99971.1
99960.7
99968.3
99967
99971.1
99960.7
99968.3
99967
99971.1
99960.7
99968.3
99967
99971.1
99960.7
99968.3
99967
99971.1
99960.7
99968.3
99967
99971.1
99960.7
99968.3
99967
99971.1
99960.7
99968.3
99967
99971.1
99960.7
99968.3
99967
99971.1
99960.7
99968.3
99967
99971.1
99960.7
99968.3
99966.9
99971.1
99960.7
99968.3
99633.5
99626.5
99629.7
99624.9
99633.4
99626.5
99629.7
99625.1
99633.3
99626.6
99629.6
99625.4
99633.1
99626.7
99629.3
99625.5
99632.9
99626.7
99629.1
99625.7
99632.7
99626.8
99628.8
99625.8
99632.5
99627
99628.5
99626
99632.3
99627.1
99628.2
99626.4
99632.1
99627.2
99627.9
99626.8
99631.8
99627.3
99627.6
99627.3
99631.6
99627.5
99627.2
99627.8
99631.3
99627.7
99626.9
99628.3
99631
99627.8
99626.5
99628.8
99630.7
99628
99626.1
99629.4
99630.4
99628.2
99625.8
99630.1
99630.1
99628.4
99625.4
99630.8
99629.7
99628.6
99624.9
99631.5
99629.4
99628.8
99624.5
99632.2
99629
99629
99624.1
99633
99628.7
99629.3
99623.7
99633.8
99628.3
99629.5
99623.3
99634.7
99627.9
99629.7
99622.8
99635.5
99627.6
99630
99622.4
99636.3
99627.2
99630.2
99622
99636.9
99626.8
99630.5
99621.5
99637.3
99626.4
99630.8
99621.1
99637.7
99626
99631
99620.7
99638.3
99625.7
99631.3
99620.2
99639
99625.3
99631.5
99619.8
99639.9
99624.9
99631.8
99619.4
99640.8
99624.5
99632.1
99619
99641.8
99624.1
99632.3
99618.6
99642.7
99623.7
99632.6
99618.2
99643.6
99623.3
99632.8
99617.8
99644.5
99623
99633.1
99617.4
99645.3
99622.6
99633.3
99617
99646.2
99622.2
99633.6
99616.7
99647
99621.9
99633.8
99616.3
99647.8
99621.5
99634
99616
99648.5
99621.2
99634.2
99615.6
99649.3
99620.9
99634.4
99615.3
99650
99620.5
99634.6
99615
99650.7
99620.2
99634.8
99614.7
99651.4
99619.9
99635
99614.5
99652
99619.6
99635.2
99614.2
99652.6
99619.3
99635.4
99613.9
99653.2
99619.1
99635.5
99613.7
99653.7
99618.8
99635.7
99613.5
99654.3
99618.6
99635.9
99613.3
99654.7
99618.4
99636
99613.1
99655.2
99618.2
99636.1
99612.9
99655.6
99618
99636.3
99612.8
99656
99617.9
99636.4
99612.6
99656.4
99617.7
99636.5
99612.5
99656.7
99617.5
99636.6
99612.4
99657.1
99617.4
99636.7
99612.3
99657.4
99617.3
99636.7
99612.1
99657.6
99617.2
99636.8
99612
99657.9
99617.1
99636.9
99612
99658.1
99617
99637
99611.9
99658.3
99616.9
99637
99611.8
99658.4
99616.8
99637.1
99611.7
99658.6
99616.7
99637.1
99611.7
99658.7
99616.7
99637.2
99611.6
99658.8
99616.6
99637.2
99611.6
99658.9
99616.6
99637.2
99611.5
99659
99616.5
99637.3
99611.5
99659.1
99616.5
99637.3
99611.4
99659.2
99616.5
99637.3
99611.4
99659.2
99616.4
99637.3
99611.4
99659.2
99616.4
99637.3
99611.4
99659.3
99616.4
99637.4
99611.3
99659.3
99616.4
99637.4
99611.3
99659.3
99616.4
99637.4
99611.3
99659.4
99616.3
99637.4
99611.3
99659.4
99616.3
99637.4
99611.3
99659.4
99616.3
99637.4
99611.3
99659.4
99616.3
99637.4
99611.2
99659.4
99616.3
99637.4
99611.2
99659.4
99277.4
99282.4
99281.1
99279.8
99277.4
99282.3
99281.1
99279.7
99277.4
99282.3
99281.1
99279.6
99277.4
99282.3
99281.1
99279.5
99277.4
99282.3
99281.1
99279.4
99277.4
99282.2
99281.2
99279.3
99277.5
99282.2
99281.2
99279.2
99277.5
99282.2
99281.3
99279
99277.5
99282.1
99281.3
99278.9
99277.5
99282.1
99281.4
99278.8
99277.6
99282
99281.4
99278.6
99277.6
99282
99281.5
99278.5
99277.7
99281.9
99281.6
99278.3
99277.7
99281.8
99281.7
99278.2
99277.7
99281.8
99281.7
99278
99277.8
99281.7
99281.8
99277.8
99277.9
99281.6
99281.9
99277.6
99277.9
99281.6
99282
99277.5
99278
99281.5
99282.1
99277.3
99278.1
99281.4
99282.2
99277
99278.1
99281.3
99282.3
99276.8
99278.2
99281.2
99282.4
99276.6
99278.3
99281.1
99282.5
99276.4
99278.4
99281
99282.6
99276.2
99278.4
99280.9
99282.7
99276
99278.5
99280.8
99282.8
99275.8
99278.6
99280.7
99282.9
99275.6
99278.7
99280.6
99283
99275.4
99278.8
99280.5
99283.1
99275.2
99278.9
99280.4
99283.2
99274.9
99279
99280.3
99283.3
99274.7
99279.1
99280.2
99283.4
99274.4
99279.2
99280.1
99283.5
99274.2
99279.3
99280
99283.6
99273.9
99279.4
99279.9
99283.7
99273.7
99279.5
99279.9
99283.8
99273.5
99279.6
99279.8
99283.9
99273.3
99279.7
99279.7
99284
99273
99279.8
99279.6
99284.1
99272.8
99279.9
99279.5
99284.2
99272.6
99280
99279.4
99284.3
99272.4
99280.1
99279.3
99284.4
99272.2
99280.1
99279.2
99284.5
99272
99280.2
99279.2
99284.5
99271.8
99280.3
99279.1
99284.6
99271.6
99280.4
99279
99284.7
99271.4
99280.5
99279
99284.8
99271.3
99280.6
99278.9
99284.8
99271.1
99280.6
99278.8
99284.9
99270.9
99280.7
99278.8
99285
99270.8
99280.8
99278.7
99285
99270.6
99280.8
99278.7
99285.1
99270.5
99280.9
99278.6
99285.1
99270.4
99280.9
99278.6
99285.2
99270.2
99281
99278.5
99285.2
99270.1
99281
99278.5
99285.3
99270
99281.1
99278.5
99285.3
99269.9
99281.1
99278.4
99285.3
99269.8
99281.2
99278.4
99285.4
99269.7
99281.2
99278.4
99285.4
99269.7
99281.2
99278.3
99285.4
99269.6
99281.3
99278.3
99285.4
99269.6
99281.3
99278.3
99285.5
99269.5
99281.3
99278.3
99285.5
99269.5
99281.3
99278.3
99285.5
99269.4
99281.3
99278.3
99285.5
99269.4
99281.4
99278.3
99285.5
99269.4
99281.4
99278.2
99285.5
99269.3
99281.4
99278.2
99285.5
99269.3
99281.4
99278.2
99285.5
99269.3
99281.4
99278.2
99285.6
99269.3
99281.4
99278.2
99285.6
99269.3
99281.4
99278.2
99285.6
99269.2
99281.4
99278.2
99285.6
99269.2
99281.4
99278.2
99285.6
99269.2
99281.4
99278.2
99285.6
99269.2
99281.4
99278.2
99285.6
99269.2
99281.4
99278.2
99285.6
99269.2
99281.4
99278.2
99285.6
99269.2
99034.3
99009.9
99030.4
99017.8
99033.4
99010.5
99029.6
99019.2
99032.3
99011.1
99028.7
99020.8
99031.2
99011.8
99027.8
99022.5
99029.9
99012.5
99026.8
99024.3
99028.6
99013.3
99025.8
99026.3
99027.2
99014.1
99024.7
99028.4
99025.8
99015
99023.5
99030.6
99024.3
99016
99022.2
99032.9
99022.7
99016.9
99021
99035.4
99021.1
99017.9
99019.6
99037.9
99019.4
99019
99018.2
99040.6
99017.7
99020.1
99016.8
99043.4
99016
99021.3
99015.3
99046.2
99014.2
99022.4
99013.7
99049.2
99012.4
99023.7
99012.1
99052.2
99010.8
99024.9
99010.5
99055.2
99009.5
99026.2
99008.8
99058.3
99008.7
99027.5
99007.1
99061.5
99007.8
99028.8
99005.4
99064.7
99006.6
99030.2
99003.6
99067.9
99004.8
99031.6
99001.8
99071.2
99002.8
99033
98999.9
99074.6
99000.8
99034.4
98998.1
99078.1
98998.8
99035.8
98996.2
99081.7
98996.8
99037.3
98994.4
99084.9
98994.8
99038.7
98992.9
99087.3
98992.7
99040.1
98991.7
99089
98990.7
99041.6
98990.6
99090.6
98988.8
99043
98989.3
99092.7
98987.3
99044.4
98987.7
99095.7
98986.1
99045.9
98985.8
99099.3
98985
99047.3
98983.9
99103
98983.7
99048.7
98982
99106.5
98982.2
99050.1
98980.1
99109.9
98980.4
99051.4
98978.3
99113.3
98978.5
99052.8
98976.5
99116.7
98976.7
99054.1
98974.8
99120
98975
99055.4
98973.1
99122.9
98973.3
99056.6
98971.6
99125.3
98971.7
99057.9
98970
99127.3
98970.2
99059.1
98968.5
99129.4
98968.8
99060.2
98967.1
99131.6
98967.5
99061.3
98965.7
99134.2
98966.2
99062.4
98964.3
99136.8
98964.9
99063.4
98963
99139.2
98963.7
99064.4
98961.7
99141.5
98962.5
99065.4
98960.6
99143.6
98961.4
99066.3
98959.4
99145.5
98960.3
99067.1
98958.4
99147.3
98959.3
99067.9
98957.4
99149
98958.4
99068.7
98956.5
99150.6
98957.5
99069.3
98955.6
99152
98956.7
99070
98954.8
99153.4
98955.9
99070.6
98954.1
99154.6
98955.2
99071.1
98953.4
99155.7
98954.5
99071.6
98952.8
99156.7
98953.9
99072.1
98952.2
99157.7
98953.4
99072.5
98951.7
99158.5
98952.9
99072.9
98951.3
99159.2
98952.5
99073.2
98950.9
99159.9
98952.1
99073.5
98950.5
99160.4
98951.8
99073.7
98950.2
99160.9
98951.5
99073.9
98950
99161.4
98951.2
99074.1
98949.7
99161.7
98951
99074.3
98949.5
99162
98950.8
99074.4
98949.4
99162.3
98950.7
99074.5
98949.2
99162.5
98950.5
99074.7
98949.1
99162.7
98950.4
99074.7
98949
99162.9
98950.3
99074.8
98948.8
99163
98950.2
99074.9
98948.7
99163.1
98950.1
99075
98948.7
99163.2
98950.1
99075
98948.6
99163.3
98950
99075.1
98948.5
99163.4
98949.9
99075.1
98948.4
99163.5
98949.9
99075.2
98948.4
99163.5
98949.9
99075.2
98948.4
99163.6
98949.9
99075.2
98948.4
99163.6
)
;

boundaryField
{
    leftWall
    {
        type            calculated;
        value           nonuniform List<scalar> 
16
(
100000
99637.8
99277.5
99068.5
99961
99623.6
99282.2
98986
99965.5
99633.9
99280.9
99060.1
99966.9
99617.6
99283.3
98971
)
;
    }
    rightWall
    {
        type            calculated;
        value           nonuniform List<scalar> 
16
(
99966.9
99616.3
99281.4
98949.9
99971.1
99637.4
99278.2
99075.2
99960.7
99611.2
99285.6
98948.4
99968.3
99659.4
99269.2
99163.6
)
;
    }
    leftSides_periodic0
    {
        type            cyclic;
    }
    leftSides_periodic1
    {
        type            cyclic;
    }
    rightSides_periodic0
    {
        type            cyclic;
    }
    rightSides_periodic1
    {
        type            cyclic;
    }
    leftInOut_periodic0
    {
        type            cyclic;
    }
    leftInOut_periodic1
    {
        type            cyclic;
    }
    rightInOut_periodic0
    {
        type            cyclic;
    }
    rightInOut_periodic1
    {
        type            cyclic;
    }
}


// ************************************************************************* //
