0 	0 	0 	0
5.01672e-05 	2.92682e-07 	-2.78673e-06 	0.0195229
0.000100334 	5.85364e-07 	-5.57346e-06 	0.0390459
0.000150502 	8.78047e-07 	-8.36019e-06 	0.0585688
0.000200669 	1.17073e-06 	-1.11469e-05 	0.0780917
0.000250836 	1.46341e-06 	-1.39337e-05 	0.0976147
0.000301003 	1.75609e-06 	-1.67204e-05 	0.117138
0.000351171 	1.41092e-06 	-2.02623e-05 	0.134598
0.000401338 	-1.34635e-06 	-2.66598e-05 	0.144261
0.000451505 	-4.10362e-06 	-3.30573e-05 	0.153923
0.000501672 	-6.86088e-06 	-3.94548e-05 	0.163585
0.000551839 	-9.61815e-06 	-4.58523e-05 	0.173247
0.000602007 	-1.23754e-05 	-5.22498e-05 	0.182909
0.000652174 	-1.51327e-05 	-5.86473e-05 	0.192572
0.000702341 	-1.78899e-05 	-6.50448e-05 	0.202234
0.000752508 	-2.04744e-05 	-7.15707e-05 	0.210617
0.000802676 	-2.26304e-05 	-7.84149e-05 	0.215829
0.000852843 	-2.47864e-05 	-8.52591e-05 	0.22104
0.00090301 	-2.69424e-05 	-9.21033e-05 	0.226252
0.000953177 	-2.90984e-05 	-9.89475e-05 	0.231464
0.00100334 	-3.12544e-05 	-0.000105792 	0.236675
0.00105351 	-3.34104e-05 	-0.000112636 	0.241887
0.00110368 	-3.55664e-05 	-0.00011948 	0.247099
0.00115385 	-3.77224e-05 	-0.000126324 	0.25231
0.00120401 	-3.98163e-05 	-0.000133093 	0.25742
0.00125418 	-4.0636e-05 	-0.000138318 	0.260443
0.00130435 	-4.14557e-05 	-0.000143543 	0.263465
0.00135452 	-4.22754e-05 	-0.000148768 	0.266487
0.00140468 	-4.30951e-05 	-0.000153993 	0.26951
0.00145485 	-4.39148e-05 	-0.000159218 	0.272532
0.00150502 	-4.47346e-05 	-0.000164443 	0.275554
0.00155518 	-4.55543e-05 	-0.000169668 	0.278577
0.00160535 	-4.6374e-05 	-0.000174893 	0.281599
0.00165552 	-4.71937e-05 	-0.000180117 	0.284621
0.00170569 	-4.80134e-05 	-0.000185342 	0.287644
0.00175585 	-4.86133e-05 	-0.000190079 	0.290382
0.00180602 	-4.8609e-05 	-0.000193472 	0.292337
0.00185619 	-4.86046e-05 	-0.000196866 	0.294293
0.00190635 	-4.86003e-05 	-0.000200259 	0.296248
0.00195652 	-4.85959e-05 	-0.000203653 	0.298204
0.00200669 	-4.85916e-05 	-0.000207046 	0.300159
0.00205686 	-4.85872e-05 	-0.00021044 	0.302115
0.00210702 	-4.85828e-05 	-0.000213833 	0.30407
0.00215719 	-4.85785e-05 	-0.000217227 	0.306026
0.00220736 	-4.85741e-05 	-0.00022062 	0.307982
0.00225753 	-4.85698e-05 	-0.000224014 	0.309937
0.00230769 	-4.85654e-05 	-0.000227407 	0.311893
0.00235786 	-4.85611e-05 	-0.000230801 	0.313848
0.00240803 	-4.8337e-05 	-0.000232948 	0.315369
0.00245819 	-4.80151e-05 	-0.000234539 	0.316696
0.00250836 	-4.76931e-05 	-0.00023613 	0.318023
0.00255853 	-4.73712e-05 	-0.000237721 	0.319349
0.0026087 	-4.70492e-05 	-0.000239312 	0.320676
0.00265886 	-4.67273e-05 	-0.000240903 	0.322003
0.00270903 	-4.64053e-05 	-0.000242494 	0.32333
0.0027592 	-4.60833e-05 	-0.000244085 	0.324657
0.00280936 	-4.57614e-05 	-0.000245676 	0.325983
0.00285953 	-4.54394e-05 	-0.000247267 	0.32731
0.0029097 	-4.51175e-05 	-0.000248859 	0.328637
0.00295987 	-4.47955e-05 	-0.00025045 	0.329964
0.00301003 	-4.44736e-05 	-0.000252041 	0.331291
0.0030602 	-4.41516e-05 	-0.000253632 	0.332617
0.00311037 	-4.38293e-05 	-0.000255198 	0.333934
0.00316054 	-4.34913e-05 	-0.000255709 	0.33483
0.0032107 	-4.31533e-05 	-0.00025622 	0.335726
0.00326087 	-4.28152e-05 	-0.00025673 	0.336622
0.00331104 	-4.24772e-05 	-0.000257241 	0.337518
0.0033612 	-4.21392e-05 	-0.000257751 	0.338414
0.00341137 	-4.18012e-05 	-0.000258262 	0.33931
0.00346154 	-4.14632e-05 	-0.000258772 	0.340206
0.00351171 	-4.11251e-05 	-0.000259283 	0.341102
0.00356187 	-4.07871e-05 	-0.000259794 	0.341998
0.00361204 	-4.04491e-05 	-0.000260304 	0.342894
0.00366221 	-4.01111e-05 	-0.000260815 	0.34379
0.00371237 	-3.97731e-05 	-0.000261325 	0.344686
0.00376254 	-3.9435e-05 	-0.000261836 	0.345581
0.00381271 	-3.9097e-05 	-0.000262346 	0.346477
0.00386288 	-3.8759e-05 	-0.000262857 	0.347373
0.00391304 	-3.8421e-05 	-0.000263368 	0.348269
0.00396321 	-3.8083e-05 	-0.000263878 	0.349165
0.00401338 	-3.78294e-05 	-0.000263974 	0.349767
0.00406355 	-3.75841e-05 	-0.000264028 	0.35034
0.00411371 	-3.73388e-05 	-0.000264083 	0.350914
0.00416388 	-3.70935e-05 	-0.000264138 	0.351487
0.00421405 	-3.68482e-05 	-0.000264193 	0.35206
0.00426421 	-3.66029e-05 	-0.000264247 	0.352633
0.00431438 	-3.63576e-05 	-0.000264302 	0.353206
0.00436455 	-3.61123e-05 	-0.000264357 	0.35378
0.00441472 	-3.5867e-05 	-0.000264412 	0.354353
0.00446488 	-3.56217e-05 	-0.000264466 	0.354926
0.00451505 	-3.53764e-05 	-0.000264521 	0.355499
0.00456522 	-3.51311e-05 	-0.000264576 	0.356072
0.00461538 	-3.48858e-05 	-0.000264631 	0.356646
0.00466555 	-3.46405e-05 	-0.000264685 	0.357219
0.00471572 	-3.43952e-05 	-0.00026474 	0.357792
0.00476589 	-3.41499e-05 	-0.000264795 	0.358365
0.00481605 	-3.39046e-05 	-0.00026485 	0.358938
0.00486622 	-3.36593e-05 	-0.000264904 	0.359512
0.00491639 	-3.3414e-05 	-0.000264959 	0.360085
0.00496656 	-3.31687e-05 	-0.000265014 	0.360658
0.00501672 	-3.30093e-05 	-0.000264843 	0.360982
0.00506689 	-3.28546e-05 	-0.00026466 	0.361293
0.00511706 	-3.26998e-05 	-0.000264477 	0.361604
0.00516722 	-3.2545e-05 	-0.000264293 	0.361915
0.00521739 	-3.23902e-05 	-0.00026411 	0.362226
0.00526756 	-3.22354e-05 	-0.000263927 	0.362537
0.00531773 	-3.20806e-05 	-0.000263744 	0.362848
0.00536789 	-3.19258e-05 	-0.000263561 	0.363159
0.00541806 	-3.1771e-05 	-0.000263378 	0.36347
0.00546823 	-3.16163e-05 	-0.000263194 	0.363781
0.00551839 	-3.14615e-05 	-0.000263011 	0.364092
0.00556856 	-3.13067e-05 	-0.000262828 	0.364403
0.00561873 	-3.11519e-05 	-0.000262645 	0.364714
0.0056689 	-3.09971e-05 	-0.000262462 	0.365025
0.00571906 	-3.08423e-05 	-0.000262279 	0.365336
0.00576923 	-3.06875e-05 	-0.000262095 	0.365647
0.0058194 	-3.05327e-05 	-0.000261912 	0.365958
0.00586957 	-3.0378e-05 	-0.000261729 	0.366269
0.00591973 	-3.02232e-05 	-0.000261546 	0.36658
0.0059699 	-3.00684e-05 	-0.000261363 	0.366891
0.00602007 	-2.99136e-05 	-0.00026118 	0.367202
0.00607023 	-2.97588e-05 	-0.000260996 	0.367513
0.0061204 	-2.9604e-05 	-0.000260813 	0.367824
0.00617057 	-2.94917e-05 	-0.000260488 	0.367977
0.00622074 	-2.9401e-05 	-0.000260091 	0.368051
0.0062709 	-2.93102e-05 	-0.000259694 	0.368124
0.00632107 	-2.92195e-05 	-0.000259296 	0.368197
0.00637124 	-2.91287e-05 	-0.000258899 	0.368271
0.0064214 	-2.9038e-05 	-0.000258502 	0.368344
0.00647157 	-2.89473e-05 	-0.000258105 	0.368417
0.00652174 	-2.88565e-05 	-0.000257707 	0.368491
0.00657191 	-2.87658e-05 	-0.00025731 	0.368564
0.00662207 	-2.8675e-05 	-0.000256913 	0.368637
0.00667224 	-2.85843e-05 	-0.000256516 	0.368711
0.00672241 	-2.84935e-05 	-0.000256118 	0.368784
0.00677258 	-2.84028e-05 	-0.000255721 	0.368857
0.00682274 	-2.8312e-05 	-0.000255324 	0.368931
0.00687291 	-2.82213e-05 	-0.000254927 	0.369004
0.00692308 	-2.81305e-05 	-0.000254529 	0.369078
0.00697324 	-2.80398e-05 	-0.000254132 	0.369151
0.00702341 	-2.7949e-05 	-0.000253735 	0.369224
0.00707358 	-2.78583e-05 	-0.000253337 	0.369298
0.00712375 	-2.77676e-05 	-0.00025294 	0.369371
0.00717391 	-2.76768e-05 	-0.000252543 	0.369444
0.00722408 	-2.75861e-05 	-0.000252146 	0.369518
0.00727425 	-2.74953e-05 	-0.000251748 	0.369591
0.00732441 	-2.74046e-05 	-0.000251351 	0.369664
0.00737458 	-2.73138e-05 	-0.000250954 	0.369738
0.00742475 	-2.72231e-05 	-0.000250557 	0.369811
0.00747492 	-2.71323e-05 	-0.000250159 	0.369884
0.00752508 	-2.70665e-05 	-0.000249658 	0.369847
0.00757525 	-2.70255e-05 	-0.000249051 	0.369698
0.00762542 	-2.69845e-05 	-0.000248445 	0.369549
0.00767559 	-2.69436e-05 	-0.000247838 	0.3694
0.00772575 	-2.69026e-05 	-0.000247232 	0.369251
0.00777592 	-2.68616e-05 	-0.000246626 	0.369102
0.00782609 	-2.68207e-05 	-0.000246019 	0.368953
0.00787625 	-2.67797e-05 	-0.000245413 	0.368804
0.00792642 	-2.67387e-05 	-0.000244806 	0.368655
0.00797659 	-2.66977e-05 	-0.0002442 	0.368506
0.00802676 	-2.66568e-05 	-0.000243593 	0.368357
0.00807692 	-2.66158e-05 	-0.000242987 	0.368208
0.00812709 	-2.65748e-05 	-0.000242381 	0.36806
0.00817726 	-2.65339e-05 	-0.000241774 	0.367911
0.00822742 	-2.64929e-05 	-0.000241168 	0.367762
0.00827759 	-2.64519e-05 	-0.000240561 	0.367613
0.00832776 	-2.6411e-05 	-0.000239955 	0.367464
0.00837793 	-2.637e-05 	-0.000239349 	0.367315
0.00842809 	-2.6329e-05 	-0.000238742 	0.367166
0.00847826 	-2.62881e-05 	-0.000238136 	0.367017
0.00852843 	-2.62471e-05 	-0.000237529 	0.366868
0.0085786 	-2.62061e-05 	-0.000236923 	0.366719
0.00862876 	-2.61651e-05 	-0.000236316 	0.36657
0.00867893 	-2.61242e-05 	-0.00023571 	0.366421
0.0087291 	-2.60832e-05 	-0.000235104 	0.366272
0.00877926 	-2.60422e-05 	-0.000234497 	0.366123
0.00882943 	-2.60013e-05 	-0.000233891 	0.365975
0.0088796 	-2.59837e-05 	-0.000233214 	0.36574
0.00892977 	-2.60123e-05 	-0.000232399 	0.365337
0.00897993 	-2.60409e-05 	-0.000231584 	0.364934
0.0090301 	-2.60695e-05 	-0.000230768 	0.364531
0.00908027 	-2.60982e-05 	-0.000229953 	0.364129
0.00913043 	-2.61268e-05 	-0.000229138 	0.363726
0.0091806 	-2.61554e-05 	-0.000228323 	0.363323
0.00923077 	-2.6184e-05 	-0.000227507 	0.36292
0.00928094 	-2.62126e-05 	-0.000226692 	0.362517
0.0093311 	-2.62412e-05 	-0.000225877 	0.362114
0.00938127 	-2.62698e-05 	-0.000225061 	0.361711
0.00943144 	-2.62984e-05 	-0.000224246 	0.361308
0.00948161 	-2.6327e-05 	-0.000223431 	0.360905
0.00953177 	-2.63556e-05 	-0.000222616 	0.360502
0.00958194 	-2.63843e-05 	-0.0002218 	0.3601
0.00963211 	-2.64129e-05 	-0.000220985 	0.359697
0.00968227 	-2.64415e-05 	-0.00022017 	0.359294
0.00973244 	-2.64701e-05 	-0.000219355 	0.358891
0.00978261 	-2.64987e-05 	-0.000218539 	0.358488
0.00983278 	-2.65273e-05 	-0.000217724 	0.358085
0.00988294 	-2.65559e-05 	-0.000216909 	0.357682
0.00993311 	-2.65845e-05 	-0.000216094 	0.357279
0.00998328 	-2.66131e-05 	-0.000215278 	0.356876
0.0100334 	-2.6647e-05 	-0.000214449 	0.356459
0.0100836 	-2.67783e-05 	-0.000213348 	0.355773
0.0101338 	-2.69097e-05 	-0.000212248 	0.355086
0.0101839 	-2.7041e-05 	-0.000211148 	0.3544
0.0102341 	-2.71724e-05 	-0.000210048 	0.353713
0.0102843 	-2.73037e-05 	-0.000208948 	0.353027
0.0103344 	-2.74351e-05 	-0.000207847 	0.35234
0.0103846 	-2.75664e-05 	-0.000206747 	0.351654
0.0104348 	-2.76978e-05 	-0.000205647 	0.350967
0.0104849 	-2.78291e-05 	-0.000204547 	0.350281
0.0105351 	-2.79605e-05 	-0.000203447 	0.349595
0.0105853 	-2.80918e-05 	-0.000202346 	0.348908
0.0106355 	-2.82232e-05 	-0.000201246 	0.348222
0.0106856 	-2.83545e-05 	-0.000200146 	0.347535
0.0107358 	-2.84859e-05 	-0.000199046 	0.346849
0.010786 	-2.86172e-05 	-0.000197946 	0.346162
0.0108361 	-2.87486e-05 	-0.000196846 	0.345476
0.0108863 	-2.88799e-05 	-0.000195745 	0.344789
0.0109365 	-2.90113e-05 	-0.000194645 	0.344103
0.0109866 	-2.91426e-05 	-0.000193545 	0.343417
0.0110368 	-2.92842e-05 	-0.000192388 	0.342697
0.011087 	-2.95303e-05 	-0.000190653 	0.341645
0.0111371 	-2.97764e-05 	-0.000188918 	0.340592
0.0111873 	-3.00225e-05 	-0.000187182 	0.339539
0.0112375 	-3.02686e-05 	-0.000185447 	0.338486
0.0112876 	-3.05147e-05 	-0.000183712 	0.337433
0.0113378 	-3.07607e-05 	-0.000181977 	0.336381
0.011388 	-3.10068e-05 	-0.000180241 	0.335328
0.0114381 	-3.12529e-05 	-0.000178506 	0.334275
0.0114883 	-3.1499e-05 	-0.000176771 	0.333222
0.0115385 	-3.17451e-05 	-0.000175036 	0.33217
0.0115886 	-3.19911e-05 	-0.0001733 	0.331117
0.0116388 	-3.22372e-05 	-0.000171565 	0.330064
0.011689 	-3.24833e-05 	-0.00016983 	0.329011
0.0117391 	-3.27294e-05 	-0.000168095 	0.327959
0.0117893 	-3.29755e-05 	-0.000166359 	0.326906
0.0118395 	-3.32216e-05 	-0.000164624 	0.325853
0.0118896 	-3.34676e-05 	-0.000162889 	0.3248
0.0119398 	-3.37609e-05 	-0.000160115 	0.323213
0.01199 	-3.40552e-05 	-0.000157316 	0.321613
0.0120401 	-3.43495e-05 	-0.000154518 	0.320013
0.0120903 	-3.46439e-05 	-0.00015172 	0.318414
0.0121405 	-3.49382e-05 	-0.000148921 	0.316814
0.0121906 	-3.52325e-05 	-0.000146123 	0.315214
0.0122408 	-3.55268e-05 	-0.000143325 	0.313615
0.012291 	-3.58212e-05 	-0.000140526 	0.312015
0.0123411 	-3.61155e-05 	-0.000137728 	0.310415
0.0123913 	-3.64098e-05 	-0.00013493 	0.308816
0.0124415 	-3.67042e-05 	-0.000132131 	0.307216
0.0124916 	-3.69985e-05 	-0.000129333 	0.305616
0.0125418 	-3.72928e-05 	-0.000126535 	0.304017
0.012592 	-3.75871e-05 	-0.000123736 	0.302417
0.0126421 	-3.78238e-05 	-0.000120552 	0.300538
0.0126923 	-3.79311e-05 	-0.000116502 	0.298031
0.0127425 	-3.80384e-05 	-0.000112452 	0.295525
0.0127926 	-3.81457e-05 	-0.000108402 	0.293018
0.0128428 	-3.8253e-05 	-0.000104352 	0.290512
0.012893 	-3.83603e-05 	-0.000100301 	0.288005
0.0129431 	-3.84676e-05 	-9.62513e-05 	0.285499
0.0129933 	-3.85748e-05 	-9.22012e-05 	0.282992
0.0130435 	-3.86821e-05 	-8.81511e-05 	0.280486
0.0130936 	-3.87894e-05 	-8.4101e-05 	0.277979
0.0131438 	-3.88967e-05 	-8.00509e-05 	0.275473
0.013194 	-3.9004e-05 	-7.60008e-05 	0.272967
0.0132441 	-3.91113e-05 	-7.19507e-05 	0.27046
0.0132943 	-3.87369e-05 	-6.77027e-05 	0.266748
0.0133445 	-3.81872e-05 	-6.33826e-05 	0.262597
0.0133946 	-3.76376e-05 	-5.90626e-05 	0.258447
0.0134448 	-3.7088e-05 	-5.47425e-05 	0.254296
0.013495 	-3.65384e-05 	-5.04224e-05 	0.250145
0.0135452 	-3.59887e-05 	-4.61024e-05 	0.245995
0.0135953 	-3.54391e-05 	-4.17823e-05 	0.241844
0.0136455 	-3.48895e-05 	-3.74623e-05 	0.237693
0.0136957 	-3.43399e-05 	-3.31422e-05 	0.233543
0.0137458 	-3.37903e-05 	-2.88221e-05 	0.229392
0.013796 	-3.32406e-05 	-2.45021e-05 	0.225241
0.0138462 	-3.16205e-05 	-2.13666e-05 	0.218014
0.0138963 	-2.99482e-05 	-1.82887e-05 	0.210636
0.0139465 	-2.82759e-05 	-1.52109e-05 	0.203258
0.0139967 	-2.66035e-05 	-1.21331e-05 	0.195881
0.0140468 	-2.49312e-05 	-9.05532e-06 	0.188503
0.014097 	-2.32589e-05 	-5.97751e-06 	0.181125
0.0141472 	-2.15866e-05 	-2.89971e-06 	0.173748
0.0141973 	-1.99143e-05 	1.78102e-07 	0.16637
0.0142475 	-1.8242e-05 	3.25591e-06 	0.158992
0.0142977 	-1.64418e-05 	4.35746e-06 	0.149139
0.0143478 	-1.45901e-05 	4.66196e-06 	0.138287
0.014398 	-1.27383e-05 	4.96646e-06 	0.127435
0.0144482 	-1.08866e-05 	5.27096e-06 	0.116583
0.0144983 	-9.03484e-06 	5.57547e-06 	0.105731
0.0145485 	-7.1831e-06 	5.87997e-06 	0.0948794
0.0145987 	-5.33137e-06 	6.18447e-06 	0.0840275
0.0146488 	-3.47963e-06 	6.48898e-06 	0.0731756
0.014699 	-2.73223e-06 	5.78954e-06 	0.0626484
0.0147492 	-2.27686e-06 	4.82461e-06 	0.052207
0.0147993 	-1.82148e-06 	3.85969e-06 	0.0417656
0.0148495 	-1.36611e-06 	2.89477e-06 	0.0313242
0.0148997 	-9.10742e-07 	1.92985e-06 	0.0208828
0.0149498 	-4.55371e-07 	9.64923e-07 	0.0104414
0.015 	0 	0 	0
