-0.0075 	0 	0 	0
-0.00745622 	3.3016e-05 	-1.45761e-07 	0.0162046
-0.00741165 	-6.33859e-06 	-3.30936e-06 	0.0309722
-0.00736628 	-5.99595e-05 	-9.55724e-06 	0.0447462
-0.0073201 	-9.24317e-05 	-2.04415e-05 	0.0578418
-0.00727309 	-0.000104136 	-3.41254e-05 	0.0703182
-0.00722524 	-0.000101535 	-5.10488e-05 	0.0821693
-0.00717653 	-8.63954e-05 	-7.09015e-05 	0.0934115
-0.00712695 	-5.9059e-05 	-9.34834e-05 	0.104056
-0.00707647 	-1.97499e-05 	-0.000118531 	0.1141
-0.0070251 	3.10165e-05 	-0.000145741 	0.123539
-0.0069728 	9.23403e-05 	-0.000174833 	0.132375
-0.00691956 	0.000162919 	-0.00020564 	0.140627
-0.00686537 	0.000241189 	-0.00023796 	0.148337
-0.00681021 	0.000325186 	-0.000271567 	0.15555
-0.00675406 	0.000412631 	-0.000306251 	0.162304
-0.0066969 	0.000501542 	-0.000341793 	0.16863
-0.00663871 	0.000590401 	-0.000378028 	0.174557
-0.00657949 	0.000677934 	-0.000414798 	0.18011
-0.0065192 	0.000762993 	-0.000451933 	0.185316
-0.00645783 	0.000844491 	-0.000489287 	0.190197
-0.00639535 	0.00092137 	-0.000526727 	0.194776
-0.00633176 	0.000992574 	-0.000564126 	0.199071
-0.00626703 	0.00105705 	-0.000601382 	0.203101
-0.00620114 	0.00111364 	-0.000638459 	0.206883
-0.00613406 	0.00116089 	-0.00067532 	0.21043
-0.00606579 	0.00119714 	-0.000711756 	0.213756
-0.00599629 	0.00122087 	-0.000747548 	0.216876
-0.00592554 	0.00123082 	-0.000782767 	0.2198
-0.00585352 	0.00122614 	-0.000817529 	0.222536
-0.00578022 	0.00120635 	-0.000851708 	0.225089
-0.00570559 	0.00117117 	-0.000885195 	0.227468
-0.00562963 	0.00112073 	-0.000918149 	0.229686
-0.00555231 	0.00105562 	-0.000950666 	0.231757
-0.0054736 	0.000976774 	-0.000982688 	0.233695
-0.00539348 	0.000885311 	-0.00101423 	0.235509
-0.00531193 	0.000782424 	-0.0010452 	0.237209
-0.00522891 	0.000669399 	-0.00107547 	0.2388
-0.0051444 	0.000547611 	-0.00110489 	0.240287
-0.00505838 	0.000418687 	-0.00113327 	0.241677
-0.00497081 	0.000284569 	-0.00116069 	0.242976
-0.00488168 	0.000147261 	-0.00118716 	0.244192
-0.00479094 	8.5744e-06 	-0.00121252 	0.245331
-0.00469858 	-0.000130003 	-0.00123662 	0.246401
-0.00460456 	-0.000267371 	-0.00125931 	0.247407
-0.00450886 	-0.000402843 	-0.00128048 	0.248355
-0.00441144 	-0.000536157 	-0.0013001 	0.249249
-0.00431227 	-0.000667451 	-0.00131811 	0.250095
-0.00421133 	-0.000797202 	-0.00133446 	0.250892
-0.00410857 	-0.000926121 	-0.00134928 	0.251643
-0.00400397 	-0.00105502 	-0.00136256 	0.252349
-0.0038975 	-0.00118465 	-0.00137409 	0.253008
-0.00378912 	-0.00131544 	-0.00138383 	0.253624
-0.00367879 	-0.00144745 	-0.00139173 	0.254198
-0.00356649 	-0.00158023 	-0.00139757 	0.254733
-0.00345217 	-0.00171299 	-0.00140119 	0.255234
-0.0033358 	-0.00184477 	-0.00140253 	0.255704
-0.00321735 	-0.00197492 	-0.00140154 	0.256145
-0.00309677 	-0.00210322 	-0.00139818 	0.256558
-0.00297403 	-0.00222978 	-0.00139233 	0.256943
-0.00284909 	-0.00235497 	-0.00138398 	0.257301
-0.0027219 	-0.00247946 	-0.00137324 	0.257632
-0.00259244 	-0.00260407 	-0.00136024 	0.257938
-0.00246065 	-0.00272941 	-0.00134505 	0.258218
-0.00232651 	-0.00285557 	-0.00132765 	0.258472
-0.00218995 	-0.00298215 	-0.00130798 	0.258701
-0.00205095 	-0.00310847 	-0.00128599 	0.258904
-0.00190946 	-0.00323376 	-0.00126165 	0.259082
-0.00176543 	-0.00335721 	-0.00123496 	0.259234
-0.00161881 	-0.00347796 	-0.00120591 	0.259361
-0.00146957 	-0.00359502 	-0.00117454 	0.259462
-0.00131765 	-0.00370736 	-0.00114086 	0.259538
-0.001163 	-0.00381383 	-0.00110496 	0.259589
-0.00100559 	-0.00391317 	-0.00106694 	0.259615
-0.000845345 	-0.00400403 	-0.00102694 	0.259615
-0.000682232 	-0.00408487 	-0.000985176 	0.259591
-0.000516194 	-0.00415397 	-0.000941911 	0.259543
-0.000347178 	-0.0042094 	-0.000897305 	0.259474
-0.000175132 	-0.00425019 	-0.000851559 	0.259381
0 	-0.00427477 	-0.000805365 	0.25926
0.000175132 	-0.00428045 	-0.000759627 	0.259111
0.000347178 	-0.00426569 	-0.000715084 	0.258943
0.000516194 	-0.00422867 	-0.000671718 	0.258766
0.000682232 	-0.00416758 	-0.00062929 	0.258586
0.000845345 	-0.00408164 	-0.000587854 	0.258403
0.00100559 	-0.00396982 	-0.000547357 	0.258218
0.001163 	-0.00383068 	-0.000507806 	0.258032
0.00131765 	-0.00366244 	-0.000469264 	0.257846
0.00146957 	-0.00346341 	-0.000431788 	0.25766
0.00161881 	-0.00323233 	-0.000395369 	0.257473
0.00176543 	-0.00296853 	-0.000359925 	0.257286
0.00190946 	-0.00267188 	-0.00032536 	0.257096
0.00205095 	-0.00234263 	-0.000291617 	0.256899
0.00218995 	-0.00198131 	-0.000258712 	0.256691
0.00232651 	-0.00158871 	-0.000226694 	0.256469
0.00246065 	-0.00116587 	-0.000195608 	0.256226
0.00259244 	-0.000714043 	-0.000165469 	0.255959
0.0027219 	-0.000234781 	-0.000136273 	0.255662
0.00284909 	0.000270118 	-0.000108044 	0.255332
0.00297403 	0.000798554 	-8.08545e-05 	0.254964
0.00309677 	0.0013481 	-5.4814e-05 	0.254557
0.00321735 	0.001916 	-3.00303e-05 	0.254106
0.0033358 	0.00249918 	-6.55075e-06 	0.253611
0.00345217 	0.0030943 	1.56347e-05 	0.25307
0.00356649 	0.00369783 	3.6536e-05 	0.252483
0.00367879 	0.00430621 	5.61386e-05 	0.251848
0.00378912 	0.00491598 	7.44306e-05 	0.251165
0.0038975 	0.00552392 	9.14341e-05 	0.250432
0.00400397 	0.00612718 	0.000107201 	0.249648
0.00410857 	0.00672331 	0.00012179 	0.248811
0.00421133 	0.00731023 	0.000135255 	0.247917
0.00431227 	0.00788616 	0.00014766 	0.246961
0.00441144 	0.00844958 	0.000159077 	0.245938
0.00450886 	0.00899919 	0.000169566 	0.244842
0.00460456 	0.00953374 	0.000179161 	0.243663
0.00469858 	0.0100519 	0.000187895 	0.242394
0.00479094 	0.0105523 	0.000195788 	0.241023
0.00488168 	0.0110331 	0.000202804 	0.23954
0.00497081 	0.011493 	0.000208887 	0.237928
0.00505838 	0.0119306 	0.000214109 	0.236172
0.0051444 	0.0123445 	0.000218612 	0.234255
0.00522891 	0.0127329 	0.000222331 	0.232166
0.00531193 	0.0130944 	0.000225085 	0.229898
0.00539348 	0.0134276 	0.000226844 	0.227449
0.0054736 	0.0137318 	0.000227644 	0.224814
0.00555231 	0.0140063 	0.000227455 	0.221989
0.00562963 	0.0142506 	0.000226297 	0.218971
0.00570559 	0.0144633 	0.000224341 	0.215755
0.00578022 	0.0146416 	0.000221593 	0.212338
0.00585352 	0.0147841 	0.000217676 	0.208707
0.00592554 	0.0148902 	0.000212465 	0.204834
0.00599629 	0.0149595 	0.000206435 	0.200696
0.00606579 	0.0149909 	0.000199807 	0.196279
0.00613406 	0.0149816 	0.000192379 	0.191577
0.00620114 	0.0149273 	0.000184119 	0.186581
0.00626703 	0.0148239 	0.000175137 	0.181281
0.00633176 	0.0146673 	0.000165507 	0.175666
0.00639535 	0.0144537 	0.000155323 	0.16972
0.00645783 	0.0141794 	0.000144697 	0.163422
0.0065192 	0.0138412 	0.000133778 	0.156752
0.00657949 	0.0134359 	0.000122696 	0.14969
0.00663871 	0.0129611 	0.000111554 	0.14222
0.0066969 	0.0124149 	0.000100529 	0.13433
0.00675406 	0.0117966 	8.97805e-05 	0.126011
0.00681021 	0.0111079 	7.93889e-05 	0.117268
0.00686537 	0.0103545 	6.94483e-05 	0.108122
0.00691956 	0.00954541 	6.00349e-05 	0.0986067
0.0069728 	0.00869242 	5.11173e-05 	0.0887672
0.0070251 	0.00780966 	4.26594e-05 	0.0786765
0.00707647 	0.00691293 	3.47507e-05 	0.0684699
0.00712695 	0.00601863 	2.74895e-05 	0.0583538
0.00717653 	0.00514135 	2.09059e-05 	0.048576
0.00722524 	0.00429115 	1.50655e-05 	0.0393689
0.00727309 	0.00347089 	1.00178e-05 	0.0308924
0.0073201 	0.0026739 	5.95065e-06 	0.0232171
0.00736628 	0.00188136 	2.55842e-06 	0.0163515
0.00741165 	0.00111371 	8.25511e-07 	0.0102633
0.00745622 	0.000467098 	1.4105e-07 	0.00486312
0.0075 	0 	0 	0
