-0.0075 	0 	0 	0
-0.0075 	-4.11715e-34 	2.25628e-38 	-6.77271e-33
-0.00745622 	-0.000541118 	2.96543e-08 	-0.00890138
-0.00745622 	-0.000541118 	2.96543e-08 	-0.00890138
-0.00741165 	-0.00076848 	1.77394e-06 	-0.0182644
-0.00741165 	-0.00076848 	1.77394e-06 	-0.0182644
-0.00736628 	-0.000875649 	5.91512e-06 	-0.0279814
-0.00736628 	-0.000875649 	5.91512e-06 	-0.0279814
-0.0073201 	-0.00100525 	1.21893e-05 	-0.0379025
-0.0073201 	-0.00100525 	1.21893e-05 	-0.0379025
-0.00727309 	-0.00115729 	1.98809e-05 	-0.0478759
-0.00727309 	-0.00115729 	1.98809e-05 	-0.0478759
-0.00722524 	-0.00130225 	2.9337e-05 	-0.0578054
-0.00722524 	-0.00130225 	2.9337e-05 	-0.0578054
-0.00717653 	-0.00143124 	4.04364e-05 	-0.0676054
-0.00717653 	-0.00143124 	4.04364e-05 	-0.0676054
-0.00712695 	-0.00154263 	5.32158e-05 	-0.0771834
-0.00712695 	-0.00154263 	5.32158e-05 	-0.0771834
-0.00707647 	-0.00163741 	6.7745e-05 	-0.0864526
-0.00707647 	-0.00163741 	6.7745e-05 	-0.0864526
-0.0070251 	-0.00171822 	8.3984e-05 	-0.0953432
-0.0070251 	-0.00171822 	8.3984e-05 	-0.0953432
-0.0069728 	-0.00178909 	0.000101857 	-0.103811
-0.0069728 	-0.00178909 	0.000101857 	-0.103811
-0.00691956 	-0.00185411 	0.000121051 	-0.111844
-0.00691956 	-0.00185411 	0.000121051 	-0.111844
-0.00686537 	-0.00191612 	0.000141543 	-0.119467
-0.00686537 	-0.00191612 	0.000141543 	-0.119467
-0.00681021 	-0.00197597 	0.000163557 	-0.126716
-0.00681021 	-0.00197597 	0.000163557 	-0.126716
-0.00675406 	-0.00203304 	0.000187058 	-0.133617
-0.00675406 	-0.00203304 	0.000187058 	-0.133617
-0.0066969 	-0.00208709 	0.00021197 	-0.140193
-0.0066969 	-0.00208709 	0.00021197 	-0.140193
-0.00663871 	-0.00213844 	0.000238239 	-0.146459
-0.00663871 	-0.00213844 	0.000238239 	-0.146459
-0.00657949 	-0.00218745 	0.000265754 	-0.152435
-0.00657949 	-0.00218745 	0.000265754 	-0.152435
-0.0065192 	-0.00223417 	0.000294257 	-0.15814
-0.0065192 	-0.00223417 	0.000294257 	-0.15814
-0.00645783 	-0.00227813 	0.000323348 	-0.163595
-0.00645783 	-0.00227813 	0.000323348 	-0.163595
-0.00639535 	-0.0023181 	0.00035272 	-0.168822
-0.00639535 	-0.0023181 	0.00035272 	-0.168822
-0.00633176 	-0.00235253 	0.000382872 	-0.173837
-0.00633176 	-0.00235253 	0.000382872 	-0.173837
-0.00626703 	-0.00238129 	0.000414923 	-0.17864
-0.00626703 	-0.00238129 	0.000414923 	-0.17864
-0.00620114 	-0.00240679 	0.000448527 	-0.183217
-0.00620114 	-0.00240679 	0.000448527 	-0.183217
-0.00613406 	-0.00243208 	0.000481973 	-0.187559
-0.00613406 	-0.00243208 	0.000481973 	-0.187559
-0.00606579 	-0.00245839 	0.000514284 	-0.191679
-0.00606579 	-0.00245839 	0.000514284 	-0.191679
-0.00599629 	-0.00248443 	0.000545565 	-0.195609
-0.00599629 	-0.00248443 	0.000545565 	-0.195609
-0.00592554 	-0.00250735 	0.000577205 	-0.199376
-0.00592554 	-0.00250735 	0.000577205 	-0.199376
-0.00585352 	-0.00252589 	0.000612478 	-0.202998
-0.00585352 	-0.00252589 	0.000612478 	-0.202998
-0.00578022 	-0.00254388 	0.000651381 	-0.206476
-0.00578022 	-0.00254388 	0.000651381 	-0.206476
-0.00570559 	-0.00256665 	0.000686721 	-0.209807
-0.00570559 	-0.00256665 	0.000686721 	-0.209807
-0.00562963 	-0.0025902 	0.00070918 	-0.213039
-0.00562963 	-0.0025902 	0.00070918 	-0.213039
-0.00555231 	-0.00259388 	0.000722178 	-0.2163
-0.00555231 	-0.00259388 	0.000722178 	-0.2163
-0.0054736 	-0.00255494 	0.000748022 	-0.219687
-0.0054736 	-0.00255494 	0.000748022 	-0.219687
-0.00539348 	-0.0024814 	0.000793062 	-0.223067
-0.00539348 	-0.0024814 	0.000793062 	-0.223067
-0.00531193 	-0.00240428 	0.000837598 	-0.22621
-0.00531193 	-0.00240428 	0.000837598 	-0.22621
-0.00522891 	-0.00234339 	0.000868024 	-0.229073
-0.00522891 	-0.00234339 	0.000868024 	-0.229073
-0.0051444 	-0.00230035 	0.000888157 	-0.231728
-0.0051444 	-0.00230035 	0.000888157 	-0.231728
-0.00505838 	-0.00226471 	0.000909951 	-0.234214
-0.00505838 	-0.00226471 	0.000909951 	-0.234214
-0.00497081 	-0.00222594 	0.000935479 	-0.236521
-0.00497081 	-0.00222594 	0.000935479 	-0.236521
-0.00488168 	-0.00218146 	0.000958996 	-0.238648
-0.00488168 	-0.00218146 	0.000958996 	-0.238648
-0.00479094 	-0.00213346 	0.000981546 	-0.240637
-0.00479094 	-0.00213346 	0.000981546 	-0.240637
-0.00469858 	-0.00208439 	0.00100419 	-0.242534
-0.00469858 	-0.00208439 	0.00100419 	-0.242534
-0.00460456 	-0.00203389 	0.00102348 	-0.244362
-0.00460456 	-0.00203389 	0.00102348 	-0.244362
-0.00450886 	-0.00197815 	0.0010407 	-0.246154
-0.00450886 	-0.00197815 	0.0010407 	-0.246154
-0.00441144 	-0.00191501 	0.00106073 	-0.247986
-0.00441144 	-0.00191501 	0.00106073 	-0.247986
-0.00431227 	-0.00184817 	0.00108494 	-0.249922
-0.00431227 	-0.00184817 	0.00108494 	-0.249922
-0.00421133 	-0.00178476 	0.00110409 	-0.251843
-0.00421133 	-0.00178476 	0.00110409 	-0.251843
-0.00410857 	-0.00172783 	0.00111011 	-0.253537
-0.00410857 	-0.00172783 	0.00111011 	-0.253537
-0.00400397 	-0.00167202 	0.0011118 	-0.25498
-0.00400397 	-0.00167202 	0.0011118 	-0.25498
-0.0038975 	-0.0016119 	0.00111854 	-0.256305
-0.0038975 	-0.0016119 	0.00111854 	-0.256305
-0.00378912 	-0.00154765 	0.00112953 	-0.257596
-0.00378912 	-0.00154765 	0.00112953 	-0.257596
-0.00367879 	-0.00148154 	0.00113939 	-0.258851
-0.00367879 	-0.00148154 	0.00113939 	-0.258851
-0.00356649 	-0.00141533 	0.00114515 	-0.260051
-0.00356649 	-0.00141533 	0.00114515 	-0.260051
-0.00345217 	-0.00134964 	0.00114895 	-0.261191
-0.00345217 	-0.00134964 	0.00114895 	-0.261191
-0.0033358 	-0.00128458 	0.00115193 	-0.262274
-0.0033358 	-0.00128458 	0.00115193 	-0.262274
-0.00321735 	-0.00122031 	0.00115359 	-0.263299
-0.00321735 	-0.00122031 	0.00115359 	-0.263299
-0.00309677 	-0.00115701 	0.00115385 	-0.264266
-0.00309677 	-0.00115701 	0.00115385 	-0.264266
-0.00297403 	-0.00109485 	0.00115248 	-0.265175
-0.00297403 	-0.00109485 	0.00115248 	-0.265175
-0.00284909 	-0.00103396 	0.00114913 	-0.266026
-0.00284909 	-0.00103396 	0.00114913 	-0.266026
-0.0027219 	-0.000974427 	0.00114339 	-0.266821
-0.0027219 	-0.000974427 	0.00114339 	-0.266821
-0.00259244 	-0.000916251 	0.001135 	-0.267563
-0.00259244 	-0.000916251 	0.001135 	-0.267563
-0.00246065 	-0.000859399 	0.00112369 	-0.268257
-0.00246065 	-0.000859399 	0.00112369 	-0.268257
-0.00232651 	-0.000803803 	0.00110922 	-0.268909
-0.00232651 	-0.000803803 	0.00110922 	-0.268909
-0.00218995 	-0.000749316 	0.00109185 	-0.269523
-0.00218995 	-0.000749316 	0.00109185 	-0.269523
-0.00205095 	-0.000695652 	0.00107194 	-0.270106
-0.00205095 	-0.000695652 	0.00107194 	-0.270106
-0.00190946 	-0.00064231 	0.00105025 	-0.270658
-0.00190946 	-0.00064231 	0.00105025 	-0.270658
-0.00176543 	-0.000588378 	0.00102936 	-0.271167
-0.00176543 	-0.000588378 	0.00102936 	-0.271167
-0.00161881 	-0.000532575 	0.00101016 	-0.271606
-0.00161881 	-0.000532575 	0.00101016 	-0.271606
-0.00146957 	-0.000473472 	0.000988816 	-0.271967
-0.00146957 	-0.000473472 	0.000988816 	-0.271967
-0.00131765 	-0.000408293 	0.000964808 	-0.272305
-0.00131765 	-0.000408293 	0.000964808 	-0.272305
-0.001163 	-0.000331485 	0.000946789 	-0.272717
-0.001163 	-0.000331485 	0.000946789 	-0.272717
-0.00100559 	-0.000237881 	0.00093387 	-0.273246
-0.00100559 	-0.000237881 	0.00093387 	-0.273246
-0.000845345 	-0.00013541 	0.000907095 	-0.273687
-0.000845345 	-0.00013541 	0.000907095 	-0.273687
-0.000682232 	-3.4105e-05 	0.000864788 	-0.273858
-0.000682232 	-3.4105e-05 	0.000864788 	-0.273858
-0.000516194 	7.0625e-05 	0.000839533 	-0.273824
-0.000516194 	7.0625e-05 	0.000839533 	-0.273824
-0.000347178 	0.000187567 	0.000835156 	-0.273562
-0.000347178 	0.000187567 	0.000835156 	-0.273562
-0.000175132 	0.000339873 	0.000773601 	-0.272839
-0.000175132 	0.000339873 	0.000773601 	-0.272839
0 	0.000552489 	0.000650527 	-0.271511
0 	0.000552489 	0.000650527 	-0.271511
0 	0.000552489 	0.000650527 	-0.271511
0 	0.000552489 	0.000650527 	-0.271511
0.000175132 	0.000781869 	0.000591312 	-0.2704
0.000175132 	-0.000833912 	0.00104507 	-0.274167
0.000347178 	0.000982954 	0.000581354 	-0.270077
0.000347178 	-0.000645648 	0.00100739 	-0.274523
0.000516194 	0.00116933 	0.000540186 	-0.270039
0.000516194 	-0.000446774 	0.00098153 	-0.274891
0.000682232 	0.00135474 	0.000481301 	-0.269942
0.000682232 	-0.000238871 	0.000956407 	-0.275229
0.000845345 	0.00154375 	0.000425902 	-0.269727
0.000845345 	-1.75952e-05 	0.000948416 	-0.275556
0.00100559 	0.00173713 	0.000381572 	-0.269428
0.00100559 	0.000219788 	0.000958635 	-0.275966
0.001163 	0.00193525 	0.000340316 	-0.269057
0.001163 	0.00047229 	0.000886261 	-0.276603
0.00131765 	0.00213786 	0.000299238 	-0.26862
0.00131765 	0.00073082 	0.000738006 	-0.277452
0.00146957 	0.00234435 	0.000258975 	-0.268128
0.00146957 	0.000994424 	0.000691449 	-0.277994
0.00161881 	0.00255403 	0.000220558 	-0.267589
0.00161881 	0.0012714 	0.00071189 	-0.277989
0.00176543 	0.00276627 	0.000185603 	-0.267002
0.00176543 	0.00155915 	0.000671381 	-0.277792
0.00190946 	0.0029804 	0.00015457 	-0.266366
0.00190946 	0.00185099 	0.000597698 	-0.277608
0.00205095 	0.00319577 	0.000126897 	-0.265677
0.00205095 	0.00214607 	0.000531226 	-0.277433
0.00218995 	0.00341192 	0.000102012 	-0.264934
0.00218995 	0.00244728 	0.000479773 	-0.277215
0.00232651 	0.00362856 	7.94882e-05 	-0.264135
0.00232651 	0.00275805 	0.000431644 	-0.276935
0.00246065 	0.00384534 	5.92073e-05 	-0.263281
0.00246065 	0.00307997 	0.000383315 	-0.276592
0.00259244 	0.00406169 	4.14862e-05 	-0.262369
0.00259244 	0.00341196 	0.000336125 	-0.276184
0.0027219 	0.00427687 	2.66274e-05 	-0.261396
0.0027219 	0.00375194 	0.000290808 	-0.275706
0.00284909 	0.00449004 	1.44477e-05 	-0.260359
0.00284909 	0.00409795 	0.000247431 	-0.275151
0.00297403 	0.00470046 	4.38913e-06 	-0.259256
0.00297403 	0.004448 	0.000205734 	-0.274516
0.00309677 	0.00490745 	-3.98772e-06 	-0.258088
0.00309677 	0.00480002 	0.000166148 	-0.273799
0.00321735 	0.00511042 	-1.113e-05 	-0.256855
0.00321735 	0.00515246 	0.000128197 	-0.272997
0.0033358 	0.00530888 	-1.72593e-05 	-0.255556
0.0033358 	0.00550417 	8.94597e-05 	-0.272108
0.00345217 	0.00550263 	-2.23234e-05 	-0.254192
0.00345217 	0.00585326 	4.85246e-05 	-0.271131
0.00356649 	0.00569195 	-2.36107e-05 	-0.252761
0.00356649 	0.00619742 	3.29413e-05 	-0.270069
0.00367879 	0.00587717 	-2.8249e-05 	-0.251262
0.00367879 	0.00653772 	2.47656e-06 	-0.26892
0.00378912 	0.00685774 	-0.000130194 	-0.267533
0.00378912 	0.00605456 	-4.91117e-05 	-0.249679
0.0038975 	0.00621216 	-6.77458e-05 	-0.247953
0.0038975 	0.00709266 	-0.000233954 	-0.265428
0.00400397 	0.00634442 	-5.82561e-05 	-0.245967
0.00400397 	0.00722432 	-0.00014706 	-0.261753
0.00410857 	0.00646555 	-2.45425e-05 	-0.243627
0.00410857 	0.00738509 	7.35544e-05 	-0.255942
0.00421133 	0.00660008 	-1.52698e-05 	-0.241205
0.00421133 	0.00779478 	0.000113225 	-0.250138
0.00431227 	0.00675164 	-5.33481e-05 	-0.239087
0.00431227 	0.00851813 	-0.000115697 	-0.247214
0.00441144 	0.0068951 	-8.98453e-05 	-0.237235
0.00441144 	0.00935697 	-0.000251877 	-0.246745
0.00450886 	0.00701288 	-9.8765e-05 	-0.235426
0.00450886 	0.0100057 	-0.00024237 	-0.246556
0.00460456 	0.0071071 	-9.1307e-05 	-0.233546
0.00460456 	0.010355 	-0.000234242 	-0.245535
0.00469858 	0.00718517 	-8.37007e-05 	-0.231591
0.00469858 	0.010541 	-0.000253282 	-0.24389
0.00479094 	0.0072521 	-8.55445e-05 	-0.229581
0.00479094 	0.0106939 	-0.000300873 	-0.242018
0.00488168 	0.00730916 	-8.93623e-05 	-0.227516
0.00488168 	0.0108563 	-0.000318571 	-0.240081
0.00497081 	0.0073559 	-9.06636e-05 	-0.22539
0.00497081 	0.0110214 	-0.000318288 	-0.238106
0.00505838 	0.00739184 	-9.13193e-05 	-0.223198
0.00505838 	0.0111778 	-0.000334229 	-0.236086
0.0051444 	0.00741663 	-9.13699e-05 	-0.220932
0.0051444 	0.01132 	-0.000357747 	-0.234021
0.00522891 	0.00743012 	-9.11242e-05 	-0.218589
0.00522891 	0.0114454 	-0.000383038 	-0.231917
0.00531193 	0.0115523 	-0.000402417 	-0.229764
0.00531193 	0.0074322 	-9.07242e-05 	-0.216163
0.00539348 	0.00742278 	-9.01418e-05 	-0.213649
0.00539348 	0.0116392 	-0.000414798 	-0.22753
0.0054736 	0.00740168 	-8.92067e-05 	-0.211039
0.0054736 	0.0117045 	-0.000426441 	-0.225184
0.00555231 	0.00736863 	-8.78377e-05 	-0.208323
0.00555231 	0.0117486 	-0.00044089 	-0.222719
0.00562963 	0.00732323 	-8.62194e-05 	-0.205489
0.00562963 	0.011774 	-0.000458739 	-0.220149
0.00570559 	0.00726509 	-8.449e-05 	-0.202525
0.00570559 	0.0117864 	-0.000475458 	-0.217488
0.00578022 	0.00719379 	-8.26003e-05 	-0.199421
0.00578022 	0.0117913 	-0.000485509 	-0.214753
0.00585352 	0.0071088 	-8.04677e-05 	-0.196167
0.00585352 	0.0117888 	-0.000488794 	-0.21195
0.00592554 	0.00700943 	-7.80406e-05 	-0.192751
0.00592554 	0.0117707 	-0.00048975 	-0.209051
0.00599629 	0.00689535 	-7.54344e-05 	-0.189154
0.00599629 	0.0117263 	-0.000495717 	-0.205996
0.00606579 	0.0116507 	-0.000505854 	-0.202733
0.00606579 	0.0067671 	-7.27874e-05 	-0.185353
0.00613406 	0.00662579 	-6.98849e-05 	-0.181322
0.00613406 	0.0115449 	-0.000511886 	-0.199231
0.00620114 	0.0064723 	-6.65047e-05 	-0.177032
0.00620114 	0.0114099 	-0.000510871 	-0.195458
0.00626703 	0.00630668 	-6.26713e-05 	-0.172456
0.00626703 	0.0112431 	-0.000504691 	-0.191358
0.00633176 	0.00612826 	-5.85867e-05 	-0.167571
0.00633176 	0.0110412 	-0.000495892 	-0.186879
0.00639535 	0.00593617 	-5.45524e-05 	-0.162357
0.00639535 	0.0108024 	-0.00048676 	-0.181987
0.00645783 	0.00572968 	-5.0576e-05 	-0.156796
0.00645783 	0.0105257 	-0.000477155 	-0.176665
0.0065192 	0.00550835 	-4.64893e-05 	-0.150868
0.0065192 	0.0102108 	-0.000465384 	-0.170899
0.00657949 	0.00527184 	-4.23618e-05 	-0.144554
0.00657949 	0.00985737 	-0.000450889 	-0.164667
0.00663871 	0.00501945 	-3.84174e-05 	-0.137837
0.00663871 	0.00946472 	-0.000434221 	-0.157945
0.0066969 	0.0047501 	-3.4625e-05 	-0.130698
0.0066969 	0.00903185 	-0.000415044 	-0.150707
0.00675406 	0.00446299 	-3.08295e-05 	-0.12312
0.00675406 	0.00855794 	-0.000392789 	-0.14292
0.00681021 	0.0041585 	-2.70037e-05 	-0.115085
0.00681021 	0.00804295 	-0.000367256 	-0.134539
0.00686537 	0.00383902 	-2.32714e-05 	-0.106604
0.00686537 	0.00748881 	-0.000338804 	-0.125546
0.00691956 	0.00350881 	-1.9853e-05 	-0.0977268
0.00691956 	0.00689949 	-0.000309016 	-0.115968
0.0069728 	0.00317334 	-1.67269e-05 	-0.0885533
0.0069728 	0.00628088 	-0.000278578 	-0.105887
0.0070251 	0.00283896 	-1.38247e-05 	-0.0792212
0.0070251 	0.00564253 	-0.000247819 	-0.0954484
0.00707647 	0.00251223 	-1.12126e-05 	-0.0698932
0.00707647 	0.00499763 	-0.000217654 	-0.0848535
0.00712695 	0.00219867 	-8.89189e-06 	-0.0607278
0.00712695 	0.00436041 	-0.000188594 	-0.0743196
0.00717653 	0.0019015 	-6.80499e-06 	-0.0518493
0.00717653 	0.0037432 	-0.000160843 	-0.0640272
0.00722524 	0.00162075 	-4.87072e-06 	-0.0433304
0.00722524 	0.00315384 	-0.000133517 	-0.0540777
0.00727309 	0.00135269 	-3.05307e-06 	-0.0351941
0.00727309 	0.00259413 	-0.000107032 	-0.0444779
0.0073201 	0.00108892 	-1.44305e-06 	-0.027428
0.0073201 	0.00205944 	-8.52856e-05 	-0.0351404
0.00736628 	0.000814071 	1.53081e-07 	-0.0200227
0.00736628 	0.00153864 	-4.85131e-05 	-0.0258998
0.00741165 	0.000519985 	6.72068e-07 	-0.0129916
0.00741165 	0.00101622 	-3.29748e-05 	-0.0167196
0.00745622 	0.000233936 	5.47852e-07 	-0.00632959
0.00745622 	0.000492644 	-1.70558e-05 	-0.00793536
0.0075 	0 	0 	0
0.0075 	0 	0 	0
