0 	0 	0 	0
0 	0 	0 	0
0.00752508 	0.000585343 	0.000642046 	-0.271352
0.00752508 	0.000585343 	0.000642046 	-0.271352
0.00757525 	0.00065105 	0.000625083 	-0.271034
0.00762542 	0.000716757 	0.000608121 	-0.270715
0.00762542 	0.000716757 	0.000608121 	-0.270715
0.00767559 	0.0007824 	0.000591285 	-0.270399
0.00772575 	0.000841034 	0.000588382 	-0.270305
0.00777592 	0.000899669 	0.000585479 	-0.270211
0.00782609 	0.000958303 	0.000582575 	-0.270117
0.00782609 	0.000958303 	0.000582575 	-0.270117
0.00787625 	0.00101502 	0.000574272 	-0.270071
0.00792642 	0.00107034 	0.000562053 	-0.270059
0.00797659 	0.00112565 	0.000549833 	-0.270048
0.00802676 	0.00118112 	0.00053644 	-0.270033
0.00802676 	0.00118112 	0.00053644 	-0.270033
0.00807692 	0.00123714 	0.000518649 	-0.270003
0.00812709 	0.00129316 	0.000500857 	-0.269974
0.00812709 	0.00129316 	0.000500857 	-0.269974
0.00817726 	0.00134918 	0.000483065 	-0.269945
0.00822742 	0.00140711 	0.000465952 	-0.269882
0.00822742 	0.00140711 	0.000465952 	-0.269882
0.00827759 	0.00146524 	0.000448913 	-0.269816
0.00832776 	0.00152337 	0.000431875 	-0.26975
0.00832776 	0.00152337 	0.000431875 	-0.26975
0.00837793 	0.00158307 	0.000416888 	-0.269666
0.00842809 	0.00164361 	0.00040301 	-0.269573
0.00842809 	0.00164361 	0.00040301 	-0.269573
0.00847826 	0.00170416 	0.000389131 	-0.269479
0.00847826 	0.00170416 	0.000389131 	-0.269479
0.00852843 	0.00176588 	0.000375586 	-0.269374
0.00852843 	0.00176588 	0.000375586 	-0.269374
0.0085786 	0.00182902 	0.000362438 	-0.269256
0.0085786 	0.00182902 	0.000362438 	-0.269256
0.00862876 	0.00189215 	0.00034929 	-0.269138
0.00867893 	0.00195612 	0.000336086 	-0.269012
0.00867893 	0.00195612 	0.000336086 	-0.269012
0.0087291 	0.00202184 	0.000322759 	-0.26887
0.00877926 	0.00208757 	0.000309433 	-0.268728
0.00877926 	0.00208757 	0.000309433 	-0.268728
0.00882943 	0.00215388 	0.000296114 	-0.268582
0.0088796 	0.00222206 	0.000282819 	-0.268419
0.0088796 	0.00222206 	0.000282819 	-0.268419
0.00897993 	0.00235891 	0.000256307 	-0.268091
0.00897993 	0.00235891 	0.000256307 	-0.268091
0.0090301 	0.00242939 	0.000243393 	-0.267909
0.00908027 	0.00249988 	0.000230479 	-0.267728
0.00908027 	0.00249988 	0.000230479 	-0.267728
0.00913043 	0.00257085 	0.000217787 	-0.267542
0.0091806 	0.00264348 	0.000205826 	-0.267342
0.0091806 	0.00264348 	0.000205826 	-0.267342
0.00923077 	0.0027161 	0.000193866 	-0.267141
0.00928094 	0.00278933 	0.000182261 	-0.266934
0.00928094 	0.00278933 	0.000182261 	-0.266934
0.0093311 	0.00286391 	0.000171452 	-0.266712
0.00938127 	0.00293849 	0.000160643 	-0.266491
0.00938127 	0.00293849 	0.000160643 	-0.266491
0.00943144 	0.00301385 	0.000150271 	-0.266259
0.00943144 	0.00301385 	0.000150271 	-0.266259
0.00948161 	0.00309022 	0.00014046 	-0.266015
0.00948161 	0.00309022 	0.00014046 	-0.266015
0.00953177 	0.00316658 	0.000130648 	-0.26577
0.00953177 	0.00316658 	0.000130648 	-0.26577
0.00958194 	0.00324396 	0.000121349 	-0.265511
0.00958194 	0.00324396 	0.000121349 	-0.265511
0.00963211 	0.00332197 	0.000112368 	-0.265243
0.00963211 	0.00332197 	0.000112368 	-0.265243
0.00968227 	0.00339998 	0.000103386 	-0.264975
0.00968227 	0.00339998 	0.000103386 	-0.264975
0.00973244 	0.00347933 	9.50036e-05 	-0.264685
0.00978261 	0.00355892 	8.67289e-05 	-0.264392
0.00983278 	0.00363869 	7.85405e-05 	-0.264095
0.00988294 	0.00371976 	7.0956e-05 	-0.263776
0.00988294 	0.00371976 	7.0956e-05 	-0.263776
0.00993311 	0.00380082 	6.33715e-05 	-0.263456
0.00998328 	0.00388248 	5.61652e-05 	-0.263124
0.00998328 	0.00388248 	5.61652e-05 	-0.263124
0.0100334 	0.00396484 	4.94192e-05 	-0.262777
0.0100334 	0.00396484 	4.94192e-05 	-0.262777
0.0100836 	0.0040472 	4.26733e-05 	-0.26243
0.0101338 	0.0041304 	3.67416e-05 	-0.262058
0.0101338 	0.0041304 	3.67416e-05 	-0.262058
0.0102341 	0.00429734 	2.5458e-05 	-0.261296
0.0102341 	0.00429734 	2.5458e-05 	-0.261296
0.0102843 	0.00438142 	2.06537e-05 	-0.260887
0.0103344 	0.00446551 	1.58495e-05 	-0.260478
0.0103344 	0.00446551 	1.58495e-05 	-0.260478
0.0103846 	0.00454988 	1.15873e-05 	-0.260045
0.0103846 	0.00454988 	1.15873e-05 	-0.260045
0.0104348 	0.00463437 	7.54858e-06 	-0.259603
0.0104849 	0.00471888 	3.6437e-06 	-0.259152
0.0104849 	0.00471888 	3.6437e-06 	-0.259152
0.0105351 	0.00480348 	2.19875e-07 	-0.258675
0.0105853 	0.00488808 	-3.20395e-06 	-0.258197
0.0105853 	0.00488808 	-3.20395e-06 	-0.258197
0.0106355 	0.00497256 	-6.27903e-06 	-0.257692
0.0106856 	0.00505701 	-9.25059e-06 	-0.257179
0.0106856 	0.00505701 	-9.25059e-06 	-0.257179
0.0107358 	0.00514131 	-1.2084e-05 	-0.256653
0.0107358 	0.00514131 	-1.2084e-05 	-0.256653
0.010786 	0.00522536 	-1.46799e-05 	-0.256103
0.010786 	0.00522536 	-1.46799e-05 	-0.256103
0.0108361 	0.00530941 	-1.72731e-05 	-0.255552
0.0108361 	0.00530941 	-1.72731e-05 	-0.255552
0.0108863 	0.00539294 	-1.94563e-05 	-0.254964
0.0109365 	0.00547647 	-2.16395e-05 	-0.254376
0.0109365 	0.00547647 	-2.16395e-05 	-0.254376
0.0109866 	0.00555969 	-2.27114e-05 	-0.253761
0.0109866 	0.00555969 	-2.27114e-05 	-0.253761
0.0110368 	0.00564276 	-2.32763e-05 	-0.253133
0.011087 	0.00572571 	-2.4456e-05 	-0.252488
0.011087 	0.00572571 	-2.4456e-05 	-0.252488
0.0111371 	0.00580845 	-2.6528e-05 	-0.251818
0.0111873 	0.00589084 	-2.9856e-05 	-0.25114
0.0111873 	0.00589084 	-2.9856e-05 	-0.25114
0.0112375 	0.0059715 	-3.93426e-05 	-0.25042
0.0112876 	0.00605216 	-4.88293e-05 	-0.2497
0.0112876 	0.00605216 	-4.88293e-05 	-0.2497
0.0113378 	0.00612534 	-5.74801e-05 	-0.248904
0.011388 	0.00619829 	-6.61053e-05 	-0.248104
0.011388 	0.00619829 	-6.61053e-05 	-0.248104
0.0114883 	0.00632494 	-5.96537e-05 	-0.246259
0.0114883 	0.00632494 	-5.96537e-05 	-0.246259
0.0115385 	0.00638436 	-4.71404e-05 	-0.245196
0.0115886 	0.00644245 	-3.09706e-05 	-0.244073
0.0115886 	0.00644245 	-3.09706e-05 	-0.244073
0.0116388 	0.00650512 	-2.18151e-05 	-0.242915
0.011689 	0.0065708 	-1.7288e-05 	-0.241732
0.011689 	0.0065708 	-1.7288e-05 	-0.241732
0.0117391 	0.00664182 	-2.57577e-05 	-0.240622
0.0117893 	0.00671714 	-4.46817e-05 	-0.239569
0.0117893 	0.00671714 	-4.46817e-05 	-0.239569
0.0118395 	0.00679098 	-6.33561e-05 	-0.238579
0.0118896 	0.00686355 	-8.18197e-05 	-0.237642
0.0118896 	0.00686355 	-8.18197e-05 	-0.237642
0.0119398 	0.00692939 	-9.2442e-05 	-0.236708
0.0119398 	0.00692939 	-9.2442e-05 	-0.236708
0.01199 	0.00699004 	-9.70353e-05 	-0.235777
0.01199 	0.00699004 	-9.70353e-05 	-0.235777
0.0120401 	0.00704367 	-9.63278e-05 	-0.234811
0.0120401 	0.00704367 	-9.63278e-05 	-0.234811
0.0120903 	0.00709306 	-9.24183e-05 	-0.233826
0.0120903 	0.00709306 	-9.24183e-05 	-0.233826
0.0121405 	0.00713692 	-8.84021e-05 	-0.232799
0.0121405 	0.00713692 	-8.84021e-05 	-0.232799
0.0121906 	0.00717857 	-8.43434e-05 	-0.231756
0.0121906 	0.00717857 	-8.43434e-05 	-0.231756
0.0122408 	0.00721577 	-8.45436e-05 	-0.230672
0.0122408 	0.00721577 	-8.45436e-05 	-0.230672
0.012291 	0.00725212 	-8.55457e-05 	-0.22958
0.012291 	0.00725212 	-8.55457e-05 	-0.22958
0.0123411 	0.00728367 	-8.76566e-05 	-0.228438
0.0123411 	0.00728367 	-8.76566e-05 	-0.228438
0.0123913 	0.00731421 	-8.95028e-05 	-0.227286
0.0123913 	0.00731421 	-8.95028e-05 	-0.227286
0.0124415 	0.00734051 	-9.02352e-05 	-0.22609
0.0124916 	0.00736445 	-9.08195e-05 	-0.224869
0.0124916 	0.00736445 	-9.08195e-05 	-0.224869
0.012592 	0.00740152 	-9.1339e-05 	-0.222313
0.012592 	0.00740152 	-9.1339e-05 	-0.222313
0.0126421 	0.00741598 	-9.13686e-05 	-0.220992
0.0126923 	0.00742427 	-9.12306e-05 	-0.219604
0.0126923 	0.00742427 	-9.12306e-05 	-0.219604
0.0127425 	0.00743046 	-9.10589e-05 	-0.218193
0.0127425 	0.00743046 	-9.10589e-05 	-0.218193
0.0127926 	0.00743172 	-9.08172e-05 	-0.216727
0.0128428 	0.00742863 	-9.05037e-05 	-0.215211
0.0128428 	0.00742863 	-9.05037e-05 	-0.215211
0.012893 	0.00742284 	-9.01454e-05 	-0.213665
0.0129431 	0.0074097 	-8.95622e-05 	-0.212032
0.0129431 	0.0074097 	-8.95622e-05 	-0.212032
0.0129933 	0.0073934 	-8.88639e-05 	-0.210359
0.0130435 	0.00737234 	-8.79914e-05 	-0.208628
0.0130435 	0.00737234 	-8.79914e-05 	-0.208628
0.0130936 	0.00734436 	-8.69726e-05 	-0.206808
0.0131438 	0.00731238 	-8.58966e-05 	-0.204936
0.0131438 	0.00731238 	-8.58966e-05 	-0.204936
0.013194 	0.00727398 	-8.47544e-05 	-0.202978
0.0132441 	0.00722825 	-8.35137e-05 	-0.200922
0.0132441 	0.00722825 	-8.35137e-05 	-0.200922
0.0132943 	0.00717745 	-8.21901e-05 	-0.198796
0.0133445 	0.00711928 	-8.07307e-05 	-0.196569
0.0133445 	0.00711928 	-8.07307e-05 	-0.196569
0.0133946 	0.00705205 	-7.90817e-05 	-0.194216
0.0134448 	0.00697835 	-7.73305e-05 	-0.191771
0.0134448 	0.00697835 	-7.73305e-05 	-0.191771
0.013495 	0.00689746 	-7.54824e-05 	-0.18922
0.0135452 	0.00680518 	-7.35734e-05 	-0.186482
0.0135452 	0.00680518 	-7.35734e-05 	-0.186482
0.0136455 	0.00659965 	-6.93094e-05 	-0.180592
0.0136455 	0.00659965 	-6.93094e-05 	-0.180592
0.0136957 	0.00648485 	-6.67812e-05 	-0.177383
0.0137458 	0.00636 	-6.39053e-05 	-0.173929
0.0137458 	0.00636 	-6.39053e-05 	-0.173929
0.013796 	0.00622687 	-6.08442e-05 	-0.170271
0.0138462 	0.00608479 	-5.76738e-05 	-0.166391
0.0138462 	0.00608479 	-5.76738e-05 	-0.166391
0.0138963 	0.00593298 	-5.44909e-05 	-0.162271
0.0138963 	0.00593298 	-5.44909e-05 	-0.162271
0.0139465 	0.00576715 	-5.12976e-05 	-0.157805
0.0139967 	0.00558964 	-4.79902e-05 	-0.153045
0.0139967 	0.00558964 	-4.79902e-05 	-0.153045
0.0140468 	0.00539997 	-4.45979e-05 	-0.147975
0.0140468 	0.00539997 	-4.45979e-05 	-0.147975
0.014097 	0.00519724 	-4.1196e-05 	-0.142569
0.0141472 	0.00498035 	-3.7867e-05 	-0.136801
0.0141973 	0.00474795 	-3.45966e-05 	-0.130642
0.0141973 	0.00474795 	-3.45966e-05 	-0.130642
0.0142475 	0.00449596 	-3.12654e-05 	-0.12399
0.0142977 	0.00422654 	-2.78587e-05 	-0.116881
0.0143478 	0.00394063 	-2.44585e-05 	-0.109301
0.0143478 	0.00394063 	-2.44585e-05 	-0.109301
0.014398 	0.00364024 	-2.12135e-05 	-0.10126
0.014398 	0.00364024 	-2.12135e-05 	-0.10126
0.0144482 	0.0033286 	-1.81736e-05 	-0.0927988
0.0144983 	0.00301011 	-1.53102e-05 	-0.0839979
0.0144983 	0.00301011 	-1.53102e-05 	-0.0839979
0.0145485 	0.00269016 	-1.26351e-05 	-0.0749732
0.0145987 	0.00237439 	-1.01924e-05 	-0.0658642
0.0145987 	0.00237439 	-1.01924e-05 	-0.0658642
0.0146488 	0.00206753 	-7.97091e-06 	-0.0568095
0.014699 	0.00177201 	-5.91287e-06 	-0.0479202
0.014699 	0.00177201 	-5.91287e-06 	-0.0479202
0.0147492 	0.00148674 	-3.96199e-06 	-0.0392627
0.0147993 	0.00120547 	-2.15441e-06 	-0.0308594
0.0147993 	0.00120547 	-2.15441e-06 	-0.0308594
0.0148495 	0.000913961 	-4.27004e-07 	-0.022714
0.0148495 	0.000913961 	-4.27004e-07 	-0.022714
0.0148997 	0.000597667 	5.3498e-07 	-0.0148488
0.0148997 	0.000597667 	5.3498e-07 	-0.0148488
0.0149498 	0.000274912 	5.65646e-07 	-0.00728392
0.0149498 	0.000274912 	5.65646e-07 	-0.00728392
0.015 	0 	0 	0
