0 	0 	0 	0
0 	0 	0 	0
0.00752508 	0.00100358 	0.00085034 	-0.27442
0.00752508 	0.00100358 	0.00085034 	-0.27442
0.00757525 	0.000997016 	0.000855355 	-0.27415
0.00762542 	0.000990449 	0.00086037 	-0.27388
0.00762542 	0.000990449 	0.00086037 	-0.27388
0.00767559 	0.000983812 	0.000865374 	-0.273609
0.00772575 	0.000969562 	0.000869178 	-0.273175
0.00777592 	0.000955313 	0.000872983 	-0.27274
0.00782609 	0.000941063 	0.000876787 	-0.272306
0.00782609 	0.000941063 	0.000876787 	-0.272306
0.00787625 	0.000922725 	0.000882429 	-0.271785
0.00792642 	0.000901423 	0.000889405 	-0.2712
0.00797659 	0.00088012 	0.000896381 	-0.270616
0.00802676 	0.000858963 	0.000903957 	-0.270031
0.00802676 	0.000858963 	0.000903957 	-0.270031
0.00807692 	0.000838353 	0.000913781 	-0.269447
0.00812709 	0.000817742 	0.000923606 	-0.268862
0.00812709 	0.000817742 	0.000923606 	-0.268862
0.00817726 	0.000797131 	0.00093343 	-0.268278
0.00822742 	0.000779993 	0.000939987 	-0.267787
0.00822742 	0.000779993 	0.000939987 	-0.267787
0.00827759 	0.000763237 	0.000946183 	-0.267307
0.00832776 	0.00074648 	0.00095238 	-0.266827
0.00832776 	0.00074648 	0.00095238 	-0.266827
0.00837793 	0.00072942 	0.00095573 	-0.266398
0.00842809 	0.000712195 	0.000957544 	-0.265997
0.00842809 	0.000712195 	0.000957544 	-0.265997
0.00847826 	0.00069497 	0.000959358 	-0.265596
0.00847826 	0.00069497 	0.000959358 	-0.265596
0.00852843 	0.000676998 	0.000962306 	-0.265201
0.00852843 	0.000676998 	0.000962306 	-0.265201
0.0085786 	0.000658131 	0.000966612 	-0.264815
0.0085786 	0.000658131 	0.000966612 	-0.264815
0.00862876 	0.000639265 	0.000970917 	-0.264429
0.00867893 	0.000621952 	0.000975977 	-0.264026
0.00867893 	0.000621952 	0.000975977 	-0.264026
0.0087291 	0.000607979 	0.000982657 	-0.263587
0.00877926 	0.000594006 	0.000989338 	-0.263148
0.00877926 	0.000594006 	0.000989338 	-0.263148
0.00882943 	0.000582519 	0.000995046 	-0.262689
0.0088796 	0.000579132 	0.000997587 	-0.262167
0.0088796 	0.000579132 	0.000997587 	-0.262167
0.00897993 	0.000573074 	0.00100121 	-0.261114
0.00897993 	0.000573074 	0.00100121 	-0.261114
0.0090301 	0.000573147 	0.000996709 	-0.260551
0.00908027 	0.000573221 	0.000992205 	-0.259987
0.00908027 	0.000573221 	0.000992205 	-0.259987
0.00913043 	0.000570919 	0.000987304 	-0.259429
0.0091806 	0.000560737 	0.000981084 	-0.258892
0.0091806 	0.000560737 	0.000981084 	-0.258892
0.00923077 	0.000550555 	0.000974865 	-0.258354
0.00928094 	0.000535596 	0.000969737 	-0.25783
0.00928094 	0.000535596 	0.000969737 	-0.25783
0.0093311 	0.000509965 	0.000967046 	-0.257337
0.00938127 	0.000484333 	0.000964354 	-0.256845
0.00938127 	0.000484333 	0.000964354 	-0.256845
0.00943144 	0.000453423 	0.000962573 	-0.256362
0.00943144 	0.000453423 	0.000962573 	-0.256362
0.00948161 	0.000415743 	0.000961957 	-0.255893
0.00948161 	0.000415743 	0.000961957 	-0.255893
0.00953177 	0.000378064 	0.000961341 	-0.255424
0.00953177 	0.000378064 	0.000961341 	-0.255424
0.00958194 	0.000336426 	0.000959827 	-0.254955
0.00958194 	0.000336426 	0.000959827 	-0.254955
0.00963211 	0.000292337 	0.000957758 	-0.254487
0.00963211 	0.000292337 	0.000957758 	-0.254487
0.00968227 	0.000248248 	0.000955688 	-0.254019
0.00968227 	0.000248248 	0.000955688 	-0.254019
0.00973244 	0.000202213 	0.000951736 	-0.253541
0.00978261 	0.000155825 	0.000947442 	-0.253061
0.00983278 	0.000109277 	0.000943072 	-0.25258
0.00988294 	6.15998e-05 	0.000938163 	-0.252083
0.00988294 	6.15998e-05 	0.000938163 	-0.252083
0.00993311 	1.39229e-05 	0.000933253 	-0.251586
0.00998328 	-3.44491e-05 	0.000928262 	-0.251081
0.00998328 	-3.44491e-05 	0.000928262 	-0.251081
0.0100334 	-8.36672e-05 	0.000923171 	-0.250566
0.0100334 	-8.36672e-05 	0.000923171 	-0.250566
0.0100836 	-0.000132885 	0.00091808 	-0.25005
0.0101338 	-0.000183529 	0.000912567 	-0.249519
0.0101338 	-0.000183529 	0.000912567 	-0.249519
0.0102341 	-0.000285848 	0.000901324 	-0.248444
0.0102341 	-0.000285848 	0.000901324 	-0.248444
0.0102843 	-0.000338534 	0.000895573 	-0.247888
0.0103344 	-0.000391219 	0.000889822 	-0.247333
0.0103344 	-0.000391219 	0.000889822 	-0.247333
0.0103846 	-0.000444971 	0.000883869 	-0.246761
0.0103846 	-0.000444971 	0.000883869 	-0.246761
0.0104348 	-0.000499162 	0.000877832 	-0.246183
0.0104849 	-0.000553593 	0.000871825 	-0.245599
0.0104849 	-0.000553593 	0.000871825 	-0.245599
0.0105351 	-0.000608884 	0.000865926 	-0.244994
0.0105853 	-0.000664176 	0.000860027 	-0.24439
0.0105853 	-0.000664176 	0.000860027 	-0.24439
0.0106355 	-0.000720052 	0.000855436 	-0.243766
0.0106856 	-0.000776102 	0.000851234 	-0.243136
0.0106856 	-0.000776102 	0.000851234 	-0.243136
0.0107358 	-0.000832344 	0.000847354 	-0.2425
0.0107358 	-0.000832344 	0.000847354 	-0.2425
0.010786 	-0.000888915 	0.00084403 	-0.241852
0.010786 	-0.000888915 	0.00084403 	-0.241852
0.0108361 	-0.000945492 	0.000840688 	-0.241204
0.0108361 	-0.000945492 	0.000840688 	-0.241204
0.0108863 	-0.00100306 	0.000834537 	-0.240538
0.0109365 	-0.00106063 	0.000828386 	-0.239871
0.0109365 	-0.00106063 	0.000828386 	-0.239871
0.0109866 	-0.00112043 	0.000818035 	-0.239167
0.0109866 	-0.00112043 	0.000818035 	-0.239167
0.0110368 	-0.00118125 	0.000805769 	-0.238446
0.011087 	-0.00124483 	0.000791566 	-0.237671
0.011087 	-0.00124483 	0.000791566 	-0.237671
0.0111371 	-0.00131243 	0.000774554 	-0.236817
0.0111873 	-0.00138143 	0.000758233 	-0.235931
0.0111873 	-0.00138143 	0.000758233 	-0.235931
0.0112375 	-0.00145728 	0.000745304 	-0.234886
0.0112876 	-0.00153312 	0.000732374 	-0.233842
0.0112876 	-0.00153312 	0.000732374 	-0.233842
0.0113378 	-0.00161206 	0.000729813 	-0.232685
0.011388 	-0.00169109 	0.00072757 	-0.231524
0.011388 	-0.00169109 	0.00072757 	-0.231524
0.0114883 	-0.00183969 	0.000728017 	-0.229293
0.0114883 	-0.00183969 	0.000728017 	-0.229293
0.0115385 	-0.0019082 	0.000723627 	-0.22826
0.0115886 	-0.00197431 	0.000717022 	-0.227263
0.0115886 	-0.00197431 	0.000717022 	-0.227263
0.0116388 	-0.00203747 	0.000706214 	-0.2263
0.011689 	-0.00209868 	0.000692633 	-0.225362
0.011689 	-0.00209868 	0.000692633 	-0.225362
0.0117391 	-0.0021585 	0.000678394 	-0.224425
0.0117893 	-0.00221718 	0.000663627 	-0.223491
0.0117893 	-0.00221718 	0.000663627 	-0.223491
0.0118395 	-0.00227517 	0.00065057 	-0.222543
0.0118896 	-0.00233259 	0.000638957 	-0.221584
0.0118896 	-0.00233259 	0.000638957 	-0.221584
0.0119398 	-0.00238948 	0.000627628 	-0.220604
0.0119398 	-0.00238948 	0.000627628 	-0.220604
0.01199 	-0.00244597 	0.000616518 	-0.219608
0.01199 	-0.00244597 	0.000616518 	-0.219608
0.0120401 	-0.00250174 	0.000604487 	-0.218588
0.0120401 	-0.00250174 	0.000604487 	-0.218588
0.0120903 	-0.00255709 	0.000591901 	-0.217553
0.0120903 	-0.00255709 	0.000591901 	-0.217553
0.0121405 	-0.00261141 	0.00057901 	-0.21649
0.0121405 	-0.00261141 	0.00057901 	-0.21649
0.0121906 	-0.00266533 	0.000565997 	-0.215416
0.0121906 	-0.00266533 	0.000565997 	-0.215416
0.0122408 	-0.00271779 	0.000552851 	-0.214307
0.0122408 	-0.00271779 	0.000552851 	-0.214307
0.012291 	-0.00276998 	0.000539679 	-0.213191
0.012291 	-0.00276998 	0.000539679 	-0.213191
0.0123411 	-0.00282009 	0.000526362 	-0.212031
0.0123411 	-0.00282009 	0.000526362 	-0.212031
0.0123913 	-0.00286974 	0.00051301 	-0.210862
0.0123913 	-0.00286974 	0.00051301 	-0.210862
0.0124415 	-0.00291747 	0.000499518 	-0.209654
0.0124916 	-0.00296409 	0.000485944 	-0.208425
0.0124916 	-0.00296409 	0.000485944 	-0.208425
0.012592 	-0.00305225 	0.000458412 	-0.205868
0.012592 	-0.00305225 	0.000458412 	-0.205868
0.0126421 	-0.00309437 	0.000444494 	-0.204552
0.0126923 	-0.00313339 	0.000430363 	-0.203178
0.0126923 	-0.00313339 	0.000430363 	-0.203178
0.0127425 	-0.0031713 	0.000416174 	-0.201784
0.0127425 	-0.0031713 	0.000416174 	-0.201784
0.0127926 	-0.00320663 	0.000401858 	-0.200342
0.0128428 	-0.00323961 	0.000387471 	-0.198856
0.0128428 	-0.00323961 	0.000387471 	-0.198856
0.012893 	-0.00327111 	0.000373039 	-0.197343
0.0129431 	-0.00329857 	0.000358545 	-0.195755
0.0129431 	-0.00329857 	0.000358545 	-0.195755
0.0129933 	-0.00332427 	0.000344044 	-0.194132
0.0130435 	-0.00334732 	0.000329533 	-0.192459
0.0130435 	-0.00334732 	0.000329533 	-0.192459
0.0130936 	-0.00336654 	0.000315042 	-0.19071
0.0131438 	-0.00338352 	0.000300569 	-0.188916
0.0131438 	-0.00338352 	0.000300569 	-0.188916
0.013194 	-0.00339691 	0.000286131 	-0.18705
0.0132441 	-0.00340615 	0.000271748 	-0.185097
0.0132441 	-0.00340615 	0.000271748 	-0.185097
0.0132943 	-0.00341253 	0.000257414 	-0.183083
0.0133445 	-0.00341474 	0.000243164 	-0.180979
0.0133445 	-0.00341474 	0.000243164 	-0.180979
0.0133946 	-0.00341189 	0.000229062 	-0.178758
0.0134448 	-0.00340538 	0.00021509 	-0.176452
0.0134448 	-0.00340538 	0.00021509 	-0.176452
0.013495 	-0.00339481 	0.000201274 	-0.174049
0.0135452 	-0.00337735 	0.000187772 	-0.171474
0.0135452 	-0.00337735 	0.000187772 	-0.171474
0.0136455 	-0.00332822 	0.000161539 	-0.165951
0.0136455 	-0.00332822 	0.000161539 	-0.165951
0.0136957 	-0.00329496 	0.000148935 	-0.162955
0.0137458 	-0.00325404 	0.000136817 	-0.159744
0.0137458 	-0.00325404 	0.000136817 	-0.159744
0.013796 	-0.00320691 	0.000125104 	-0.156354
0.0138462 	-0.00315314 	0.000113832 	-0.152768
0.0138462 	-0.00315314 	0.000113832 	-0.152768
0.0138963 	-0.00309226 	0.000103039 	-0.14897
0.0138963 	-0.00309226 	0.000103039 	-0.14897
0.0139465 	-0.00302134 	9.29379e-05 	-0.14486
0.0139967 	-0.00294211 	8.34015e-05 	-0.140483
0.0139967 	-0.00294211 	8.34015e-05 	-0.140483
0.0140468 	-0.00285433 	7.4431e-05 	-0.135822
0.0140468 	-0.00285433 	7.4431e-05 	-0.135822
0.014097 	-0.0027576 	6.60503e-05 	-0.130856
0.0141472 	-0.00265161 	5.82984e-05 	-0.125557
0.0141973 	-0.00253612 	5.12369e-05 	-0.1199
0.0141973 	-0.00253612 	5.12369e-05 	-0.1199
0.0142475 	-0.0024094 	4.5005e-05 	-0.11379
0.0142977 	-0.00227282 	3.94288e-05 	-0.107268
0.0143478 	-0.00212649 	3.44288e-05 	-0.100338
0.0143478 	-0.00212649 	3.44288e-05 	-0.100338
0.014398 	-0.00197078 	2.99326e-05 	-0.0930199
0.014398 	-0.00197078 	2.99326e-05 	-0.0930199
0.0144482 	-0.00180659 	2.58686e-05 	-0.085359
0.0144983 	-0.00163538 	2.21478e-05 	-0.0774258
0.0144983 	-0.00163538 	2.21478e-05 	-0.0774258
0.0145485 	-0.00145923 	1.86681e-05 	-0.0693127
0.0145987 	-0.00128067 	1.53526e-05 	-0.0611226
0.0145987 	-0.00128067 	1.53526e-05 	-0.0611226
0.0146488 	-0.0011024 	1.2175e-05 	-0.0529529
0.014699 	-0.000926911 	9.14611e-06 	-0.0448822
0.014699 	-0.000926911 	9.14611e-06 	-0.0448822
0.0147492 	-0.000756333 	6.30167e-06 	-0.0369646
0.0147993 	-0.000592718 	3.73305e-06 	-0.0292377
0.0147993 	-0.000592718 	3.73305e-06 	-0.0292377
0.0148495 	-0.000438965 	1.49204e-06 	-0.0217249
0.0148495 	-0.000438965 	1.49204e-06 	-0.0217249
0.0148997 	-0.000295882 	9.62254e-08 	-0.0144098
0.0148997 	-0.000295882 	9.62254e-08 	-0.0144098
0.0149498 	-0.000154147 	-3.23721e-07 	-0.00721615
0.0149498 	-0.000154147 	-3.23721e-07 	-0.00721615
0.015 	0 	0 	0
