/*--------------------------------*- C++ -*----------------------------------*\
| =========                 |                                                 |
| \\      /  F ield         | OpenFOAM: The Open Source CFD Toolbox           |
|  \\    /   O peration     | Version:  v1912                                 |
|   \\  /    A nd           | Website:  www.openfoam.com                      |
|    \\/     M anipulation  |                                                 |
\*---------------------------------------------------------------------------*/
FoamFile
{
    version     2.0;
    format      ascii;
    class       volVectorField;
    location    "197.6";
    object      UMean;
}
// * * * * * * * * * * * * * * * * * * * * * * * * * * * * * * * * * * * * * //

dimensions      [0 1 -1 0 0 0 0];


internalField   nonuniform List<vector> 
10077
(
(2.92338e-06 -0.00097865 -0.00715079)
(-0.00383546 -2.04086e-05 -0.00358948)
(3.60026e-05 -1.00718e-05 -0.00288111)
(-0.000219857 -6.98858e-06 -0.00478537)
(7.9214e-05 -6.92888e-06 -0.00473207)
(5.30331e-05 -6.68721e-06 -0.00510401)
(7.78614e-05 -6.62587e-06 -0.00517314)
(3.29528e-05 -6.51855e-06 -0.0052591)
(1.14104e-06 -6.58627e-06 -0.00525674)
(-3.0821e-05 -6.51784e-06 -0.00526389)
(-7.60239e-05 -6.62355e-06 -0.00517752)
(-5.10987e-05 -6.68625e-06 -0.00511074)
(-7.88988e-05 -6.92129e-06 -0.00474202)
(0.000220191 -6.98942e-06 -0.00479148)
(-3.83575e-05 -1.0053e-05 -0.00289928)
(0.00383227 -2.04251e-05 -0.0035701)
(8.20725e-06 0.00493331 -0.0188741)
(-0.00982232 -6.63703e-05 -0.0077427)
(9.32827e-05 -8.00365e-05 -0.00570243)
(-0.000587433 -3.95039e-05 -0.0113427)
(0.000240052 -4.21324e-05 -0.0111863)
(0.000151576 -3.90444e-05 -0.0122929)
(0.000217145 -3.88851e-05 -0.0124964)
(9.14358e-05 -3.81178e-05 -0.0127499)
(2.93805e-06 -3.84717e-05 -0.0127427)
(-8.60765e-05 -3.81044e-05 -0.0127644)
(-0.000212368 -3.8866e-05 -0.0125103)
(-0.000146678 -3.90144e-05 -0.012314)
(-0.000239113 -4.20716e-05 -0.0112175)
(0.000588635 -3.94685e-05 -0.011362)
(-9.84756e-05 -7.99138e-05 -0.00575727)
(0.00981456 -6.64479e-05 -0.00768701)
(1.32717e-05 -0.000936821 -0.0283596)
(-0.014123 -0.000151172 -0.00915642)
(0.000243114 -0.000200552 -0.00581869)
(-0.000886103 -8.88048e-05 -0.0151394)
(0.000397035 -9.71058e-05 -0.0148804)
(0.000240277 -8.86157e-05 -0.0167156)
(0.000339073 -8.84297e-05 -0.0170502)
(0.000141996 -8.65477e-05 -0.0174679)
(4.22427e-06 -8.73487e-05 -0.0174558)
(-0.000134516 -8.65053e-05 -0.0174922)
(-0.000332181 -8.83773e-05 -0.0170745)
(-0.000233343 -8.85292e-05 -0.0167518)
(-0.000395394 -9.69544e-05 -0.0149338)
(0.000888543 -8.86985e-05 -0.0151728)
(-0.00024942 -0.000200276 -0.00591056)
(0.0141124 -0.000151415 -0.00906655)
(1.82975e-05 0.00378852 -0.0357192)
(-0.0174645 -0.000230782 -0.00812472)
(0.000403875 -0.000358954 -0.00343954)
(-0.00114466 -0.000147259 -0.0163585)
(0.000527627 -0.000164839 -0.0159945)
(0.000309903 -0.000148929 -0.018547)
(0.000439361 -0.000148948 -0.0190083)
(0.000182833 -0.000145665 -0.0195859)
(4.93092e-06 -0.000147046 -0.0195693)
(-0.000174456 -0.000145583 -0.0196202)
(-0.000431241 -0.000148855 -0.0190436)
(-0.000301817 -0.000148776 -0.0185988)
(-0.000525096 -0.000164584 -0.0160706)
(0.00114872 -0.000147068 -0.0164065)
(-0.00040982 -0.000358502 -0.00356839)
(0.0174526 -0.000231249 -0.00800255)
(2.33149e-05 0.0015166 -0.0407905)
(-0.0200401 -0.00032054 -0.00492897)
(0.000511004 -0.000545484 0.00120419)
(-0.00137572 -0.000209371 -0.0151922)
(0.000623294 -0.00023937 -0.0147207)
(0.000357193 -0.000213827 -0.0179731)
(0.000516759 -0.00021428 -0.0185559)
(0.000213477 -0.000209382 -0.0192876)
(5.05334e-06 -0.000211452 -0.0192671)
(-0.000205403 -0.000209261 -0.0193321)
(-0.000508269 -0.000214161 -0.0186025)
(-0.000348783 -0.000213629 -0.0180407)
(-0.000619674 -0.000239065 -0.0148194)
(0.00138175 -0.000209138 -0.0152552)
(-0.000515312 -0.000544829 0.00103891)
(0.0200285 -0.000321267 -0.00477631)
(2.8229e-05 0.00246848 -0.043428)
(-0.0219629 -0.000408662 0.000181724)
(0.000554659 -0.000750215 0.0078458)
(-0.00157741 -0.000272215 -0.0118518)
(0.000685962 -0.000317383 -0.0112713)
(0.000383483 -0.000280545 -0.015199)
(0.000572096 -0.000281638 -0.0158964)
(0.000234337 -0.000274885 -0.0167751)
(4.63347e-06 -0.000277752 -0.0167513)
(-0.000227666 -0.000274723 -0.0168295)
(-0.000564028 -0.000281497 -0.0159547)
(-0.000375518 -0.000280309 -0.0152822)
(-0.000681103 -0.000317053 -0.0113919)
(0.00158567 -0.000271945 -0.0119296)
(-0.000556214 -0.000749329 0.00764523)
(0.021953 -0.000409632 0.000362975)
(3.28689e-05 0.00261732 -0.0435576)
(-0.0232486 -0.000492979 0.0069519)
(0.000529813 -0.000966677 0.016148)
(-0.00174727 -0.000333685 -0.00659691)
(0.000718288 -0.000396038 -0.00590769)
(0.000390657 -0.000347259 -0.0104743)
(0.000606531 -0.000349241 -0.0112781)
(0.000246011 -0.000340484 -0.0122944)
(3.73973e-06 -0.000344247 -0.012268)
(-0.000241686 -0.000340283 -0.0123585)
(-0.00059958 -0.000349083 -0.0113477)
(-0.00038382 -0.000346988 -0.0105726)
(-0.000712095 -0.000395684 -0.00604926)
(0.00175792 -0.00033337 -0.00668921)
(-0.00052771 -0.000965566 0.0159139)
(0.0232419 -0.000494184 0.0071594)
(3.70146e-05 0.00285337 -0.0412821)
(-0.0239242 -0.000570237 0.0150776)
(0.000437898 -0.0011884 0.0256874)
(-0.00188322 -0.000391246 0.000230315)
(0.000723768 -0.000472172 0.00102519)
(0.000381335 -0.000410973 -0.00413162)
(0.000621843 -0.000414146 -0.00503233)
(0.000249408 -0.000403387 -0.00617631)
(2.47319e-06 -0.000408126 -0.00614781)
(-0.000248151 -0.000403163 -0.00624962)
(-0.000616558 -0.000414001 -0.00511331)
(-0.000376175 -0.000410712 -0.00424445)
(-0.000716201 -0.00047185 0.000863264)
(0.00189635 -0.00039093 0.000123717)
(-0.000431497 -0.00118709 0.025422)
(0.023922 -0.000571678 0.0153082)
(4.04813e-05 0.00305873 -0.0369455)
(-0.0240298 -0.000638472 0.0241995)
(0.000286252 -0.00140935 0.0360065)
(-0.00198519 -0.000442784 0.00821769)
(0.000706666 -0.000542992 0.00911274)
(0.000358786 -0.000468987 0.00341976)
(0.000620642 -0.000473622 0.00243093)
(0.000245826 -0.000460879 0.00116801)
(9.66491e-07 -0.000466657 0.00119828)
(-0.000248079 -0.000460648 0.00108569)
(-0.000617385 -0.000473518 0.00233848)
(-0.000355666 -0.00046878 0.00329236)
(-0.000697726 -0.000542758 0.00893008)
(0.00200078 -0.000442504 0.00809634)
(-0.0002752 -0.00140789 0.0357119)
(0.0240332 -0.000640157 0.0244494)
(4.31981e-05 0.00328443 -0.0310677)
(-0.023638 -0.000695932 0.0339536)
(8.64189e-05 -0.00162343 0.0467093)
(-0.00205609 -0.00048656 0.0169628)
(0.000671427 -0.000606121 0.0179513)
(0.000326414 -0.000519053 0.011772)
(0.000606136 -0.000525373 0.0107018)
(0.000236802 -0.000510656 0.00932563)
(-6.47239e-07 -0.000517522 0.0093575)
(-0.000242728 -0.000510432 0.00923431)
(-0.000605073 -0.000525331 0.0105973)
(-0.000325504 -0.000518938 0.0116294)
(-0.000661131 -0.000606019 0.0177465)
(0.00207404 -0.000486352 0.0168254)
(-7.06165e-05 -0.00162187 0.0463869)
(0.0236481 -0.000697867 0.0342184)
(4.52089e-05 0.00351251 -0.0241641)
(-0.0228425 -0.000741193 0.0440367)
(-0.000149747 -0.00182675 0.0575896)
(-0.00210085 -0.000521166 0.0261546)
(0.000621981 -0.00065945 0.0272296)
(0.000287121 -0.00055926 0.0206048)
(0.00058148 -0.000567437 0.019458)
(0.000223788 -0.000550762 0.0179717)
(-2.26542e-06 -0.00055875 0.018005)
(-0.000233344 -0.000550558 0.0178712)
(-0.000582626 -0.000567477 0.0193407)
(-0.000288435 -0.000559273 0.020446)
(-0.00061036 -0.000659518 0.0270008)
(0.00212102 -0.000521061 0.0259996)
(0.000170248 -0.00182514 0.0572403)
(0.0228599 -0.000743388 0.044313)
(4.66156e-05 0.00373962 -0.0166103)
(-0.0217283 -0.000773282 0.0543057)
(-0.000411701 -0.00201649 0.0685641)
(-0.0021246 -0.000545666 0.0356498)
(0.000561267 -0.000701558 0.0368141)
(0.000242993 -0.000588134 0.0297422)
(0.000549244 -0.000598244 0.0285168)
(0.000207941 -0.000579576 0.0269125)
(-3.81959e-06 -0.000588708 0.0269477)
(-0.000220944 -0.0005794 0.0268021)
(-0.000552498 -0.000598379 0.0283851)
(-0.000246423 -0.000588298 0.0295652)
(-0.000548322 -0.000701815 0.0365577)
(0.00214686 -0.000545683 0.0354743)
(0.000436803 -0.00201485 0.0681878)
(0.0217532 -0.000775748 0.0545891)
(4.75201e-05 0.00396658 -0.00862485)
(-0.0203614 -0.000792316 0.0646799)
(-0.00068714 -0.00218899 0.0795223)
(-0.00213079 -0.000559409 0.0454487)
(0.000491484 -0.000731493 0.0467004)
(0.000195195 -0.000604778 0.0391852)
(0.000511025 -0.000616869 0.0378807)
(0.000189919 -0.000596154 0.0361537)
(-5.29605e-06 -0.000606451 0.0361905)
(-0.000206163 -0.000596014 0.0360323)
(-0.000516265 -0.000617106 0.0377327)
(-0.000200621 -0.000605112 0.0389883)
(-0.000477238 -0.000731953 0.0464134)
(0.00215503 -0.000559562 0.0452498)
(0.000716725 -0.00218737 0.0791195)
(0.020394 -0.000795065 0.0649652)
(4.80217e-05 0.0041972 -0.000317571)
(-0.0188005 -0.000798207 0.0750356)
(-0.000963228 -0.00234166 0.0903455)
(-0.00212121 -0.000561767 0.0555244)
(0.000415161 -0.000748349 0.0568448)
(0.000144865 -0.000608405 0.048937)
(0.000468078 -0.000622485 0.04756)
(0.00017022 -0.000599649 0.0457204)
(-6.6915e-06 -0.000611132 0.0457576)
(-0.000189495 -0.000599552 0.0455877)
(-0.000475189 -0.00062283 0.0473955)
(-0.000152196 -0.000608926 0.04872)
(-0.000399717 -0.000749015 0.0565272)
(0.00214729 -0.000562065 0.0553015)
(0.000997144 -0.00234009 0.0899192)
(0.0188408 -0.000801247 0.0753182)
(4.81974e-05 0.00442558 0.00833346)
(-0.017099 -0.000791034 0.0852672)
(-0.00122904 -0.00247308 0.100936)
(-0.00209712 -0.000552524 0.0657852)
(0.000335082 -0.000751731 0.0671512)
(9.35665e-05 -0.000598627 0.0589082)
(0.000421921 -0.000614628 0.0574664)
(0.000149499 -0.000589545 0.0555268)
(-7.97504e-06 -0.000602223 0.0555633)
(-0.000171542 -0.000589493 0.0553833)
(-0.000430756 -0.000615077 0.0572858)
(-0.000102687 -0.000599332 0.0586724)
(-0.000318576 -0.000752589 0.066804)
(0.00212491 -0.000552961 0.065539)
(0.00126709 -0.0024716 0.10049)
(0.0171469 -0.000794375 0.085543)
(4.80829e-05 0.00464939 0.0174161)
(-0.0153069 -0.000771625 0.095289)
(-0.0014758 -0.00258253 0.111218)
(-0.00205993 -0.000531919 0.0761434)
(0.000253659 -0.000741795 0.0775297)
(4.26676e-05 -0.000575633 0.069011)
(0.000373923 -0.000593447 0.0675119)
(0.000128345 -0.000565948 0.0654859)
(-9.11765e-06 -0.000579828 0.0655202)
(-0.000152837 -0.000565941 0.065332)
(-0.000384297 -0.000593985 0.0673159)
(-5.34315e-05 -0.000576511 0.0687576)
(-0.000236238 -0.000742813 0.0771545)
(0.00208925 -0.000532478 0.0758746)
(0.00151773 -0.00258116 0.110756)
(0.0153622 -0.000775281 0.0955546)
(4.77004e-05 0.00487349 0.026929)
(-0.0134682 -0.00074075 0.105033)
(-0.00169672 -0.00266988 0.121131)
(-0.00201116 -0.000500385 0.0865155)
(0.000172988 -0.000718976 0.0878967)
(-6.67829e-06 -0.000539891 0.0791627)
(0.000325292 -0.000559371 0.0776136)
(0.000107271 -0.000529238 0.0755152)
(-1.00955e-05 -0.000544325 0.0755459)
(-0.000133852 -0.000529272 0.0753515)
(-0.000336987 -0.000559978 0.077403)
(-5.55335e-06 -0.000540915 0.078893)
(-0.000154804 -0.000720109 0.0874952)
(0.00204187 -0.00050104 0.0862252)
(0.00174228 -0.00266864 0.120657)
(0.0135306 -0.000744745 0.105285)
(4.70769e-05 0.00510017 0.0367791)
(-0.0116206 -0.00069916 0.114446)
(-0.00188705 -0.00273552 0.13063)
(-0.00195246 -0.00045848 0.0968152)
(9.49713e-05 -0.00068397 0.0981681)
(-5.34455e-05 -0.000492045 0.0892781)
(0.000277138 -0.000513008 0.0876868)
(8.67409e-05 -0.000479963 0.0855295)
(-1.08888e-05 -0.000496265 0.0855557)
(-0.000115015 -0.000480034 0.0853567)
(-0.000289911 -0.000513658 0.0874622)
(3.99456e-05 -0.000493179 0.0889933)
(-7.61737e-05 -0.000685166 0.0977419)
(0.00198438 -0.000459198 0.0965044)
(0.00193591 -0.0027344 0.130148)
(0.0116895 -0.000703523 0.114682)
(4.62478e-05 0.00532664 0.0468358)
(-0.00979709 -0.000647567 0.123487)
(-0.00204391 -0.00278015 0.139681)
(-0.00188567 -0.00040701 0.106947)
(2.13106e-05 -0.000637771 0.108254)
(-9.67292e-05 -0.000432922 0.0992632)
(0.000230499 -0.000455122 0.0976375)
(6.71834e-05 -0.000418814 0.0954337)
(-1.14829e-05 -0.000436339 0.0954547)
(-9.67284e-05 -0.000418918 0.0952526)
(-0.000244085 -0.000455794 0.0973997)
(8.21811e-05 -0.000434129 0.0989643)
(-2.04148e-06 -0.000638963 0.107805)
(0.00191866 -0.000407752 0.106618)
(0.00209574 -0.00277916 0.139194)
(0.00987186 -0.000652319 0.123704)
(4.5256e-05 0.00555044 0.0569451)
(-0.00802666 -0.000586811 0.13212)
(-0.00216622 -0.00280476 0.14826)
(-0.00181307 -0.000346863 0.11681)
(-4.65785e-05 -0.000581508 0.118061)
(-0.000135819 -0.000363642 0.109015)
(0.000186307 -0.000386835 0.107363)
(4.89691e-05 -0.000346902 0.105124)
(-1.18699e-05 -0.000365652 0.10514)
(-7.93511e-05 -0.000347034 0.104936)
(-0.000200428 -0.000387503 0.107113)
(0.000120458 -0.000364877 0.108703)
(6.61885e-05 -0.000582626 0.117592)
(0.00184694 -0.000347583 0.116463)
(0.00222066 -0.00280388 0.147771)
(0.0081065 -0.000591963 0.132318)
(4.41456e-05 0.00577102 0.0669608)
(-0.00633549 -0.00051788 0.140324)
(-0.00225444 -0.00281049 0.156353)
(-0.00173724 -0.000279317 0.126307)
(-0.000107759 -0.000516551 0.127497)
(-0.000170307 -0.000285691 0.11844)
(0.000145257 -0.000309569 0.116776)
(3.23433e-05 -0.000265536 0.114525)
(-1.20508e-05 -0.000285513 0.114534)
(-6.31325e-05 -0.000265677 0.114331)
(-0.000159637 -0.000310198 0.116516)
(0.000154369 -0.000286898 0.118118)
(0.000127591 -0.000517504 0.127013)
(0.00177182 -0.00027995 0.125948)
(0.00231112 -0.0028097 0.155865)
(0.00641948 -0.000523432 0.140501)
(4.29559e-05 0.00598722 0.0767891)
(-0.00474684 -0.000441813 0.148083)
(-0.00231035 -0.00279867 0.163956)
(-0.00166033 -0.000205558 0.1354)
(-0.000161904 -0.000444432 0.136501)
(-0.000200223 -0.000200305 0.127521)
(0.000107624 -0.000224582 0.125855)
(1.74012e-05 -0.00017597 0.123609)
(-1.2032e-05 -0.000197173 0.123611)
(-4.81828e-05 -0.000176092 0.123411)
(-0.000121987 -0.00022512 0.125588)
(0.000183951 -0.000201412 0.12719)
(0.000181859 -0.000445119 0.136005)
(0.00169546 -0.000206037 0.13503)
(0.0023689 -0.00279795 0.163472)
(0.00483399 -0.000447764 0.148239)
(4.17199e-05 0.00619874 0.0863946)
(-0.00328056 -0.000359534 0.15539)
(-0.00233673 -0.00277078 0.171074)
(-0.00158368 -0.000126365 0.144103)
(-0.000209362 -0.000366179 0.145088)
(-0.00022573 -0.000108548 0.136266)
(7.35214e-05 -0.000133047 0.134602)
(4.18727e-06 -7.95963e-05 0.132364)
(-1.18227e-05 -0.000102003 0.132358)
(-3.45666e-05 -7.96654e-05 0.132162)
(-8.75939e-05 -0.00013344 0.134328)
(0.000209373 -0.000109489 0.135927)
(0.000229373 -0.000366524 0.144581)
(0.00161923 -0.000126644 0.143723)
(0.00239679 -0.0027701 0.170595)
(0.00336983 -0.000365882 0.155524)
(4.04647e-05 0.00640567 0.0957718)
(-0.00195237 -0.00027211 0.162244)
(-0.00233708 -0.00272842 0.177717)
(-0.0015083 -4.25383e-05 0.152427)
(-0.000250523 -0.000282664 0.15329)
(-0.000246945 -1.17224e-05 0.144666)
(4.30627e-05 -3.63188e-05 0.143008)
(-7.28392e-06 2.21116e-05 0.140775)
(-1.14353e-05 -1.46939e-06 0.140763)
(-2.23251e-05 2.21335e-05 0.140571)
(-5.6585e-05 -3.65067e-05 0.142727)
(0.00023075 -1.24278e-05 0.14432)
(0.000270552 -0.000282609 0.152772)
(0.00154415 -4.2582e-05 0.152036)
(0.0023983 -0.00272774 0.177246)
(0.00204275 -0.000278871 0.162357)
(3.92126e-05 0.00660809 0.104921)
(-0.000770406 -0.000180099 0.168661)
(-0.00231528 -0.00267327 0.183904)
(-0.00143506 4.51081e-05 0.160374)
(-0.000285566 -0.000195027 0.161107)
(-0.000264075 8.92447e-05 0.152728)
(1.62303e-05 6.46297e-05 0.151079)
(-1.70551e-05 0.000128029 0.148854)
(-1.08839e-05 0.000103322 0.148835)
(-1.14456e-05 0.000128181 0.148647)
(-2.89588e-05 6.47073e-05 0.150791)
(0.000248277 8.88347e-05 0.152373)
(0.000305592 -0.000194532 0.160579)
(0.0014711 4.53171e-05 0.159972)
(0.00237733 -0.00267255 0.183442)
(0.000861095 -0.000187314 0.168753)
(3.79811e-05 0.00680579 0.113838)
(0.000269407 -8.36207e-05 0.17469)
(-0.00227534 -0.00260701 0.189657)
(-0.00136453 0.00013589 0.167952)
(-0.00031478 -0.000104161 0.168547)
(-0.00027737 0.00019365 0.16047)
(-7.0727e-06 0.000169071 0.158836)
(-2.51957e-05 0.000237323 0.156624)
(-1.01815e-05 0.000211553 0.156598)
(-1.88651e-06 0.00023764 0.156414)
(-4.63422e-06 0.000169461 0.15854)
(0.000262193 0.000193575 0.160105)
(0.000334801 -0.000103208 0.168008)
(0.00140067 0.000136352 0.167539)
(0.00233791 -0.0026062 0.189206)
(-0.000178915 -9.13012e-05 0.174759)
(3.67834e-05 0.00699876 0.122511)
(0.00117551 1.59301e-05 0.180372)
(-0.00222118 -0.00253125 0.195002)
(-0.00129703 0.000229133 0.175173)
(-0.000338561 -1.08875e-05 0.175618)
(-0.000287065 0.000300916 0.16791)
(-2.69625e-05 0.000276437 0.1663)
(-3.17766e-05 0.000349387 0.164109)
(-9.33917e-06 0.000322627 0.164076)
(6.39889e-06 0.0003499 0.163896)
(1.64919e-05 0.000277169 0.165996)
(0.000272724 0.000301193 0.167535)
(0.000358598 -9.47561e-06 0.17507)
(0.00133319 0.000229835 0.17475)
(0.00228398 -0.0025303 0.194564)
(-0.00108562 7.83483e-06 0.180419)
(3.56286e-05 0.00718743 0.130919)
(0.00195526 0.000116949 0.18572)
(-0.00215653 -0.00244739 0.199966)
(-0.00123263 0.000324127 0.182045)
(-0.00035732 8.39713e-05 0.182331)
(-0.000293363 0.00041051 0.175062)
(-4.35523e-05 0.000386233 0.173486)
(-3.68613e-05 0.000463779 0.17133)
(-8.36613e-06 0.000436088 0.171288)
(1.34539e-05 0.000464509 0.171114)
(3.45222e-05 0.000387319 0.173173)
(0.000280067 0.00041114 0.174677)
(0.000377411 8.58392e-05 0.181776)
(0.00126872 0.000325049 0.181613)
(0.00221933 -0.00244626 0.199542)
(-0.00186638 0.000108496 0.185745)
(3.4522e-05 0.00737202 0.139043)
(0.00261546 0.000218553 0.190741)
(-0.00208485 -0.00235681 0.204578)
(-0.00117119 0.00042009 0.188572)
(-0.000371447 0.000179569 0.188693)
(-0.000296443 0.000521883 0.181929)
(-5.69522e-05 0.000497962 0.180397)
(-4.05085e-05 0.000580091 0.178294)
(-7.27124e-06 0.000551507 0.178241)
(1.93183e-05 0.000581051 0.178075)
(4.95568e-05 0.000499407 0.180076)
(0.000284395 0.000522861 0.181534)
(0.000391654 0.000181895 0.188133)
(0.00120715 0.000421214 0.188133)
(0.00214741 -0.00235545 0.204171)
(-0.00252796 0.000209787 0.190746)
(3.34669e-05 0.00755205 0.14686)
(0.00316254 0.000319599 0.195445)
(-0.00200883 -0.00226046 0.208874)
(-0.00111252 0.000516047 0.194747)
(-0.000381313 0.000274973 0.194703)
(-0.000296478 0.000634358 0.188502)
(-6.728e-05 0.000611012 0.187026)
(-4.27798e-05 0.000697828 0.184996)
(-6.06423e-06 0.000668368 0.184931)
(2.4033e-05 0.000699028 0.184775)
(6.17019e-05 0.000612819 0.186698)
(0.000285877 0.000635682 0.188099)
(0.000401713 0.000277775 0.194142)
(0.00114831 0.000517369 0.194304)
(0.00207097 -0.00225884 0.208485)
(-0.00307675 0.000310576 0.195431)
(3.24644e-05 0.007727 0.154353)
(0.00360396 0.000418859 0.199842)
(-0.00193041 -0.00215904 0.212887)
(-0.0010564 0.000610743 0.200558)
(-0.000387284 0.000369064 0.200357)
(-0.000293679 0.000746956 0.194756)
(-7.46849e-05 0.00072448 0.193347)
(-4.37539e-05 0.000816229 0.191412)
(-4.75827e-06 0.000785894 0.191333)
(2.76495e-05 0.00081768 0.191189)
(7.10891e-05 0.000726658 0.193013)
(0.000284705 0.000748636 0.194348)
(0.000407967 0.000372386 0.199799)
(0.00109198 0.000612284 0.200114)
(0.00199195 -0.0021571 0.212518)
(-0.00352015 0.000409619 0.199811)
(3.1515e-05 0.00789572 0.161505)
(0.00394831 0.0005159 0.203944)
(-0.00185101 -0.00205372 0.216644)
(-0.00100252 0.000702715 0.205995)
(-0.000389746 0.000460548 0.205647)
(-0.000288315 0.00085831 0.200661)
(-7.93797e-05 0.00083707 0.199326)
(-4.35423e-05 0.000934129 0.197507)
(-3.37241e-06 0.000902906 0.197411)
(3.02408e-05 0.000935844 0.197284)
(7.79034e-05 0.000839635 0.198989)
(0.000281128 0.000860372 0.20025)
(0.0004108 0.000464469 0.205098)
(0.00103788 0.000704529 0.205554)
(0.00191183 -0.00205138 0.216295)
(-0.00386666 0.000506457 0.203899)
(3.06194e-05 0.00805662 0.168298)
(0.00420508 0.000610824 0.207765)
(-0.00177182 -0.00194575 0.22016)
(-0.000950482 0.000790605 0.211056)
(-0.000389086 0.000548165 0.210574)
(-0.000280713 0.000966693 0.206187)
(-8.16488e-05 0.000947086 0.20493)
(-4.22942e-05 0.00104993 0.203241)
(-1.93148e-06 0.0010178 0.203129)
(3.19063e-05 0.00105193 0.203019)
(8.23914e-05 0.000950073 0.204592)
(0.000275433 0.000969186 0.205777)
(0.000410593 0.000552793 0.210036)
(0.000985633 0.000792781 0.210622)
(0.00183181 -0.00194296 0.219832)
(-0.00412571 0.000601216 0.207708)
(2.97773e-05 0.00820922 0.1747)
(0.00438441 0.000703532 0.211321)
(-0.00169394 -0.00183607 0.22345)
(-0.000899863 0.000873295 0.21575)
(-0.000385677 0.000630918 0.215145)
(-0.000271208 0.00107025 0.211318)
(-8.18201e-05 0.00105259 0.210137)
(-4.01833e-05 0.00116168 0.208587)
(-4.64067e-07 0.00112864 0.208459)
(3.27627e-05 0.00116399 0.208367)
(8.48359e-05 0.00105605 0.209801)
(0.000267911 0.00107326 0.210912)
(0.000407701 0.000636377 0.214623)
(0.000934827 0.000875934 0.215326)
(0.00175303 -0.00183277 0.223142)
(-0.0043074 0.000693821 0.211256)
(2.89876e-05 0.00835035 0.180662)
(0.00449705 0.000793915 0.214631)
(-0.00161849 -0.00172538 0.226529)
(-0.000850256 0.000950029 0.22009)
(-0.000379887 0.000708085 0.219373)
(-0.000260113 0.00116745 0.216052)
(-8.02233e-05 0.00115194 0.214942)
(-3.73853e-05 0.00126754 0.21353)
(1.00023e-06 0.0012336 0.213386)
(3.29274e-05 0.00127019 0.213314)
(8.55202e-05 0.00115595 0.21461)
(0.000258833 0.00117108 0.215652)
(0.000402474 0.000714485 0.218869)
(0.000885063 0.000953225 0.219677)
(0.00167663 -0.00172155 0.22624)
(-0.00442241 0.000784179 0.214559)
(2.82473e-05 0.00847864 0.18613)
(0.0045545 0.000882001 0.21771)
(-0.00154664 -0.00161429 0.22941)
(-0.000801338 0.0010204 0.224094)
(-0.000372087 0.000779325 0.223277)
(-0.000247734 0.00125718 0.220398)
(-7.71816e-05 0.00124386 0.219351)
(-3.40677e-05 0.00136602 0.218071)
(2.43387e-06 0.00133124 0.217913)
(3.25144e-05 0.00136905 0.217859)
(8.47253e-05 0.0012485 0.219026)
(0.00024846 0.00126151 0.220006)
(0.000395259 0.00078674 0.22279)
(0.000836023 0.00102421 0.223694)
(0.00160379 -0.0016099 0.229139)
(-0.00448222 0.00087232 0.217634)
(2.75538e-05 0.00859774 0.19108)
(0.00456948 0.00096772 0.220579)
(-0.00147956 -0.00150347 0.232108)
(-0.000752931 0.0010842 0.22778)
(-0.000362642 0.0008445 0.226874)
(-0.000234376 0.00133894 0.224371)
(-7.30143e-05 0.00132777 0.223379)
(-3.03902e-05 0.00145628 0.222221)
(3.81263e-06 0.00142073 0.22205)
(3.16374e-05 0.00145972 0.222015)
(8.27329e-05 0.0013331 0.223061)
(0.000237063 0.00134404 0.223989)
(0.000386401 0.000852963 0.226405)
(0.000787526 0.00108867 0.227392)
(0.00153569 -0.00149854 0.231852)
(-0.00449948 0.000958174 0.220501)
(2.69107e-05 0.00870613 0.195553)
(0.00455376 0.00105163 0.223259)
(-0.00141776 -0.00139346 0.234643)
(-0.000705049 0.00114144 0.231167)
(-0.000351923 0.000903663 0.230184)
(-0.000220361 0.0014126 0.227993)
(-6.80343e-05 0.00140351 0.227045)
(-2.65054e-05 0.00153802 0.225997)
(5.11514e-06 0.00150179 0.225815)
(3.04092e-05 0.0015419 0.225797)
(7.98234e-05 0.00140955 0.226734)
(0.000224929 0.00141851 0.22762)
(0.000376254 0.000913175 0.229732)
(0.000739578 0.00114657 0.230791)
(0.00147285 -0.00138801 0.234402)
(-0.00448588 0.0010423 0.22318)
(2.63288e-05 0.00879714 0.199643)
(0.00451495 0.00113454 0.225776)
(-0.00136068 -0.00128427 0.237043)
(-0.000657914 0.00119237 0.234275)
(-0.000340321 0.000957064 0.233225)
(-0.000206042 0.00147836 0.231283)
(-6.2549e-05 0.00147123 0.23037)
(-2.25601e-05 0.00161134 0.22942)
(6.3228e-06 0.0015745 0.229227)
(2.89418e-05 0.00161567 0.229226)
(7.62757e-05 0.00147801 0.230068)
(0.000212383 0.00148509 0.230921)
(0.000365193 0.000967603 0.232789)
(0.000692393 0.00119814 0.233909)
(0.00141471 -0.00127833 0.236813)
(-0.00444898 0.00112545 0.225698)
(2.58181e-05 0.00886321 0.203429)
(0.00445623 0.00121595 0.228157)
(-0.00130715 -0.00117597 0.239327)
(-0.000612018 0.00123738 0.23712)
(-0.000328305 0.00100506 0.236013)
(-0.000191826 0.00153661 0.234267)
(-5.68669e-05 0.00153133 0.233378)
(-1.86961e-05 0.00167659 0.232511)
(7.41992e-06 0.00163921 0.232309)
(2.73477e-05 0.00168137 0.232323)
(7.23749e-05 0.00153886 0.233085)
(0.00019981 0.00154417 0.233913)
(0.000353676 0.00101659 0.235592)
(0.000646456 0.00124379 0.236765)
(0.0013601 -0.00116958 0.239107)
(-0.00439201 0.00120708 0.22808)
(2.53795e-05 0.00890549 0.206957)
(0.00437764 0.00129538 0.230418)
(-0.00125601 -0.00106896 0.241504)
(-0.000567958 0.00127682 0.239722)
(-0.000316372 0.00104795 0.238569)
(-0.000178159 0.00158784 0.236969)
(-5.12918e-05 0.00158428 0.236097)
(-1.5048e-05 0.00173427 0.235297)
(8.39412e-06 0.00169641 0.235088)
(2.57378e-05 0.00173949 0.235115)
(6.84057e-05 0.00159255 0.235811)
(0.000187638 0.00159621 0.236624)
(0.00034219 0.00106045 0.238159)
(0.000602363 0.00128383 0.239376)
(0.00130789 -0.00106216 0.241291)
(-0.00431504 0.00128675 0.230342)
(2.50059e-05 0.00893302 0.210255)
(0.00427924 0.00137324 0.232573)
(-0.00120641 -0.000963583 0.243582)
(-0.000525799 0.00131114 0.242116)
(-0.000304782 0.00108631 0.240928)
(-0.000165317 0.00163263 0.23943)
(-4.60339e-05 0.00163069 0.238567)
(-1.17049e-05 0.0017849 0.237818)
(9.23942e-06 0.00174663 0.237604)
(2.41894e-05 0.00179055 0.237642)
(6.45685e-05 0.00163969 0.238289)
(0.000176132 0.0016418 0.239093)
(0.000330997 0.00109972 0.240526)
(0.000560189 0.00131872 0.241774)
(0.00125723 -0.000956438 0.243373)
(-0.00421818 0.00136486 0.232498)
(2.46878e-05 0.00894618 0.213343)
(0.00416388 0.00144974 0.234632)
(-0.00115763 -0.000860156 0.245567)
(-0.000484999 0.0013411 0.244343)
(-0.00029352 0.00112087 0.243134)
(-0.000153231 0.00167194 0.241706)
(-4.11367e-05 0.00167154 0.240848)
(-8.65486e-06 0.00182954 0.240135)
(9.96407e-06 0.00179092 0.239918)
(2.27058e-05 0.00183561 0.239964)
(6.09206e-05 0.00168124 0.240576)
(0.000165237 0.00168188 0.241374)
(0.000320089 0.00113512 0.242738)
(0.000519393 0.00134921 0.244005)
(0.00120743 -0.000852722 0.245361)
(-0.00410433 0.00144163 0.234557)
(2.44199e-05 0.0089411 0.216243)
(0.0040364 0.00152491 0.236603)
(-0.00110899 -0.00075897 0.247466)
(-0.000445179 0.00136732 0.246434)
(-0.00028253 0.0011521 0.245214)
(-0.000141764 0.00170649 0.243836)
(-3.65906e-05 0.00170757 0.24298)
(-5.85854e-06 0.00186905 0.242296)
(1.05847e-05 0.00183009 0.242075)
(2.12741e-05 0.0018755 0.242128)
(5.74744e-05 0.00171794 0.242712)
(0.000154842 0.00171717 0.243507)
(0.000309415 0.00116717 0.244822)
(0.00047959 0.00137595 0.246098)
(0.00115782 -0.000751294 0.24726)
(-0.00397827 0.00151708 0.236528)
(2.41998e-05 0.00891804 0.218979)
(0.00390196 0.00159874 0.238493)
(-0.00105986 -0.000660244 0.249283)
(-0.000406271 0.00139028 0.248406)
(-0.000271808 0.00118045 0.247184)
(-0.000130888 0.0017368 0.245839)
(-3.24057e-05 0.00173932 0.244984)
(-3.30564e-06 0.00190391 0.244322)
(1.11131e-05 0.00186466 0.244099)
(1.99032e-05 0.00191074 0.244157)
(5.42547e-05 0.00175034 0.244719)
(0.000144928 0.0017482 0.245513)
(0.000298975 0.00119631 0.246794)
(0.000440711 0.00139941 0.248069)
(0.00110779 -0.00065237 0.249077)
(-0.0038451 0.00159121 0.238417)
(2.40257e-05 0.00887841 0.221574)
(0.00376517 0.00167118 0.240307)
(-0.00100975 -0.000564098 0.251023)
(-0.000368259 0.00141046 0.250271)
(-0.000261354 0.00120642 0.249056)
(-0.000120587 0.00176355 0.247732)
(-2.85895e-05 0.00176748 0.246876)
(-9.86499e-07 0.00193488 0.246232)
(1.15561e-05 0.00189536 0.246006)
(1.85986e-05 0.00194206 0.246068)
(5.12796e-05 0.00177912 0.246613)
(0.000135487 0.00177566 0.247408)
(0.000288773 0.00122303 0.248668)
(0.000402735 0.00142008 0.249935)
(0.00105686 -0.000556059 0.250816)
(-0.00370944 0.00166395 0.240231)
(2.38955e-05 0.00882337 0.224053)
(0.00362945 0.0017422 0.242053)
(-0.000958295 -0.000470578 0.25269)
(-0.000331151 0.00142836 0.252043)
(-0.000251154 0.00123046 0.250841)
(-0.000110841 0.00178738 0.24953)
(-2.51423e-05 0.00179268 0.248671)
(1.11072e-06 0.00196257 0.248041)
(1.19192e-05 0.0019228 0.247814)
(1.73613e-05 0.00197008 0.247879)
(4.85577e-05 0.00180492 0.248412)
(0.000126505 0.00180016 0.249207)
(0.000278795 0.0012478 0.250455)
(0.000365668 0.00143846 0.251706)
(0.00100464 -0.000462398 0.252481)
(-0.00357469 0.00173527 0.241976)
(2.38068e-05 0.00875446 0.226438)
(0.00349698 0.00181173 0.243734)
(-0.000905215 -0.000379684 0.254289)
(-0.000294932 0.00144442 0.253733)
(-0.000241168 0.00125299 0.252552)
(-0.000101607 0.0018088 0.251244)
(-2.20508e-05 0.00181543 0.250384)
(3.0024e-06 0.00198751 0.249763)
(1.22081e-05 0.00194753 0.249535)
(1.61863e-05 0.00199534 0.249603)
(4.60846e-05 0.00182825 0.250127)
(0.000117949 0.00182223 0.250923)
(0.000269006 0.00127103 0.252166)
(0.000329493 0.00145498 0.253396)
(0.000950874 -0.000371378 0.254078)
(-0.00344307 0.0018051 0.243656)
(2.37567e-05 0.00867385 0.22875)
(0.00336928 0.00187968 0.245357)
(-0.000850352 -0.000291386 0.255823)
(-0.000259564 0.00145907 0.255351)
(-0.000231341 0.00127438 0.254194)
(-9.28274e-05 0.00182823 0.252886)
(-1.92941e-05 0.00183614 0.252025)
(4.70668e-06 0.00201013 0.251411)
(1.2429e-05 0.00196996 0.251182)
(1.50671e-05 0.00201825 0.251252)
(4.38484e-05 0.00184953 0.251769)
(0.00010977 0.0018423 0.252567)
(0.000259354 0.00129309 0.253809)
(0.000294172 0.00147009 0.255013)
(0.000895392 -0.000282964 0.255609)
(-0.00331609 0.00187334 0.245277)
(2.37439e-05 0.00858418 0.231005)
(0.00324762 0.00194598 0.246926)
(-0.000793635 -0.000205632 0.257295)
(-0.00022499 0.0014727 0.256905)
(-0.000221615 0.00129494 0.255776)
(-8.44462e-05 0.00184601 0.254464)
(-1.68475e-05 0.00185516 0.253602)
(6.24247e-06 0.00203079 0.252992)
(1.25883e-05 0.00199045 0.252764)
(1.39957e-05 0.0020392 0.252836)
(4.18323e-05 0.00186909 0.253348)
(0.000101918 0.00186071 0.254146)
(0.000249783 0.00131431 0.255392)
(0.00025965 0.00148416 0.256566)
(0.000838127 -0.000197101 0.257078)
(-0.003195 0.00193991 0.246843)
(2.37677e-05 0.00848814 0.233213)
(0.00313337 0.00201045 0.248444)
(-0.000735095 -0.000122344 0.258708)
(-0.000191148 0.00148568 0.258401)
(-0.000211928 0.00131491 0.257302)
(-7.64066e-05 0.00186243 0.255985)
(-1.46833e-05 0.00187276 0.255122)
(7.62871e-06 0.00204981 0.254516)
(1.26917e-05 0.00200934 0.254289)
(1.29624e-05 0.00205849 0.254361)
(4.00144e-05 0.00188722 0.25487)
(9.4342e-05 0.00187774 0.255667)
(0.000240236 0.00133491 0.256918)
(0.000225867 0.00149758 0.258061)
(0.000779108 -0.000113709 0.258488)
(-0.00308116 0.00200465 0.248359)
(2.38281e-05 0.00838783 0.235376)
(0.00302759 0.00207293 0.249914)
(-0.000674883 -4.14172e-05 0.260066)