/*--------------------------------*- C++ -*----------------------------------*\
| =========                 |                                                 |
| \\      /  F ield         | OpenFOAM: The Open Source CFD Toolbox           |
|  \\    /   O peration     | Version:  v1912                                 |
|   \\  /    A nd           | Website:  www.openfoam.com                      |
|    \\/     M anipulation  |                                                 |
\*---------------------------------------------------------------------------*/
FoamFile
{
    version     2.0;
    format      ascii;
    class       volScalarField;
    location    "198.8";
    object      alphat;
}
// * * * * * * * * * * * * * * * * * * * * * * * * * * * * * * * * * * * * * //

dimensions      [1 -1 -1 0 0 0 0];


internalField   nonuniform List<scalar> 
10147
(
1.05902e-08
1.39147e-08
1.65453e-08
1.58039e-08
1.54603e-08
1.54772e-08
1.54045e-08
1.53845e-08
1.53676e-08
1.53904e-08
1.54127e-08
1.5488e-08
1.54698e-08
1.58149e-08
1.65646e-08
1.39367e-08
1.66038e-08
2.18853e-08
2.61868e-08
2.53704e-08
2.47039e-08
2.47467e-08
2.46254e-08
2.4593e-08
2.45656e-08
2.46068e-08
2.46448e-08
2.47729e-08
2.47274e-08
2.53988e-08
2.6215e-08
2.19185e-08
1.56317e-07
2.01523e-07
2.32411e-07
2.43262e-07
2.35827e-07
2.36312e-07
2.35119e-07
2.34792e-07
2.34535e-07
2.34967e-07
2.3537e-07
2.36653e-07
2.36138e-07
2.43643e-07
2.32826e-07
2.01917e-07
1.09262e-06
1.38076e-06
1.56753e-06
1.67301e-06
1.62261e-06
1.62532e-06
1.61728e-06
1.61492e-06
1.61324e-06
1.61614e-06
1.61902e-06
1.62769e-06
1.62477e-06
1.67565e-06
1.57059e-06
1.38356e-06
4.64159e-06
5.74412e-06
6.43633e-06
6.93964e-06
6.73831e-06
6.74678e-06
6.71458e-06
6.70457e-06
6.69799e-06
6.70948e-06
6.72167e-06
6.7564e-06
6.74715e-06
6.9504e-06
6.44907e-06
5.75562e-06
1.41646e-05
1.71377e-05
1.89364e-05
2.05765e-05
2.00095e-05
2.00276e-05
1.99371e-05
1.99076e-05
1.98895e-05
1.99215e-05
1.99573e-05
2.0055e-05
2.00348e-05
2.06073e-05
1.89733e-05
1.71706e-05
3.43578e-05
4.06089e-05
4.41935e-05
4.83461e-05
4.70954e-05
4.71279e-05
4.69307e-05
4.68644e-05
4.68255e-05
4.68954e-05
4.69756e-05
4.7189e-05
4.71518e-05
4.8415e-05
4.42769e-05
4.06825e-05
7.04273e-05
8.13236e-05
8.70785e-05
9.58506e-05
9.35491e-05
9.36112e-05
9.32572e-05
9.31379e-05
9.30683e-05
9.31954e-05
9.33402e-05
9.37242e-05
9.36534e-05
9.59792e-05
8.72349e-05
8.14602e-05
0.000127046
0.000143374
0.000150942
0.00016713
0.000163448
0.000163587
0.000163045
0.000162869
0.000162761
0.000162961
0.000163177
0.000163767
0.000163614
0.000167338
0.000151197
0.000143594
0.000207564
0.000228992
0.000236923
0.000263883
0.000258613
0.000258936
0.000258217
0.000258005
0.000257854
0.000258138
0.000258405
0.000259194
0.000258849
0.000264185
0.000237295
0.000229307
0.000313743
0.000338436
0.000344036
0.000385578
0.00037868
0.000379388
0.000378556
0.000378363
0.000378172
0.000378538
0.000378798
0.000379722
0.000378984
0.000385979
0.000344536
0.000338847
0.000445996
0.000470467
0.000469819
0.000530166
0.000521778
0.000523188
0.000522373
0.000522295
0.000522071
0.000522509
0.00052266
0.000523589
0.000522137
0.000530663
0.000470444
0.000470962
0.00060389
0.000623013
0.000603483
0.000694894
0.000685313
0.000687894
0.000687292
0.000687468
0.000687223
0.000687714
0.000687608
0.00068834
0.000685705
0.000695473
0.000604131
0.00062357
0.000786636
0.00079382
0.000739159
0.000867627
0.000860408
0.000867975
0.00086954
0.000871193
0.000871116
0.00087139
0.000869714
0.000868257
0.000860631
0.000868147
0.00073989
0.000794411
0.000993406
0.000971477
0.000885291
0.00104905
0.00104221
0.00105386
0.00105686
0.00105961
0.00105961
0.00105979
0.00105695
0.00105406
0.00104233
0.00104956
0.000886101
0.000971774
0.00122347
0.00115996
0.00104236
0.00124602
0.00123973
0.00125664
0.00126143
0.00126559
0.00126569
0.00126574
0.0012614
0.0012567
0.00123969
0.00124649
0.00104324
0.00116012
0.00147623
0.00136453
0.00121028
0.00145958
0.00145437
0.00147838
0.00148563
0.00149169
0.00149191
0.00149179
0.00148541
0.00147823
0.0014541
0.00145996
0.0012112
0.00136452
0.00175085
0.00158637
0.00138896
0.00169016
0.00168675
0.00172025
0.00173077
0.00173926
0.00173961
0.00173928
0.00173029
0.00171978
0.00168614
0.00169036
0.00138989
0.00158612
0.00204726
0.00182623
0.00157848
0.00193819
0.00193749
0.00198296
0.00199741
0.00200785
0.00200828
0.00200782
0.00199665
0.00198211
0.0019364
0.00193811
0.0015794
0.00182566
0.00236559
0.00208489
0.00177913
0.00220398
0.00220695
0.00226418
0.0022813
0.00228722
0.0022871
0.00228747
0.00228038
0.00226309
0.00220529
0.0022035
0.00177998
0.00208391
0.00270591
0.00236294
0.00199137
0.00248689
0.00249368
0.00254613
0.00255412
0.00256152
0.00256146
0.00256171
0.00255404
0.00254616
0.00249166
0.00248593
0.0019921
0.0023615
0.00306667
0.00265937
0.0022158
0.00278121
0.00278755
0.00282386
0.00283415
0.00284338
0.00284343
0.00284349
0.00283391
0.0028237
0.002787
0.00278003
0.00221634
0.00265769
0.00344717
0.00296616
0.00245265
0.00306015
0.00306402
0.00310727
0.00312016
0.00313157
0.00313182
0.0031316
0.00311972
0.0031069
0.00306318
0.0030606
0.00245297
0.00296556
0.00384662
0.00326048
0.00269918
0.00333579
0.00334569
0.00339664
0.00341257
0.00342645
0.00342692
0.00342638
0.00341192
0.00339601
0.00334451
0.00333609
0.0026994
0.00325955
0.00426411
0.00356308
0.00293848
0.00361435
0.00363155
0.00369119
0.00371068
0.00372728
0.00372801
0.0037271
0.00370978
0.00369026
0.00362999
0.00361447
0.00293956
0.00356178
0.00469861
0.00387402
0.00314764
0.00389533
0.00392051
0.00399028
0.00401384
0.0040334
0.00403442
0.00403308
0.00401266
0.00398898
0.00391853
0.00389522
0.0031486
0.00387233
0.00514898
0.00419284
0.00335639
0.0041782
0.00421196
0.00429326
0.00432139
0.00434418
0.00434553
0.00434371
0.00431988
0.00429154
0.0042095
0.00417783
0.0033572
0.00419072
0.00561402
0.00451906
0.00356467
0.00446243
0.00450538
0.00459953
0.00463269
0.00465909
0.00466079
0.00465845
0.00463083
0.00459737
0.0045024
0.00446175
0.0035653
0.0045165
0.0060924
0.00485219
0.0037725
0.00474747
0.00480028
0.00490853
0.00494716
0.00497751
0.00497962
0.0049767
0.00494491
0.00490589
0.00479674
0.00474646
0.00377292
0.00484918
0.00658278
0.00519176
0.00398002
0.0050328
0.00509615
0.00521969
0.00526421
0.00529883
0.00530139
0.00529784
0.00526156
0.00521655
0.005092
0.0050314
0.00398019
0.00518827
0.00708373
0.00553723
0.00418743
0.00531788
0.00539247
0.00553244
0.00558327
0.00562246
0.0056255
0.00562127
0.0055802
0.00552877
0.00538768
0.00531605
0.00418733
0.00553327
0.00759381
0.00588805
0.00439505
0.0056022
0.00568874
0.00584621
0.00590373
0.00594777
0.00595133
0.00594638
0.00590021
0.00584198
0.00568326
0.0055999
0.00439465
0.00588361
0.00811153
0.00624366
0.00460324
0.00588528
0.00598446
0.00616038
0.00622497
0.00627412
0.00627823
0.00627252
0.00622099
0.00615557
0.00597825
0.00588247
0.00460252
0.00623876
0.00863535
0.00660344
0.00481241
0.00616667
0.00627914
0.00647434
0.00654633
0.00660083
0.00660552
0.00659901
0.00654188
0.00646894
0.00627218
0.00616333
0.00481134
0.00659809
0.00916373
0.00696673
0.00502302
0.00644602
0.00657238
0.00678747
0.00686716
0.00692721
0.00693251
0.00692517
0.00686222
0.00678146
0.00656466
0.00644213
0.00502158
0.00696096
0.00969501
0.00733299
0.00523552
0.00672303
0.00686381
0.00709915
0.00718676
0.00725252
0.00725846
0.00725026
0.00718134
0.00709253
0.00685535
0.00671859
0.00523368
0.00732684
0.0102275
0.00770179
0.00545037
0.00699752
0.00715318
0.00740879
0.00750448
0.00757603
0.00758264
0.00757354
0.00749857
0.00740156
0.00714398
0.00699251
0.00544811
0.00769528
0.0107594
0.00807273
0.005668
0.00726932
0.00744026
0.00771583
0.00781965
0.007897
0.00790431
0.0078943
0.00781327
0.00770801
0.00743035
0.00726374
0.0056653
0.00806591
0.0112891
0.0084455
0.00588879
0.00753835
0.00772486
0.00801974
0.00813163
0.0082147
0.00822273
0.00821179
0.00812479
0.00801136
0.00771423
0.00753218
0.00588564
0.0084384
0.0118147
0.00881982
0.00611309
0.00780439
0.00800671
0.00831998
0.00843978
0.00852837
0.00853716
0.00852526
0.00843252
0.00831108
0.0079954
0.00779763
0.00610947
0.00881248
0.0123344
0.00919544
0.00634116
0.00806681
0.00828531
0.00861588
0.00874329
0.00883712
0.0088467
0.00883383
0.00873565
0.00860651
0.00827335
0.00805946
0.00633707
0.0091879
0.0128471
0.0095722
0.00657319
0.00832479
0.00855973
0.00890693
0.00904171
0.00914044
0.00915083
0.00913698
0.00903372
0.00889709
0.00854718
0.00831685
0.00656862
0.00956452
0.0133523
0.00995005
0.00680925
0.00857738
0.0088291
0.00919231
0.00933432
0.00943777
0.00944899
0.00943415
0.00932602
0.00918204
0.008816
0.00856886
0.0068042
0.00994224
0.0138493
0.010329
0.00704933
0.00882398
0.00909261
0.00947126
0.0096202
0.00972801
0.00974006
0.00972424
0.00961163
0.00946063
0.00907904
0.00881495
0.0070438
0.0103211
0.0143371
0.0107091
0.0072933
0.0090646
0.00935002
0.00974321
0.00989846
0.0100098
0.0100227
0.0100059
0.00988968
0.00973229
0.00933611
0.00905515
0.00728731
0.0107011
0.014814
0.0110906
0.00754095
0.00929935
0.00960147
0.0100074
0.0101678
0.0102809
0.0102947
0.0102769
0.0101589
0.00999636
0.00958737
0.00928961
0.00753452
0.0110826
0.0152781
0.0114738
0.00779197
0.00952839
0.00984718
0.0102627
0.0104265
0.0105411
0.0105558
0.010537
0.0104176
0.0102516
0.00983303
0.00951848
0.00778512
0.0114658
0.0156372
0.0118594
0.00804594
0.00975168
0.0100871
0.0105075
0.0106745
0.0107901
0.0108056
0.010786
0.0106656
0.0104965
0.010073
0.00974168
0.00803871
0.0118514
0.0158289
0.012248
0.00830275
0.00996876
0.0103203
0.0107415
0.0109112
0.0110276
0.011044
0.0110235
0.0109024
0.0107306
0.0103064
0.00995874
0.00829515
0.01224
0.0159354
0.0126406
0.00856232
0.0101787
0.010545
0.0109643
0.0111364
0.0112532
0.0112704
0.011249
0.0111277
0.0109535
0.0105314
0.0101688
0.00855436
0.0126325
0.0160004
0.0130363
0.00882403
0.0103809
0.0107597
0.0111752
0.0113494
0.0114662
0.0114843
0.0114621
0.0113409
0.0111647
0.0107465
0.0103712
0.00881576
0.0130283
0.0160473
0.0134307
0.00908711
0.0105755
0.0109645
0.011374
0.0115499
0.0116663
0.0116851
0.0116623
0.0115416
0.0113639
0.010952
0.010566
0.00907855
0.0134226
0.0160879
0.0138187
0.00935076
0.0107611
0.0111606
0.0115606
0.0117378
0.0118535
0.011873
0.0118495
0.0117299
0.0115509
0.0111488
0.0107519
0.00934195
0.0138106
0.0161285
0.0141985
0.00961436
0.0109359
0.0113468
0.0117355
0.0119139
0.0120286
0.0120488
0.0120248
0.0119063
0.0117265
0.0113356
0.0109268
0.00960535
0.0141914
0.016173
0.0145722
0.00987754
0.0110981
0.0115208
0.0118987
0.0120794
0.0121935
0.0122145
0.0121899
0.0120723
0.0118904
0.0115101
0.0110891
0.00986838
0.0145641
0.0162252
0.0149359
0.0101402
0.0112476
0.011681
0.0120527
0.012234
0.0123487
0.0123705
0.0123452
0.0122275
0.0120449
0.0116709
0.0112388
0.010131
0.0149279
0.0162902
0.0152897
0.0104027
0.0113854
0.0118272
0.0121945
0.0123783
0.0124923
0.0125155
0.012489
0.0123723
0.0121873
0.0118178
0.011377
0.0103935
0.0152818
0.016378
0.0156329
0.0106652
0.0115136
0.0119606
0.0123236
0.0125103
0.0126244
0.0126492
0.0126213
0.0125048
0.0123171
0.011952
0.0115057
0.0106561
0.0156251
0.0165083
0.0159647
0.0109281
0.0116349
0.0120836
0.0124416
0.0126306
0.0127447
0.0127709
0.0127418
0.0126257
0.0124359
0.0120761
0.0116278
0.0109192
0.0159569
0.0167154
0.0162843
0.0111919
0.0117525
0.0121993
0.0125515
0.0127418
0.0128555
0.012883
0.0128529
0.0127376
0.0125468
0.0121931
0.0117464
0.0111833
0.0162766
0.0170543
0.0165908
0.0114567
0.01187
0.0123113
0.0126576
0.0128482
0.012961
0.0129895
0.0129588
0.0128448
0.012654
0.0123064
0.011865
0.0114485
0.0165832
0.0175978
0.0168828
0.0117228
0.011991
0.0124218
0.0127587
0.0129478
0.0130599
0.013089
0.013058
0.0129452
0.0127562
0.0124184
0.0119873
0.0117152
0.0168753
0.018412
0.0171585
0.0119904
0.0121192
0.0125338
0.012858
0.0130438
0.0131539
0.0131832
0.0131523
0.0130422
0.0128568
0.0125321
0.012117
0.0119834
0.017151
0.0194854
0.0174154
0.012259
0.0122584
0.0126516
0.0129601
0.0131407
0.0132478
0.013277
0.0132467
0.0131402
0.0129604
0.0126518
0.0122579
0.0122527
0.017408
0.0205714
0.0176512
0.0125282
0.0124122
0.0127793
0.0130693
0.0132431
0.0133461
0.0133749
0.0133455
0.0132437
0.0130711
0.0127815
0.0124134
0.0125227
0.0176439
0.0209119
0.0178638
0.0127968
0.0125823
0.012921
0.0131898
0.0133552
0.0134533
0.0134814
0.0134534
0.0133571
0.0131933
0.0129254
0.0125853
0.0127922
0.0178567
0.0209935
0.0180517
0.0130634
0.0127681
0.0130803
0.0133257
0.0134812
0.0135737
0.0136006
0.0135744
0.0134845
0.0133311
0.0130868
0.0127723
0.0130599
0.0180447
0.0210459
0.0182133
0.0133265
0.01296
0.0132568
0.0134809
0.0136253
0.0137116
0.0137369
0.0137131
0.01363
0.0134882
0.0132648
0.0129647
0.013324
0.0182066
0.0210702
0.0183468
0.0135841
0.0131529
0.0134416
0.0136572
0.0137888
0.0138668
0.0138904
0.0138689
0.0137947
0.0136659
0.0134502
0.0131583
0.0135828
0.0183402
0.0210671
0.0184495
0.0138343
0.0133465
0.0136252
0.0138434
0.0139671
0.0140372
0.0140587
0.0140398
0.0139737
0.0138524
0.0136338
0.0133526
0.0138342
0.0184431
0.0210371
0.0185184
0.0140747
0.0135406
0.0138046
0.0140233
0.0141436
0.0142107
0.0142306
0.0142134
0.01415
0.014032
0.0138135
0.0135477
0.0140759
0.0185121
0.0209799
0.0185505
0.014303
0.0137347
0.013979
0.0141909
0.014304
0.0143685
0.0143867
0.0143709
0.0143099
0.0141994
0.0139881
0.0137428
0.0143056
0.0185445
0.0208947
0.0185439
0.0145166
0.0139273
0.0141471
0.0143458
0.014447
0.0145057
0.0145217
0.014508
0.0144526
0.0143542
0.0141567
0.0139365
0.0145206
0.0185382
0.0207795
0.0184973
0.0147127
0.0141166
0.0143079
0.0144884
0.0145745
0.0146244
0.014638
0.0146267
0.0145801
0.0144968
0.0143179
0.014127
0.0147181
0.0184922
0.0206309
0.01841
0.0148888
0.0142999
0.0144633
0.0146188
0.0146875
0.0147263
0.014737
0.0147287
0.0146932
0.0146274
0.014474
0.0143114
0.0148956
0.0184055
0.0204405
0.0182819
0.0150422
0.014474
0.0146109
0.0147367
0.0147862
0.0148121
0.0148197
0.0148146
0.014792
0.0147457
0.0146223
0.0144868
0.0150505
0.0182782
0.0201959
0.0181139
0.0151698
0.0146355
0.0147476
0.014841
0.0148699
0.0148818
0.0148861
0.0148845
0.014876
0.0148504
0.0147597
0.0146493
0.0151794
0.018111
0.0198922
0.0179076
0.0152696
0.0147802
0.014871
0.0149313
0.0149389
0.0149353
0.0149362
0.0149382
0.0149453
0.014941
0.0148837
0.014795
0.0152805
0.0179058
0.0195313
0.0176659
0.0153407
0.014905
0.0149778
0.0150056
0.0149921
0.0149723
0.0149698
0.0149754
0.0149989
0.0150157
0.014991
0.0149205
0.0153528
0.0176653
2.02832e-08
1.53149e-08
1.22971e-08
1.36186e-08
1.38507e-08
1.39964e-08
1.40394e-08
1.40695e-08
1.4066e-08
1.40773e-08
1.40558e-08
1.40172e-08
1.38709e-08
1.36383e-08
1.23108e-08
1.53233e-08
3.75021e-08
2.66309e-08
2.12882e-08
2.40301e-08
2.45737e-08
2.51504e-08
2.5345e-08
2.5489e-08
2.5492e-08
2.55065e-08
2.53802e-08
2.51946e-08
2.46122e-08
2.40695e-08
2.13193e-08
2.66445e-08
4.08792e-07
2.79269e-07
2.24303e-07
2.56484e-07
2.63403e-07
2.72492e-07
2.75661e-07
2.78035e-07
2.78157e-07
2.78252e-07
2.76084e-07
2.73021e-07
2.6383e-07
2.56936e-07
2.247e-07
2.79398e-07
2.81914e-06
1.95422e-06
1.58762e-06
1.8074e-06
1.85532e-06
1.91991e-06
1.94246e-06
1.9594e-06
1.96031e-06
1.96089e-06
1.94535e-06
1.92352e-06
1.8582e-06
1.81048e-06
1.5904e-06
1.95508e-06
1.15613e-05
8.18647e-06
6.747e-06
7.62918e-06
7.82338e-06
8.09056e-06
8.18387e-06
8.25424e-06
8.25806e-06
8.26022e-06
8.19543e-06
8.10501e-06
7.83477e-06
7.64145e-06
6.75839e-06
8.18979e-06
3.37172e-05
2.44372e-05
2.04816e-05
2.29781e-05
2.3533e-05
2.43153e-05
2.45889e-05
2.47963e-05
2.48076e-05
2.4813e-05
2.46212e-05
2.43557e-05
2.35644e-05
2.30124e-05
2.05144e-05
2.4446e-05
7.76535e-05
5.75981e-05
4.9154e-05
5.46904e-05
5.59318e-05
5.77336e-05
5.83651e-05
5.88471e-05
5.88732e-05
5.88835e-05
5.84351e-05
5.78211e-05
5.59986e-05
5.47644e-05
4.92274e-05
5.76156e-05
0.000150518
0.000114112
9.91627e-05
0.000109434
0.000111754
0.000115232
0.000116455
0.000117396
0.000117447
0.000117462
0.000116581
0.000115388
0.000111871
0.000109566
9.9299e-05
0.000114139
0.000256156
0.00019815
0.000175214
0.000191874
0.000195656
0.000201527
0.000203604
0.000205214
0.0002053
0.000205315
0.000203797
0.000201768
0.000195831
0.000192077
0.000175433
0.000198183
0.000394608
0.00031084
0.000279349
0.000303748
0.000309303
0.000318254
0.000321443
0.000323934
0.000324067
0.000324074
0.000321709
0.000318587
0.000309534
0.000304028
0.000279664
0.00031087
0.00056314
0.000450731
0.000411106
0.000444188
0.000451725
0.000464366
0.000468903
0.000472478
0.000472668
0.000472655
0.000469238
0.000464783
0.000452
0.000444539
0.000411521
0.000450741
0.000757731
0.000614883
0.000568413
0.000610744
0.000620379
0.000637236
0.000643338
0.000648186
0.000648443
0.000648395
0.000643729
0.000637722
0.000620676
0.000611154
0.000568927
0.000614853
0.00097367
0.000799903
0.000748559
0.000800395
0.000812165
0.000833696
0.00084156
0.000847862
0.000848195
0.000848093
0.000841989
0.000834228
0.000812455
0.000800845
0.000749165
0.000799805
0.00119435
0.00099925
0.000948842
0.00101016
0.00102404
0.00105064
0.00106045
0.00106838
0.00106879
0.00106862
0.00106089
0.00105119
0.00102429
0.00101062
0.00094953
0.000998967
0.00143184
0.0012029
0.00116686
0.00123701
0.00125179
0.00128345
0.00129543
0.0013056
0.00130605
0.00130577
0.00129573
0.00128381
0.00125177
0.00123733
0.00116762
0.00120249
0.00168639
0.00141967
0.00139771
0.00146621
0.00148281
0.00151943
0.0015336
0.00154573
0.00154627
0.00154586
0.00153384
0.00151971
0.00148264
0.00146645
0.00139839
0.00141911
0.00195633
0.00164963
0.00163229
0.00170715
0.00172571
0.00176724
0.0017837
0.0017978
0.00179845
0.00179789
0.00178387
0.00176744
0.0017254
0.00170732
0.00163297
0.0016489
0.0022394
0.00189156
0.00187734
0.00196006
0.0019806
0.00202695
0.00204578
0.00206186
0.00206266
0.0020619
0.00204587
0.00202703
0.00198011
0.00196016
0.00187804
0.00189066
0.002533
0.00214403
0.0021329
0.00222372
0.00224615
0.00229701
0.00231818
0.00233617
0.00233713
0.00233614
0.00231817
0.00229696
0.00224546
0.00222372
0.0021336
0.00214291
0.00283428
0.00240553
0.00239787
0.00249663
0.00252074
0.00257533
0.00259866
0.0026184
0.00261956
0.0026183
0.00259855
0.00257514
0.00251983
0.00249652
0.00239855
0.0024042
0.00313988
0.00267464
0.00267109
0.00277707
0.00280245
0.00285951
0.00288473
0.00290605
0.00290743
0.00290588
0.00288452
0.00285917
0.00280132
0.00277685
0.00267173
0.00267308
0.00344417
0.00294977
0.00295154
0.00306293
0.00308901
0.00314713
0.00317401
0.00319671
0.00319836
0.00319646
0.0031737
0.00314664
0.00308768
0.00306264
0.00295213
0.002948
0.00373351
0.00322902
0.00323813
0.00335197
0.00337812
0.00343598
0.0034643
0.00348819
0.00349013
0.00348783
0.00346388
0.00343534
0.00337659
0.00335163
0.00323867
0.00322706
0.00401578
0.00351034
0.00352914
0.00364203
0.00366762
0.00372403
0.00375357
0.00377839
0.00378066
0.00377793
0.00375303
0.00372322
0.0036659
0.00364166
0.00352962
0.00350823
0.00429089
0.0037918
0.00382251
0.00393146
0.00395585
0.00400969
0.0040402
0.0040657
0.00406834
0.00406513
0.00403953
0.00400869
0.00395393
0.00393106
0.00382296
0.00378955
0.00455695
0.00407198
0.00411624
0.00421898
0.00424147
0.00429166
0.0043229
0.00434881
0.00435184
0.00434812
0.00432209
0.00429047
0.00423935
0.00421854
0.00411666
0.00406963
0.00481223
0.00434967
0.00440872
0.00450358
0.0045234
0.00456898
0.0046007
0.00462676
0.0046302
0.00462594
0.00459975
0.0045676
0.00452107
0.0045031
0.00440913
0.00434724
0.00505516
0.00462389
0.00469883
0.00478454
0.00480089
0.00484104
0.004873
0.00489895
0.00490283
0.00489801
0.00487189
0.00483945
0.00479834
0.00478402
0.00469921
0.00462141
0.00528435
0.00489394
0.0049857
0.00506143
0.00507347
0.00510753
0.0051395
0.00516513
0.00516945
0.00516406
0.00513822
0.00510572
0.00507067
0.00506085
0.00498606
0.00489145
0.00549859
0.00515945
0.00526871
0.00533408
0.00534094
0.00536843
0.0054002
0.00542532
0.00543008
0.00542412
0.00539874
0.00536638
0.00533788
0.00533342
0.00526906
0.00515698
0.00569693
0.00542033
0.00554748
0.00560253
0.00560334
0.00562396
0.00565535
0.00567981
0.00568501
0.00567847
0.00565369
0.00562166
0.00559999
0.00560177
0.00554781
0.0054179
0.00587861
0.00567685
0.0058218
0.00586704
0.00586095
0.00587458
0.00590543
0.00592911
0.00593475
0.00592763
0.00590355
0.00587201
0.00585727
0.00586614
0.00582213
0.0056745
0.00604315
0.0059297
0.00609168
0.006128
0.00611417
0.00612091
0.00615109
0.00617392
0.00617997
0.00617229
0.00614897
0.00611803
0.00611013
0.00612694
0.006092
0.00592744
0.00619027
0.00617999
0.00635727
0.00638593
0.00636358
0.0063637
0.00639313
0.00641509
0.00642153
0.00641331
0.00639075
0.0063605
0.00635913
0.00638467
0.0063576
0.00617785
0.00631996
0.00642941
0.00661892
0.00664143
0.00660983
0.00660384
0.00663249
0.0066536
0.0066604
0.00665166
0.00662982
0.00660027
0.00660494
0.00663994
0.00661926
0.00642742
0.00643243
0.00668023
0.00687714
0.00689516
0.00685369
0.0068423
0.00687021
0.00689057
0.0068977
0.00688847
0.00686722
0.00683833
0.00684831
0.0068934
0.00687749
0.00667841
0.00652815
0.00693509
0.00713259
0.00714782
0.007096
0.00708021
0.00710748
0.00712726
0.00713467
0.00712499
0.00710413
0.0070758
0.00709008
0.00714575
0.00713297
0.00693349
0.0066078
0.00719618
0.00738614
0.00740015
0.00733772
0.00731888
0.0073457
0.00736517
0.00737281
0.00736271
0.00734196
0.00731398
0.00733121
0.00739775
0.00738655
0.00719486
0.00667232
0.00746275
0.0076388
0.00765304
0.00758004
0.00755997
0.00758665
0.00760614
0.00761397
0.0076035
0.00758246
0.00755451
0.00757291
0.00765025
0.00763923
0.00746184
0.00672289
0.00772468
0.00789174
0.00790764
0.00782462
0.0078057
0.00783261
0.00785259
0.00786051
0.00784974
0.00782794
0.00779964
0.0078168
0.00790444
0.00789221
0.00772443
0.00676097
0.00794436
0.00814624
0.00816583
0.00807388
0.00805917
0.00808667
0.0081076
0.00811553
0.00810454
0.00808146
0.00805243
0.0080653
0.00816216
0.00814674
0.00794533
0.0067877
0.00813251
0.00840364
0.00843067
0.00833143
0.0083243
0.00835249
0.00837473
0.00838253
0.00837148
0.00834674
0.00831686
0.00832205
0.00842649
0.00840417
0.00813395
0.00680371
0.00831346
0.00866521
0.00870689
0.0086021
0.00860476
0.00863286
0.0086562
0.00866369
0.0086528
0.00862666
0.00859672
0.0085919
0.00870214
0.00866577
0.00831538
0.00681008
0.00848721
0.00893184
0.00900045
0.0088906
0.00889998
0.0089249
0.00894751
0.00895449
0.00894413
0.00891863
0.00889185
0.00887976
0.00899513
0.00893243
0.00848964
0.00680835
0.00865386
0.00920389
0.00931647
0.00919782
0.00919604
0.00920919
0.00922523
0.00923152
0.00922225
0.00920391
0.00918926
0.00918702
0.00931075
0.00920452
0.00865682
0.00680048
0.00881347
0.00948146
0.00965346
0.00951205
0.00944308
0.00942368
0.0094181
0.00942379
0.00941649
0.00942203
0.00944122
0.00950323
0.009648
0.0094822
0.00881697
0.00678884
0.00896599
0.00976547
0.00998975
0.00978734
0.00961188
0.00958151
0.00956801
0.00957326
0.00956652
0.00958021
0.00961051
0.00978515
0.00998627
0.00976643
0.00897004
0.00677636
0.00911132
0.0100592
0.0102519
0.00998357
0.00977796
0.00973565
0.00971358
0.00971832
0.00971225
0.00973473
0.00977712
0.00998202
0.0102544
0.0100606
0.00911593
0.00676639
0.00924928
0.0103703
0.0104697
0.0101795
0.00994134
0.00988611
0.00985486
0.009859
0.00985369
0.0098856
0.00994109
0.0101787
0.0104732
0.0103724
0.00925447
0.00676221
0.00937951
0.0107127
0.0106893
0.0103752
0.010102
0.0100329
0.00999183
0.00999527
0.00999084
0.0100328
0.0101024
0.0103751
0.0106938
0.010716
0.00938529
0.0067661
0.00950272
0.0111071
0.0109106
0.0105704
0.0102599
0.0101759
0.0101245
0.0101271
0.0101237
0.0101764
0.010261
0.0105712
0.0109163
0.0111122
0.0095091
0.00678027
0.00962296
0.0115763
0.0111337
0.010765
0.0104151
0.0103154
0.0102531
0.0102548
0.0102525
0.0103164
0.0104169
0.0107667
0.0111406
0.0115836
0.00962994
0.00680701
0.00974468
0.0121298
0.0113578
0.010959
0.0105678
0.0104515
0.010378
0.0103786
0.0103777
0.0104532
0.0105705
0.0109617
0.0113658
0.0121396
0.00975223
0.00684812
0.00986789
0.0127231
0.0115813
0.0111523
0.0107185
0.0105851
0.0104999
0.0104994
0.0104999
0.0105874
0.0107221
0.0111561
0.0115903
0.0127343
0.00987597
0.00690476
0.00999271
0.0131697
0.0118028
0.0113447
0.0108677
0.0107166
0.0106197
0.0106179
0.01062
0.0107196
0.0108722
0.0113495
0.0118128
0.0131777
0.0100013
0.00697781
0.0101195
0.0133887
0.0120217
0.0115356
0.0110153
0.0108463
0.0107376
0.0107344
0.0107382
0.01085
0.0110208
0.0115414
0.0120324
0.0133973
0.0101286
0.0070679
0.0102489
0.013601
0.0122381
0.0117248
0.0111615
0.0109742
0.0108536
0.010849
0.0108545
0.0109785
0.0111678
0.0117317
0.0122495
0.0136102
0.0102584
0.00717543
0.0103817
0.0138059
0.0124538
0.0119121
0.0113065
0.0111006
0.0109681
0.010962
0.0109694
0.0111056
0.0113137
0.0119201
0.0124658
0.0138156
0.0103915
0.0073006
0.0105187
0.0140032
0.012669
0.0120979
0.0114508
0.0112262
0.0110821
0.0110743
0.0110837
0.0112319
0.011459
0.012107
0.0126816
0.0140134
0.0105289
0.00744334
0.0106608
0.0141929
0.0128839
0.0122825
0.0115951
0.0113519
0.0111964
0.0111869
0.0111984
0.0113584
0.0116044
0.0122928
0.0128971
0.0142035
0.0106714
0.00760341
0.0108093
0.0143752
0.0130988
0.0124667
0.0117398
0.0114783
0.0113118
0.0113004
0.0113141
0.0114855
0.0117501
0.0124783
0.0131127
0.0143863
0.0108201
0.00778047
0.0109652
0.0145506
0.0133144
0.0126536
0.0118924
0.0116134
0.0114358
0.0114227
0.0114387
0.0116218
0.011904
0.0126665
0.013329
0.014562
0.0109762
0.00797468
0.0111296
0.0147195
0.0135313
0.0128459
0.0120562
0.0117612
0.0115739
0.011559
0.0115774
0.0117706
0.0120692
0.0128601
0.0135466
0.0147312
0.0111408
0.00818709
0.0113038
0.0148819
0.0137503
0.0130452
0.0122332
0.0119238
0.0117283
0.0117115
0.0117324
0.0119343
0.0122475
0.0130607
0.0137664
0.0148938
0.0113151
0.00841955
0.011489
0.0150374
0.0139713
0.0132524
0.012425
0.0121037
0.0119017
0.0118831
0.0119065
0.0121153
0.0124406
0.013269
0.0139881
0.0150495
0.0115002
0.00867427
0.0116863
0.0151851
0.0141941
0.0134672
0.0126326
0.0123023
0.012096
0.0120757
0.0121015
0.0123149
0.0126493
0.0134846
0.0142115
0.0151971
0.0116975
0.00895339
0.0118968
0.0153235
0.0144152
0.0136873
0.0128547
0.0125189
0.0123107
0.0122889
0.0123166
0.0125324
0.0128724
0.0137051
0.0144324
0.0153353
0.0119079
0.00925889
0.0121214
0.0154516
0.014631
0.0139092
0.0130893
0.0127518
0.012544
0.0125209
0.0125504
0.012766
0.0131077
0.013927
0.0146477
0.0154631
0.0121323
0.00959254
0.0123606
0.0155688
0.014836
0.0141283
0.0133337
0.012999
0.0127944
0.0127705
0.0128013
0.0130136
0.0133524
0.0141455
0.0148519
0.0155798
0.0123711
0.00995567
0.0126142
0.0156748
0.0150266
0.014338
0.0135829
0.0132565
0.0130586
0.0130342
0.0130657
0.0132712
0.0136015
0.0143545
0.0150416
0.0156853
0.0126242
0.0103489
0.0128816
0.0157691
0.0151997
0.0145358
0.0138303
0.013518
0.0133306
0.0133064
0.0133377
0.0135325
0.0138484
0.0145514
0.0152137
0.0157789
0.012891
0.0107719
0.0131613
0.0158515
0.0153529
0.0147191
0.01407
0.0137765
0.013603
0.0135796
0.01361
0.0137904
0.0140873
0.0147338
0.0153657
0.0158604
0.01317
0.0112229
0.0134511
0.0159215
0.0154842
0.0148857
0.0142956
0.0140262
0.0138692
0.0138471
0.013876
0.0140394
0.0143118
0.0148994
0.0154958
0.0159295
0.013459
0.0116987
0.0137479
0.0159787
0.0155922
0.0150334
0.0145019
0.0142625
0.0141237
0.0141036
0.0141302
0.0142749
0.0145168
0.015046
0.0156027
0.0159858
0.0137549
0.012194
0.0140479
0.0160228
0.0156762
0.0151572
0.0146864
0.0144787
0.0143622
0.0143445
0.0143684
0.0144903
0.0147001
0.0151687
0.0156855
0.0160288
0.0140539
0.0127012
0.0143464
0.0160534
0.0157359
0.0152567
0.0148472
0.0146717
0.0145781
0.0145635
0.0145839
0.0146824
0.0148599
0.0152671
0.0157441
0.0160582
0.0143513
0.013211
0.0146381
0.0160696
0.0157714
0.0153312
0.0149828
0.0148394
0.0147684
0.0147572
0.0147739
0.0148493
0.0149945
0.0153407
0.0157785
0.0160733
0.0146418
0.0137129
0.0149165
0.0160718
0.0157836
0.0153814
0.0150929
0.0149813
0.0149319
0.0149241
0.014937
0.0149906
0.0151037
0.0153901
0.0157898
0.0160744
0.014919
0.0141964
0.0151764
0.0160587
0.0157735
0.0154079
0.015177
0.0150968
0.0150681
0.0150637
0.0150729
0.0151054
0.0151871
0.0154161
0.0157789
0.0160603
0.0151777
1.12124e-08
1.46613e-08
1.74084e-08
1.65777e-08
1.63338e-08
1.64273e-08
1.63734e-08
1.63765e-08
1.63546e-08
1.63828e-08
1.63816e-08
1.64381e-08
1.63416e-08
1.6586e-08
1.74263e-08
1.46805e-08
1.67961e-08
2.32117e-08
2.75542e-08
2.6104e-08
2.5739e-08
2.58864e-08
2.58018e-08
2.58104e-08
2.5774e-08
2.58187e-08
2.58124e-08
2.59001e-08
2.57471e-08
2.61137e-08
2.75858e-08
2.32439e-08
1.3227e-07
2.01683e-07
2.37329e-07
2.40897e-07
2.36289e-07
2.37696e-07
2.36936e-07
2.36841e-07
2.36608e-07
2.3698e-07
2.37109e-07
2.37928e-07
2.36487e-07
2.41135e-07
2.37775e-07
2.0209e-07
8.92155e-07
1.35807e-06
1.58642e-06
1.64488e-06
1.6117e-06
1.62071e-06
1.61563e-06
1.61454e-06
1.6132e-06
1.61559e-06
1.61694e-06
1.62248e-06
1.6133e-06
1.64678e-06
1.5896e-06
1.36092e-06
3.73656e-06
5.59573e-06
6.47775e-06
6.79672e-06
6.65951e-06
6.69323e-06
6.67285e-06
6.66725e-06
6.66247e-06
6.6717e-06
6.6784e-06
6.70071e-06
6.66644e-06
6.80495e-06
6.49078e-06
5.60736e-06
1.12918e-05
1.6567e-05
1.89625e-05
2.00769e-05
1.9681e-05
1.97691e-05
1.97118e-05
1.96931e-05
1.9681e-05
1.9706e-05
1.9728e-05
1.97909e-05
1.97016e-05
2.01013e-05
1.89999e-05
1.66004e-05
2.71608e-05
3.89879e-05
4.40409e-05
4.69804e-05
4.60905e-05
4.62716e-05
4.6147e-05
4.61002e-05
4.60768e-05
4.61296e-05
4.61833e-05
4.63206e-05
4.61376e-05
4.70365e-05
4.41247e-05
3.90628e-05
5.52492e-05
7.75954e-05
8.63869e-05
9.27543e-05
9.1089e-05
9.14077e-05
9.11859e-05
9.10932e-05
9.10562e-05
9.11483e-05
9.12534e-05
9.14991e-05
9.11781e-05
9.28607e-05
8.65436e-05
7.77361e-05
9.89858e-05
0.000136063
0.000149143
0.000161086
0.000158381
0.000158893
0.00015856
0.000158408
0.000158359
0.000158497
0.000158668
0.000159041
0.000158526
0.000161261
0.000149399
0.000136294
0.000160804
0.000216316
0.0002333
0.00025343
0.000249499
0.00025029
0.00024986
0.00024965
0.000249596
0.000249782
0.000250015
0.000250502
0.00024971
0.000253687
0.000233673
0.000216656
0.00024202
0.000318486
0.000337823
0.00036916
0.000363939
0.000365144
0.000364675
0.000364433
0.000364385
0.00036461
0.000364877
0.000365422
0.000364218
0.000369506
0.000338324
0.000318945
0.000343039
0.000441382
0.000460293
0.000506279
0.000499834
0.000501671
0.000501267
0.00050105