/*--------------------------------*- C++ -*----------------------------------*\
| =========                 |                                                 |
| \\      /  F ield         | OpenFOAM: The Open Source CFD Toolbox           |
|  \\    /   O peration     | Version:  v1912                                 |
|   \\  /    A nd           | Website:  www.openfoam.com                      |
|    \\/     M anipulation  |                                                 |
\*---------------------------------------------------------------------------*/
FoamFile
{
    version     2.0;
    format      ascii;
    class       volScalarField;
    location    "198.8";
    object      k;
}
// * * * * * * * * * * * * * * * * * * * * * * * * * * * * * * * * * * * * * //

dimensions      [0 2 -2 0 0 0 0];


internalField   nonuniform List<scalar> 
10147
(
1.41528e-06
1.8591e-06
2.21042e-06
2.11145e-06
2.06558e-06
2.06781e-06
2.05811e-06
2.05542e-06
2.05317e-06
2.05622e-06
2.0592e-06
2.06926e-06
2.06684e-06
2.11293e-06
2.21301e-06
1.86205e-06
3.80607e-07
5.0044e-07
5.91313e-07
5.84191e-07
5.68802e-07
5.69816e-07
5.6702e-07
5.66279e-07
5.65645e-07
5.66597e-07
5.67468e-07
5.7042e-07
5.69342e-07
5.84847e-07
5.92113e-07
5.01298e-07
1.2179e-06
1.57338e-06
1.80219e-06
1.90955e-06
1.85073e-06
1.8548e-06
1.84538e-06
1.84285e-06
1.8408e-06
1.84423e-06
1.84736e-06
1.85749e-06
1.85318e-06
1.91255e-06
1.80575e-06
1.5767e-06
4.06533e-06
5.17513e-06
5.86274e-06
6.30457e-06
6.11133e-06
6.12309e-06
6.09227e-06
6.08356e-06
6.077e-06
6.08819e-06
6.09892e-06
6.13213e-06
6.11958e-06
6.31465e-06
5.87507e-06
5.18631e-06
1.0028e-05
1.25795e-05
1.41374e-05
1.53042e-05
1.48453e-05
1.48692e-05
1.47956e-05
1.47738e-05
1.47584e-05
1.47849e-05
1.48117e-05
1.4891e-05
1.48652e-05
1.53284e-05
1.41676e-05
1.26065e-05
2.01785e-05
2.49189e-05
2.77726e-05
3.02085e-05
2.93298e-05
2.93688e-05
2.9227e-05
2.91831e-05
2.91539e-05
2.92047e-05
2.92582e-05
2.94111e-05
2.93686e-05
3.02556e-05
2.78316e-05
2.49713e-05
3.52962e-05
4.28699e-05
4.73254e-05
5.16811e-05
5.02355e-05
5.0292e-05
5.00574e-05
4.99826e-05
4.99349e-05
5.00186e-05
5.01095e-05
5.03627e-05
5.03005e-05
5.176e-05
4.74245e-05
4.29573e-05
5.56938e-05
6.64712e-05
7.25668e-05
7.95198e-05
7.74049e-05
7.74825e-05
7.71379e-05
7.70263e-05
7.69566e-05
7.70799e-05
7.72157e-05
7.75881e-05
7.7502e-05
7.96375e-05
7.27147e-05
6.66012e-05
8.11205e-05
9.5043e-05
0.000102434
0.000112596
0.000109787
0.000109893
0.000109434
0.000109286
0.000109193
0.000109358
0.00010954
0.000110037
0.00010992
0.000112756
0.000102635
9.52196e-05
0.000110776
0.000127271
0.000135208
0.000149058
0.000145622
0.000145767
0.000145205
0.000145024
0.000144909
0.000145116
0.000145339
0.000145949
0.00014579
0.000149261
0.000135461
0.000127494
0.000143467
0.000161488
0.00016891
0.000186781
0.000182859
0.000183055
0.000182412
0.000182211
0.000182078
0.00018232
0.000182572
0.000183273
0.000183058
0.000187024
0.000169211
0.000161752
0.000177863
0.000196039
0.000201732
0.000223845
0.000219616
0.000219876
0.000219183
0.000218973
0.000218827
0.000219098
0.000219366
0.000220124
0.000219843
0.000224122
0.000202072
0.000196335
0.000212738
0.000229566
0.000232337
0.000258824
0.000254476
0.000254811
0.000254101
0.000253895
0.00025374
0.000254032
0.000254303
0.000255086
0.000254726
0.00025913
0.000232707
0.000229886
0.000247129
0.000261137
0.000260063
0.00029088
0.000286578
0.000286991
0.000286289
0.000286095
0.000285936
0.00028624
0.000286505
0.000287286
0.000286847
0.00029121
0.000260457
0.000261469
0.000280377
0.000290243
0.000284687
0.000319761
0.000315608
0.000316064
0.000315371
0.000315183
0.000315025
0.000315337
0.000315601
0.000316377
0.000315894
0.000320112
0.000285098
0.000290581
0.000312096
0.00031678
0.0003061
0.000345444
0.000341554
0.000342043
0.000341373
0.000341195
0.000341038
0.000341355
0.000341615
0.000342372
0.000341854
0.000345813
0.000306523
0.00031712
0.000342112
0.000340758
0.000324347
0.000368002
0.000364474
0.000364999
0.000364368
0.000364203
0.000364051
0.000364367
0.000364619
0.00036534
0.000364786
0.000368387
0.000324775
0.000341093
0.000370397
0.000362251
0.000339589
0.000387612
0.000384532
0.000385107
0.000384531
0.000384386
0.000384243
0.000384554
0.000384789
0.000385457
0.000384852
0.000388009
0.000340019
0.000362574
0.000397019
0.000381401
0.000352065
0.000404522
0.000401961
0.000402618
0.000402117
0.000402005
0.000401871
0.000402173
0.000402379
0.000402973
0.000402287
0.000404929
0.000352492
0.000381707
0.000422086
0.0003984
0.000362057
0.000419015
0.000417036
0.000417827
0.000417427
0.00041737
0.000417251
0.000417538
0.00041769
0.000418183
0.000417363
0.000419429
0.000362478
0.000398683
0.000445729
0.000413467
0.000369865
0.000431391
0.000430047
0.000431057
0.0004308
0.000430837
0.000430735
0.000431001
0.000431058
0.000431409
0.00043037
0.000431808
0.000370277
0.000413723
0.000468078
0.000426832
0.000375791
0.000441947
0.000441289
0.000442651
0.000442593
0.000442741
0.000442659
0.0004429
0.000442842
0.000442991
0.000441603
0.000442363
0.00037619
0.000427056
0.000489265
0.00043873
0.000380128
0.000450969
0.000451052
0.000452894
0.00045306
0.00045334
0.000453279
0.000453493
0.000453296
0.000453217
0.000451349
0.00045138
0.000380512
0.000438917
0.000509411
0.000449399
0.000383153
0.000458733
0.000459602
0.000462002
0.000462421
0.000462853
0.000462815
0.000462999
0.000462642
0.000462306
0.000459878
0.00045913
0.000383518
0.000449542
0.000528619
0.000459056
0.000385108
0.000465429
0.000467114
0.000470156
0.000470856
0.000471462
0.000471448
0.000471598
0.000471058
0.000470436
0.000467364
0.00046581
0.000385453
0.000459153
0.000546978
0.000467844
0.000386202
0.000471202
0.00047373
0.000477501
0.00047851
0.000479311
0.000479323
0.000479438
0.000478691
0.000477753
0.00047395
0.000471562
0.000386523
0.000467892
0.000564556
0.00047588
0.000386615
0.000476169
0.000479566
0.000484152
0.000485498
0.000486517
0.000486556
0.000486633
0.000485654
0.000484372
0.000479752
0.000476505
0.000386909
0.000475878
0.000581407
0.000483257
0.000386472
0.000480419
0.000484712
0.000490193
0.000491906
0.000493166
0.000493233
0.000493269
0.000492035
0.000490379
0.000484858
0.000480726
0.000386738
0.000483204
0.000597565
0.000490051
0.000385874
0.000484018
0.000489231
0.000495688
0.000497795
0.000499317
0.000499414
0.000499406
0.000497894
0.000495834
0.000489334
0.000484293
0.000386109
0.000489945
0.000613054
0.000496317
0.000384905
0.000487015
0.000493169
0.000500673
0.000503202
0.000505007
0.000505135
0.000505081
0.000503267
0.000500776
0.000493225
0.000487253
0.000385108
0.000496156
0.000627884
0.000502094
0.00038363
0.000489436
0.000496553
0.000505169
0.000508145
0.000510253
0.000510415
0.000510311
0.000508174
0.000505225
0.000496558
0.000489634
0.000383798
0.000501878
0.000642054
0.000507408
0.000382101
0.000491298
0.000499395
0.000509179
0.000512625
0.000515056
0.000515252
0.000515096
0.000512616
0.000509185
0.000499344
0.000491452
0.000382233
0.000507138
0.000655553
0.000512273
0.000380354
0.000492602
0.000501693
0.000512692
0.000516631
0.0005194
0.000519634
0.000519422
0.00051658
0.000512645
0.000501584
0.000492709
0.000380448
0.000511949
0.000668362
0.000516695
0.000378417
0.000493342
0.000503436
0.000515686
0.000520138
0.000523261
0.000523533
0.000523262
0.000520044
0.000515584
0.000503267
0.000493399
0.000378472
0.000516316
0.000680458
0.000520668
0.000376307
0.000493502
0.000504605
0.000518133
0.000523113
0.000526603
0.000526916
0.000526582
0.000522974
0.000517972
0.000504372
0.000493506
0.000376322
0.000520237
0.000691811
0.000524185
0.000374034
0.000493062
0.000505174
0.000519994
0.000525517
0.000529383
0.000529739
0.00052934
0.000525331
0.000519773
0.000504875
0.00049301
0.000374007
0.000523701
0.000702387
0.000527229
0.0003716
0.000491997
0.000505111
0.000521229
0.000527304
0.000531554
0.000531955
0.000531488
0.00052707
0.000520945
0.000504745
0.000491888
0.000371532
0.000526695
0.00071215
0.000529784
0.000369006
0.000490282
0.000504385
0.000521792
0.000528428
0.000533066
0.000533515
0.000532977
0.000528145
0.000521446
0.00050395
0.000490114
0.000368896
0.0005292
0.000721061
0.000531829
0.000366248
0.000487892
0.000502961
0.000521641
0.00052884
0.000533868
0.000534366
0.000533754
0.000528508
0.00052123
0.000502458
0.000487662
0.000366096
0.000531199
0.000729081
0.000533347
0.000363318
0.000484802
0.00050081
0.00052073
0.000528493
0.000533908
0.000534459
0.000533769
0.000528111
0.000520256
0.000500237
0.000484511
0.000363125
0.000532672
0.000736171
0.000534319
0.000360211
0.000480993
0.0004979
0.00051902
0.000527341
0.00053314
0.000533743
0.000532975
0.000526909
0.000518482
0.000497258
0.00048064
0.000359977
0.000533602
0.000742292
0.000534729
0.000356919
0.000476449
0.00049421
0.000516475
0.000525344
0.000531518
0.000532176
0.000531328
0.000524863
0.000515874
0.0004935
0.000476035
0.000356645
0.000533972
0.000747408
0.000534562
0.000353434
0.000471162
0.000489719
0.000513064
0.000522468
0.000529004
0.00052972
0.00052879
0.00052194
0.000512402
0.000488943
0.000470687
0.000353122
0.000533768
0.000751485
0.000533805
0.000349752
0.000465127
0.000484416
0.000508766
0.000518686
0.000525571
0.000526343
0.000525331
0.000518112
0.000508046
0.000483578
0.000464595
0.000349403
0.000532978
0.000754494
0.000532446
0.000345867
0.00045835
0.000478299
0.000503571
0.000513983
0.000521197
0.000522027
0.000520933
0.000513365
0.000502795
0.000477403
0.000457763
0.000345484
0.000531589
0.00075641
0.000530474
0.000341778
0.000450846
0.000471381
0.000497481
0.000508356
0.000515877
0.000516765
0.00051559
0.000507697
0.000496653
0.000470431
0.000450209
0.000341363
0.000529591
0.000757213
0.000527883
0.000337488
0.000442647
0.000463685
0.000490513
0.000501818
0.000509618
0.000510564
0.00050931
0.000501121
0.000489637
0.000462687
0.000441964
0.000337044
0.000526976
0.000756888
0.000524665
0.000333003
0.000433794
0.000455256
0.000482698
0.000494393
0.000502445
0.000503446
0.000502117
0.000493662
0.00048178
0.000454216
0.000433071
0.000332533
0.00052374
0.000755398
0.00052082
0.000328332
0.000424348
0.000446147
0.000474082
0.000486123
0.000494392
0.000495447
0.000494046
0.000485362
0.000473127
0.000445074
0.000423591
0.000327838
0.00051988
0.000752677
0.000516349
0.000323488
0.000414379
0.000436426
0.000464718
0.000477053
0.000485502
0.000486609
0.00048514
0.000476268
0.000463734
0.000435328
0.000413596
0.000322975
0.000515399
0.000748637
0.000511256
0.000318492
0.000403967
0.000426164
0.000454665
0.000467234
0.000475821
0.000476976
0.000475446
0.000466431
0.000453658
0.00042505
0.000403164
0.000317964
0.0005103
0.000743194
0.000505543
0.000313369
0.000393196
0.000415439
0.000443984
0.000456722
0.000465397
0.000466596
0.000465012
0.000455906
0.000442963
0.000414318
0.000392381
0.000312829
0.000504587
0.000736277
0.000499239
0.00030815
0.000382157
0.000404329
0.000432746
0.00044558
0.000454291
0.000455528
0.0004539
0.000444759
0.00043172
0.000403211
0.000381338
0.000307601
0.000498286
0.000727838
0.000492376
0.000302866
0.000370949
0.000392924
0.000421031
0.000433889
0.000442591
0.000443863
0.000442196
0.00043307
0.000420008
0.000391819
0.000370134
0.000302313
0.000491431
0.000717859
0.00048499
0.000297556
0.00035967
0.000381328
0.000408945
0.000421759
0.000430407
0.000431707
0.00043001
0.000420947
0.000407935
0.000380245
0.000358867
0.000297002
0.000484056
0.000706352
0.00047712
0.000292253
0.000348412
0.000369646
0.000396618
0.000409311
0.000417855
0.000419178
0.000417461
0.000408513
0.000395628
0.000368592
0.000347626
0.000291703
0.000476202
0.00069333
0.000468807
0.000286991
0.000337254
0.00035797
0.000384173
0.00039667
0.00040506
0.000406396
0.000404671
0.000395891
0.00038321
0.000356953
0.000336492
0.000286448
0.000467907
0.000678834
0.000460097
0.000281797
0.000326271
0.000346385
0.000371723
0.000383963
0.000392155
0.000393496
0.000391775
0.000383209
0.000370793
0.000345409
0.000325536
0.000281265
0.000459218
0.000662941
0.000451038
0.000276701
0.00031553
0.000334968
0.000359366
0.0003713
0.00037926
0.000380598
0.000378891
0.000370574
0.000358474
0.000334039
0.000314827
0.000276183
0.000450184
0.000645783
0.000441687
0.00027173
0.000305098
0.000323794
0.000347193
0.000358778
0.000366481
0.000367809
0.000366125
0.000358085
0.000346343
0.000322914
0.000304431
0.00027123
0.00044086
0.000627601
0.000432102
0.000266914
0.000295037
0.000312932
0.000335285
0.000346485
0.000353908
0.00035522
0.000353567
0.000345827
0.00033448
0.000312104
0.000294409
0.000266434
0.000431305
0.000608784
0.000422343
0.000262281
0.000285407
0.000302445
0.000323709
0.00033449
0.000341614
0.000342903
0.000341289
0.000333868
0.000322952
0.000301672
0.00028482
0.000261824
0.000421579
0.000589787
0.000412473
0.000257859
0.000276262
0.000292395
0.000312534
0.000322862
0.000329669
0.000330929
0.000329362
0.000322278
0.000311826
0.00029168
0.000275719
0.000257429
0.000411743
0.00057102
0.00040255
0.000253677
0.000267657
0.000282844
0.000301828
0.000311675
0.000318148
0.000319373
0.00031786
0.000311132
0.000301173
0.000282188
0.00026716
0.000253276
0.000401856
0.000552744
0.000392627
0.000249764
0.000259642
0.000273852
0.000291661
0.000301002
0.000307127
0.00030831
0.000306858
0.0003005
0.000291059
0.000273255
0.000259192
0.000249394
0.000391971
0.000534825
0.000382754
0.000246149
0.000252267
0.000265475
0.000282096
0.000290909
0.000296674
0.00029781
0.000296424
0.000290449
0.000281547
0.000264938
0.000251867
0.000245813
0.000382135
0.000517066
0.00037298
0.00024286
0.000245598
0.000257771
0.000273192
0.000281457
0.000286853
0.000287936
0.000286624
0.00028104
0.000272697
0.000257295
0.000245251
0.000242559
0.0003724
0.000499501
0.000363356
0.000239926
0.000239718
0.000250809
0.000265003
0.000272703
0.000277721
0.000278747
0.000277514
0.000272328
0.000264562
0.000250397
0.000239427
0.000239662
0.000362816
0.000482209
0.000353936
0.000237375
0.000234687
0.000244686
0.000257587
0.000264695
0.000269323
0.000270285
0.000269137
0.000264362
0.000257202
0.000244341
0.000234451
0.00023715
0.000353436
0.000465261
0.000344774
0.000235236
0.000230531
0.000239476
0.00025104
0.000257495
0.000261705
0.000262597
0.00026154
0.000257206
0.000250714
0.000239196
0.000230349
0.00023505
0.000344316
0.00044872
0.00033593
0.000233536
0.000227265
0.000235211
0.000245463
0.000251217
0.000254967
0.000255778
0.000254826
0.000250976
0.000245197
0.000234993
0.000227135
0.00023339
0.000335514
0.000432643
0.000327462
0.000232305
0.000224901
0.000231911
0.000240901
0.000245947
0.000249219
0.000249941
0.000249103
0.000245752
0.000240692
0.000231751
0.000224821
0.0002322
0.000327089
0.000417077
0.000319429
0.00023157
0.000223443
0.000229587
0.000237368
0.000241709
0.000244507
0.000245135
0.000244414
0.000241557
0.000237213
0.000229482
0.000223412
0.000231507
0.000319098
0.000402065
0.000311885
0.000231362
0.000222894
0.000228249
0.000234876
0.000238515
0.000240843
0.000241375
0.000240773
0.000238405
0.000234771
0.000228195
0.000222909
0.00023134
0.000311598
0.000387652
0.00030489
0.00023171
0.00022325
0.000227901
0.000233429
0.000236375
0.000238238
0.000238671
0.000238189
0.000236304
0.000233371
0.000227894
0.000223308
0.000231729
0.000304646
0.000373923
0.000298503
0.000232646
0.000224506
0.00022854
0.00023303
0.000235295
0.0002367
0.000237032
0.000236671
0.00023526
0.000233017
0.000228577
0.000224606
0.000232705
0.000298302
0.000361017
0.000292785
0.000234199
0.000226655
0.000230164
0.000233678
0.000235277
0.000236233
0.000236464
0.000236223
0.000235277
0.000233706
0.000230242
0.000226793
0.000234299
0.000292628
0.000349048
0.0002878
0.000236403
0.000229688
0.000232763
0.000235367
0.00023632
0.000236838
0.000236969
0.000236847
0.000236352
0.000235433
0.000232878
0.000229862
0.000236542
0.000287686
0.000338079
0.000283613
0.000239288
0.000233594
0.000236325
0.000238089
0.000238421
0.000238515
0.000238547
0.000238541
0.000238482
0.000238189
0.000236474
0.000233801
0.000239465
0.000283543
2.70973e-06
2.04653e-06
1.64352e-06
1.81999e-06
1.85099e-06
1.87045e-06
1.87618e-06
1.88021e-06
1.87973e-06
1.88125e-06
1.87838e-06
1.87322e-06
1.85368e-06
1.82261e-06
1.64534e-06
2.04765e-06
8.63974e-07
6.1244e-07
4.8906e-07
5.52345e-07
5.6488e-07
5.78168e-07
5.82652e-07
5.8597e-07
5.86039e-07
5.86373e-07
5.83465e-07
5.79187e-07
5.65771e-07
5.53254e-07
4.89778e-07
6.12754e-07
3.21518e-06
2.18488e-06
1.74918e-06
2.00335e-06
2.05785e-06
2.12918e-06
2.15406e-06
2.17268e-06
2.17364e-06
2.1744e-06
2.1574e-06
2.13336e-06
2.06123e-06
2.00693e-06
1.7523e-06
2.18591e-06
1.06781e-05
7.32514e-06
5.91154e-06
6.75146e-06
6.93353e-06
7.1771e-06
7.26217e-06
7.32598e-06
7.32937e-06
7.33168e-06
7.27325e-06
7.19095e-06
6.94463e-06
6.76329e-06
5.92207e-06
7.32849e-06
2.5758e-05
1.79316e-05
1.46112e-05
1.66099e-05
1.70457e-05
1.7637e-05
1.78435e-05
1.79987e-05
1.8007e-05
1.80123e-05
1.78699e-05
1.767e-05
1.7072e-05
1.66381e-05
1.46368e-05
1.79395e-05
5.03072e-05
3.56094e-05
2.93463e-05
3.31779e-05
3.4017e-05
3.51744e-05
3.55784e-05
3.5883e-05
3.58995e-05
3.59091e-05
3.5629e-05
3.52376e-05
3.4067e-05
3.32319e-05
2.93963e-05
3.56244e-05
8.47793e-05
6.11129e-05
5.10228e-05
5.73263e-05
5.87099e-05
6.06578e-05
6.13376e-05
6.18521e-05
6.18798e-05
6.18949e-05
6.14205e-05
6.07614e-05
5.87914e-05
5.7415e-05
5.11068e-05
6.11373e-05
0.000127817
9.39921e-05
7.9625e-05
8.88403e-05
9.08635e-05
9.37829e-05
9.48016e-05
9.55758e-05
9.56173e-05
9.56382e-05
9.49219e-05
9.39336e-05
9.09812e-05
8.89698e-05
7.97504e-05
9.40268e-05
0.000176423
0.000132569
0.00011411
0.000126341
0.000129023
0.000133008
0.000134398
0.00013546
0.000135517
0.000135543
0.000134557
0.000133207
0.000129177
0.000126513
0.00011428
0.000132613
0.000226861
0.000174366
0.000152644
0.000167622
0.000170899
0.000175945
0.000177703
0.000179055
0.000179127
0.000179157
0.000177898
0.000176188
0.000171087
0.000167833
0.000152859
0.000174419
0.000275767
0.00021681
0.000193106
0.00021027
0.000214023
0.000220043
0.00022214
0.000223763
0.00022385
0.000223881
0.000222364
0.000220323
0.000214237
0.000210515
0.000193363
0.00021687
0.000320814
0.000257808
0.000233592
0.00025223
0.000256314
0.00026318
0.000265571
0.000267436
0.000267535
0.000267566
0.000265817
0.000263488
0.000256547
0.000252501
0.000233884
0.000257871
0.000360785
0.000295978
0.000272687
0.000292065
0.000296337
0.000303911
0.000306548
0.000308622
0.000308732
0.000308762
0.00030681
0.000304239
0.000296583
0.000292356
0.000273008
0.000296043
0.000395341
0.000330613
0.000309504
0.000328952
0.000333287
0.000341436
0.000344274
0.000346528
0.000346646
0.000346674
0.000344546
0.000341777
0.000333539
0.000329255
0.000309849
0.000330678
0.000424749
0.000361539
0.000343589
0.000362531
0.000366832
0.000375439
0.000378439
0.000380847
0.000380971
0.000380997
0.000378716
0.000375787
0.000367084
0.000362841
0.000343951
0.000361605
0.000449322
0.0003889
0.000374787
0.000392777
0.000396975
0.000405943
0.000409073
0.000411607
0.000411738
0.00041176
0.000409352
0.000406293
0.000397226
0.00039309
0.000375163
0.000388967
0.000469476
0.000412856
0.000403158
0.000419895
0.000423927
0.00043317
0.000436404
0.000439049
0.000439185
0.000439203
0.000436683
0.000433519
0.000424173
0.000420208
0.000403546
0.000412922
0.000485671
0.000433627
0.000428872
0.000444045
0.000447861
0.000457304
0.000460622
0.000463363
0.000463504
0.000463516
0.000460897
0.000457648
0.0004481
0.000444355
0.000429269
0.000433691
0.000498364
0.000451465
0.000452062
0.000465411
0.000468974
0.000478548
0.000481935
0.000484761
0.000484907
0.000484912
0.000482203
0.000478883
0.000469202
0.000465716
0.000452464
0.000451526
0.000507979
0.000466628
0.000472866
0.00048419
0.000487471
0.00049712
0.000500564
0.000503467
0.000503618
0.000503614
0.000500822
0.000497442
0.000487686
0.000484488
0.00047327
0.000466685
0.000514896
0.000479365
0.000491427
0.000500583
0.000503562
0.000513234
0.000516727
0.000519697
0.000519854
0.00051984
0.000516973
0.000513541
0.000503761
0.000500871
0.000491831
0.000479417
0.000519443
0.000489911
0.000507887
0.00051478
0.000517443
0.00052709
0.000530623
0.000533652
0.000533815
0.000533788
0.000530855
0.00052738
0.000517625
0.000515057
0.000508289
0.000489956
0.000521895
0.000498478
0.000522383
0.00052696
0.000529296
0.000538867
0.00054243
0.000545509
0.000545678
0.000545638
0.000542647
0.000539137
0.000529459
0.000527222
0.000522781
0.000498515
0.000522487
0.000505256
0.000535044
0.000537279
0.00053928
0.00054872
0.000552302
0.000555419
0.000555596
0.00055554
0.000552501
0.000548968
0.000539424
0.000537527
0.000535435
0.000505285
0.000521405
0.000510413
0.000545993
0.000545878
0.000547537
0.000556783
0.000560373
0.000563516
0.000563701
0.000563628
0.000560554
0.000557009
0.00054766
0.000546111
0.000546375
0.000510432
0.000518813
0.000514091
0.000555341
0.000552879
0.000554188
0.000563176
0.00056676
0.000569917
0.000570112
0.000570018
0.000566923
0.000563378
0.00055429
0.000553096
0.000555713
0.000514101
0.000514857
0.000516416
0.00056319
0.00055839
0.000559339
0.000568002
0.000571567
0.000574723
0.000574929
0.000574813
0.00057171
0.000568179
0.00055942
0.00055859
0.00056355
0.000516417
0.00050967
0.000517496
0.000569627
0.000562503
0.000563084
0.000571353
0.000574885
0.000578025
0.000578243
0.000578103
0.000575007
0.000571504
0.000563143
0.000562687
0.000569973
0.000517486
0.000503373
0.000517426
0.000574727
0.000565303
0.000565506
0.000573312
0.000576795
0.000579904
0.000580136
0.00057997
0.000576896
0.000573436
0.000565544
0.000565471
0.000575058
0.000517406
0.000496083
0.000516291
0.000578557
0.000566865
0.00056668
0.000573955
0.000577373
0.000580435
0.000580682
0.000580489
0.000577453
0.000574052
0.000566696
0.000567018
0.000578872
0.000516261
0.000487908
0.000514167
0.000581176
0.000567259
0.000566675
0.000573353
0.000576692
0.00057969
0.000579954
0.000579731
0.000576751
0.000573423
0.00056667
0.000567397
0.000581474
0.000514128
0.000478952
0.000511127
0.000582637
0.000566551
0.000565556
0.000571577
0.000574821
0.000577739
0.000578021
0.000577767
0.000574858
0.000571619
0.00056553
0.000566674
0.000582917
0.000511077
0.000469314
0.000507237
0.00058299
0.000564804
0.000563387
0.000568694
0.000571829
0.000574651
0.000574952
0.000574665
0.000571844
0.000568709
0.00056334
0.000564911
0.000583252
0.000507179
0.00045909
0.000502565
0.000582282
0.000562078
0.000560228
0.000564774
0.000567785
0.000570495
0.000570815
0.000570494
0.000567777
0.000564761
0.00056016
0.00056217
0.000582524
0.000502497
0.000448369
0.000497176
0.000580557
0.000558434
0.00055614
0.000559885
0.000562758
0.000565343
0.000565683
0.000565328
0.000562728
0.000559844
0.000556051
0.000558511
0.00058078
0.0004971
0.000437241
0.000491139
0.00057786
0.000553931
0.000551184
0.000554098
0.000556821
0.000559267
0.000559628
0.000559238
0.000556769
0.000554029
0.000551074
0.000553993
0.000578062
0.000491054
0.000425788
0.000484525
0.000574235
0.000548629
0.000545422
0.000547485
0.000550049
0.000552344
0.000552726
0.000552301
0.000549974
0.000547388
0.00054529
0.000548676
0.000574416
0.000484431
0.000414093
0.000477406
0.000569727
0.000542587
0.000538915
0.000540119
0.000542515
0.000544652
0.000545053
0.000544594
0.000542418
0.000539995
0.00053876
0.000542618
0.000569887
0.000477305
0.000402233
0.000469857
0.000564384
0.000535863
0.000531725
0.000532077
0.0005343
0.000536271
0.000536691
0.000536198
0.00053418
0.000531925
0.000531548
0.000535878
0.000564522
0.000469748
0.000390285
0.000461946
0.000558254
0.000528517
0.000523917
0.000523437
0.000525484
0.000527285
0.000527724
0.000527198
0.000525341
0.000523256
0.000523715
0.000528514
0.000558369
0.00046183
0.000378323
0.000453715
0.000551387
0.000520606
0.000515554
0.000514279
0.00051615
0.000517782
0.000518238
0.000517681
0.000515984
0.000514069
0.000515328
0.000520584
0.000551481
0.000453592
0.00036642
0.000445189
0.000543836
0.00051219
0.000506705
0.000504687
0.000506387
0.000507853
0.000508324
0.000507738
0.000506198
0.000504449
0.000506453
0.00051215
0.000543907
0.000445061
0.000354646
0.000436399
0.000535647
0.000503333
0.000497443
0.00049475
0.000496286
0.000497591
0.000498074
0.000497463
0.000496073
0.000494483
0.000497164
0.000503273
0.000535696
0.000436266
0.00034307
0.000427384
0.000526862
0.000494103
0.000487845
0.000484554
0.000485933
0.000487085
0.000487579
0.000486944
0.000485697
0.000484258
0.000487538
0.000494022
0.000526889
0.000427248
0.000331758
0.000418181
0.000517507
0.000484577
0.00047799
0.000474176
0.000475401
0.000476405
0.000476907
0.000476252
0.000475143
0.000473853
0.000477655
0.000484474
0.000517512
0.000418042
0.000320778
0.000408826
0.000507604
0.000474832
0.000467953
0.000463655
0.000464712
0.000465563
0.00046607
0.000465399
0.000464435
0.000463309
0.000467591
0.000474708
0.000507587
0.000408684
0.000310197
0.000399355
0.000497175
0.000464936
0.000457774
0.000452982
0.000453859
0.00045455
0.000455059
0.000454377
0.000453565
0.000452617
0.000457391
0.00046479
0.000497138
0.000399211
0.000300085
0.000389803
0.000486256
0.000454905
0.000447451
0.000442166
0.000442855
0.000443385
0.000443893
0.000443204
0.000442548
0.000441783
0.00044705
0.000454743
0.0004862
0.000389658
0.000290503
0.000380205
0.000474901
0.000444739
0.000436991
0.00043124
0.000431733
0.0004321
0.000432603
0.000431912
0.000431413
0.000430843
0.000436575
0.000444563
0.000474828
0.00038006
0.000281505
0.000370595
0.000463199
0.000434456
0.000426429
0.000420236
0.000420524
0.000420725
0.000421219
0.000420531
0.000420195
0.000419828
0.000426002
0.000434269
0.000463112
0.000370451
0.000273124
0.000361006
0.000451271
0.000424094
0.000415802
0.000409189
0.000409261
0.000409291
0.000409773
0.000409094
0.000408925
0.000408773
0.000415366
0.000423898
0.000451174
0.000360865
0.00026537
0.000351476
0.000439279
0.000413692
0.000405147
0.000398136
0.000397979
0.000397837
0.000398301
0.000397637
0.000397639
0.000397715
0.000404707
0.00041349
0.000439175
0.000351337
0.00025823
0.00034204
0.0004274
0.00040329
0.000394506
0.000387116
0.000386722
0.000386403
0.000386846
0.000386203
0.000386381
0.000386696
0.000394065
0.000403084
0.000427294
0.000341906
0.000251679
0.000332738
0.00041578
0.000392929
0.000383922
0.000376176
0.000375534
0.000375039
0.000375457
0.000374841
0.000375196
0.000375758
0.000383484
0.000392722
0.000415674
0.000332609
0.000245686
0.000323605
0.000404441
0.000382649
0.000373441
0.000365362
0.000364471
0.000363801
0.00036419
0.000363606
0.000364137
0.000364951
0.000373009
0.000382443
0.000404337
0.000323481
0.00024021
0.000314674
0.000393294
0.000372487
0.000363108
0.000354726
0.000353587
0.000352748
0.000353107
0.000352558
0.000353261
0.000354325
0.000362686
0.000372285
0.00039319
0.000314556
0.000235209
0.000305981
0.000382298
0.000362479
0.000352961
0.00034431
0.000342929
0.000341932
0.000342257
0.000341747
0.000342614
0.000343921
0.00035255
0.000362281
0.000382196
0.00030587
0.000230639
0.000297562
0.000371486
0.000352659
0.000343035
0.000334153
0.000332541
0.000331394
0.000331685
0.000331217
0.000332238
0.000333779
0.000342638
0.000352467
0.000371388
0.000297458
0.000226462
0.00028945
0.000360891
0.000343061
0.000333362
0.000324292
0.00032246
0.000321177
0.000321433
0.000321008
0.000322171
0.000323935
0.000332982
0.000342876
0.000360796
0.000289354
0.000222649
0.000281682
0.000350544
0.000333716
0.000323974
0.000314759
0.000312723
0.000311318
0.000311538
0.000311157
0.000312449
0.000314421
0.000323613
0.00033354
0.000350453
0.000281593
0.000219184
0.000274292
0.000340475
0.000324655
0.000314902
0.000305588
0.000303366
0.000301853
0.000302038
0.000301702
0.000303108
0.00030527
0.000314562
0.000324488
0.000340389
0.000274212
0.000216069
0.000267319
0.000330716
0.000315906
0.000306177
0.000296818
0.000294429
0.000292827
0.000292977
0.000292686
0.00029419
0.000296522
0.000305859
0.000315749
0.000330637
0.000267247
0.000213326
0.000260799
0.000321301
0.0003075
0.000297833
0.000288485
0.000285956
0.000284282
0.000284399
0.000284152
0.000285735
0.000288212
0.000297537
0.000307354
0.000321227
0.000260735
0.000210991
0.000254768
0.000312263
0.000299466
0.000289902
0.000280623
0.000277981
0.000276257
0.000276342
0.000276139
0.00027778
0.000280375
0.00028963
0.000299333
0.000312196
0.000254712
0.000209114
0.000249264
0.000303642
0.00029184
0.000282417
0.00027327
0.000270541
0.000268791
0.000268845
0.000268685
0.000270362
0.000273046
0.00028217
0.00029172
0.000303581
0.000249214
0.000207734
0.000244321
0.00029548
0.000284655
0.000275417
0.000266462
0.000263679
0.000261923
0.00026195
0.00026183
0.000263521
0.000266264
0.000275195
0.000284549
0.000295427
0.000244278
0.000206881
0.000239974
0.000287822
0.00027795
0.000268938
0.00026024
0.000257437
0.000255702
0.000255704
0.000255622
0.000257301
0.000260069
0.000268743
0.000277858
0.000287777
0.000239937
0.000206579
0.000236254
0.000280713
0.000271759
0.000263017
0.000254641
0.000251856
0.000250169
0.000250149
0.000250102
0.000251742
0.000254496
0.000262847
0.00027168
0.000280674
0.000236222
0.000206851
0.000233191
0.000274192
0.000266113
0.000257683
0.000249692
0.000246964
0.000245351
0.000245313
0.000245297
0.000246872
0.000249573
0.000257538
0.000266047
0.000274161
0.000233164
0.000207714
0.000230813
0.000268302
0.000261043
0.000252963
0.000245417
0.000242784
0.00024127
0.00024122
0.000241228
0.000242713
0.000245322
0.000252842
0.00026099
0.000268277
0.00023079
0.000209183
0.000229144
0.000263084
0.000256581
0.000248884
0.000241837
0.000239337
0.000237945
0.000237887
0.000237915
0.000239287
0.000241767
0.000248787
0.00025654
0.000263065
0.000229124
0.000211266
0.000228205
0.000258578
0.00025276
0.000245475
0.000238973
0.00023664
0.000235391
0.00023533
0.000235373
0.00023661
0.000238926
0.000245401
0.000252731
0.000258564
0.000228186
0.000213967
0.000228013
0.000254826
0.000249615
0.000242766
0.000236845
0.000234711
0.000233622
0.000233562
0.000233615
0.000234699
0.00023682
0.000242713
0.000249597
0.000254816
0.000227995
0.000217286
0.000228582
0.000251867
0.000247183
0.000240787
0.000235475
0.000233565
0.000232652
0.000232598
0.000232656
0.000233571
0.000235471
0.000240754
0.000247175
0.000251861
0.000228563
0.000221222
0.000229923
0.000249741
0.000245502
0.00023957