/*--------------------------------*- C++ -*----------------------------------*\
| =========                 |                                                 |
| \\      /  F ield         | OpenFOAM: The Open Source CFD Toolbox           |
|  \\    /   O peration     | Version:  v1912                                 |
|   \\  /    A nd           | Website:  www.openfoam.com                      |
|    \\/     M anipulation  |                                                 |
\*---------------------------------------------------------------------------*/
FoamFile
{
    version     2.0;
    format      ascii;
    class       volScalarField;
    location    "198.8";
    object      nut;
}
// * * * * * * * * * * * * * * * * * * * * * * * * * * * * * * * * * * * * * //

dimensions      [0 2 -1 0 0 0 0];


internalField   nonuniform List<scalar> 
10147
(
9.04284e-12
1.18786e-11
1.41233e-11
1.34909e-11
1.31978e-11
1.32121e-11
1.31501e-11
1.3133e-11
1.31186e-11
1.3138e-11
1.31571e-11
1.32214e-11
1.32059e-11
1.35004e-11
1.41398e-11
1.18974e-11
1.41485e-11
1.86349e-11
2.22931e-11
2.16006e-11
2.10338e-11
2.10697e-11
2.09666e-11
2.09389e-11
2.09156e-11
2.09506e-11
2.09831e-11
2.1092e-11
2.10538e-11
2.16248e-11
2.23171e-11
1.8663e-11
1.32922e-10
1.71149e-10
1.97318e-10
2.0657e-10
2.00267e-10
2.00671e-10
1.99659e-10
1.9938e-10
1.99162e-10
1.99529e-10
1.99872e-10
2.00961e-10
2.0053e-10
2.06892e-10
1.9767e-10
1.71483e-10
9.27134e-10
1.16964e-09
1.32729e-09
1.41695e-09
1.37436e-09
1.37659e-09
1.36979e-09
1.36778e-09
1.36636e-09
1.36881e-09
1.37127e-09
1.3786e-09
1.3762e-09
1.41919e-09
1.32987e-09
1.17201e-09
3.93029e-09
4.8539e-09
5.43612e-09
5.86295e-09
5.69332e-09
5.70013e-09
5.67298e-09
5.66446e-09
5.65892e-09
5.66859e-09
5.67896e-09
5.70825e-09
5.70077e-09
5.87203e-09
5.44686e-09
4.86358e-09
1.197e-08
1.44499e-08
1.59583e-08
1.73462e-08
1.68695e-08
1.68837e-08
1.68076e-08
1.67824e-08
1.67673e-08
1.67942e-08
1.68246e-08
1.69068e-08
1.68908e-08
1.73722e-08
1.59894e-08
1.44776e-08
2.89836e-08
3.4179e-08
3.71785e-08
4.06862e-08
3.96363e-08
3.9661e-08
3.94952e-08
3.94388e-08
3.94063e-08
3.94649e-08
3.9533e-08
3.97124e-08
3.96838e-08
4.07441e-08
3.72486e-08
3.42407e-08
5.93271e-08
6.83567e-08
7.31645e-08
8.05642e-08
7.86335e-08
7.86805e-08
7.83832e-08
7.82816e-08
7.82235e-08
7.83299e-08
7.84528e-08
7.87753e-08
7.87212e-08
8.06722e-08
7.32958e-08
6.8471e-08
1.06908e-07
1.20403e-07
1.26715e-07
1.40356e-07
1.37268e-07
1.37376e-07
1.36921e-07
1.36771e-07
1.3668e-07
1.36848e-07
1.37032e-07
1.37527e-07
1.37408e-07
1.4053e-07
1.26928e-07
1.20586e-07
1.74527e-07
1.92181e-07
1.98778e-07
2.21479e-07
2.1706e-07
2.17318e-07
2.16714e-07
2.16533e-07
2.16407e-07
2.16644e-07
2.16872e-07
2.17534e-07
2.17259e-07
2.21733e-07
1.9909e-07
1.92444e-07
2.63656e-07
2.83908e-07
2.8853e-07
3.23486e-07
3.17703e-07
3.18278e-07
3.17579e-07
3.17412e-07
3.17253e-07
3.17559e-07
3.17782e-07
3.18558e-07
3.17958e-07
3.23823e-07
2.88948e-07
2.84251e-07
3.74638e-07
3.94545e-07
3.93904e-07
4.4466e-07
4.37626e-07
4.38785e-07
4.381e-07
4.38027e-07
4.3784e-07
4.38206e-07
4.3834e-07
4.3912e-07
4.37927e-07
4.45076e-07
3.94429e-07
3.94957e-07
5.07109e-07
5.22358e-07
5.05863e-07
5.82692e-07
5.74658e-07
5.76792e-07
5.76286e-07
5.76424e-07
5.7622e-07
5.76629e-07
5.76549e-07
5.77165e-07
5.74985e-07
5.83178e-07
5.06406e-07
5.22822e-07
6.60408e-07
6.65459e-07
6.19491e-07
7.27413e-07
7.21357e-07
7.27666e-07
7.28976e-07
7.3035e-07
7.30288e-07
7.30515e-07
7.2912e-07
7.27902e-07
7.21542e-07
7.27847e-07
6.20103e-07
6.65951e-07
8.33838e-07
8.14287e-07
7.41869e-07
8.79402e-07
8.73662e-07
8.8339e-07
8.85896e-07
8.88188e-07
8.88195e-07
8.8834e-07
8.8597e-07
8.83549e-07
8.73759e-07
8.79829e-07
7.42547e-07
8.14531e-07
1.0268e-06
9.72177e-07
8.73408e-07
1.0444e-06
1.03912e-06
1.05325e-06
1.05727e-06
1.06074e-06
1.06082e-06
1.06087e-06
1.05724e-06
1.0533e-06
1.03909e-06
1.0448e-06
8.74141e-07
9.72304e-07
1.23877e-06
1.14355e-06
1.01402e-06
1.2233e-06
1.21892e-06
1.239e-06
1.24507e-06
1.25014e-06
1.25032e-06
1.25022e-06
1.24489e-06
1.23887e-06
1.21869e-06
1.22361e-06
1.01479e-06
1.14353e-06
1.46906e-06
1.32938e-06
1.16365e-06
1.41645e-06
1.41358e-06
1.4416e-06
1.45042e-06
1.45751e-06
1.45782e-06
1.45753e-06
1.45001e-06
1.44121e-06
1.41306e-06
1.41661e-06
1.16443e-06
1.32916e-06
1.71762e-06
1.53031e-06
1.32236e-06
1.62421e-06
1.62361e-06
1.66166e-06
1.67378e-06
1.68251e-06
1.68287e-06
1.68248e-06
1.67313e-06
1.66094e-06
1.62269e-06
1.62414e-06
1.32313e-06
1.52982e-06
1.98455e-06
1.74699e-06
1.49038e-06
1.84684e-06
1.84932e-06
1.89723e-06
1.91157e-06
1.91652e-06
1.91642e-06
1.91672e-06
1.9108e-06
1.89631e-06
1.84792e-06
1.84644e-06
1.49109e-06
1.74616e-06
2.2699e-06
1.97991e-06
1.66812e-06
2.08382e-06
2.08949e-06
2.13339e-06
2.14009e-06
2.14627e-06
2.14623e-06
2.14643e-06
2.14002e-06
2.13341e-06
2.08779e-06
2.08301e-06
1.66872e-06
1.9787e-06
2.57238e-06
2.22823e-06
1.85606e-06
2.33034e-06
2.33564e-06
2.36602e-06
2.37465e-06
2.38236e-06
2.38241e-06
2.38245e-06
2.37444e-06
2.36588e-06
2.33517e-06
2.32935e-06
1.85651e-06
2.22681e-06
2.89141e-06
2.48523e-06
2.0544e-06
2.56397e-06
2.56719e-06
2.6034e-06
2.6142e-06
2.62375e-06
2.62396e-06
2.62377e-06
2.61383e-06
2.60308e-06
2.56648e-06
2.56434e-06
2.05466e-06
2.48472e-06
3.22631e-06
2.73179e-06
2.26085e-06
2.79483e-06
2.80311e-06
2.84576e-06
2.85912e-06
2.87073e-06
2.87113e-06
2.87067e-06
2.85856e-06
2.84523e-06
2.80211e-06
2.79508e-06
2.26103e-06
2.73099e-06
3.57632e-06
2.98527e-06
2.46124e-06
3.02813e-06
3.04252e-06
3.09247e-06
3.1088e-06
3.1227e-06
3.12332e-06
3.12254e-06
3.10803e-06
3.09167e-06
3.0412e-06
3.02822e-06
2.46214e-06
2.98416e-06
3.94058e-06
3.24574e-06
2.63638e-06
3.26345e-06
3.28453e-06
3.34296e-06
3.36271e-06
3.37909e-06
3.37995e-06
3.37881e-06
3.36171e-06
3.34186e-06
3.28286e-06
3.26335e-06
2.63718e-06
3.2443e-06
4.31814e-06
3.51281e-06
2.81118e-06
3.50035e-06
3.52861e-06
3.59671e-06
3.62029e-06
3.63938e-06
3.64051e-06
3.63898e-06
3.61901e-06
3.59526e-06
3.52654e-06
3.50002e-06
2.81185e-06
3.51102e-06
4.70796e-06
3.78607e-06
2.98558e-06
3.73837e-06
3.77434e-06
3.85321e-06
3.881e-06
3.90312e-06
3.90455e-06
3.90258e-06
3.87943e-06
3.85138e-06
3.77183e-06
3.73779e-06
2.9861e-06
3.78391e-06
5.10896e-06
4.06513e-06
3.15961e-06
3.97707e-06
4.02129e-06
4.11199e-06
4.14436e-06
4.16979e-06
4.17156e-06
4.16911e-06
4.14247e-06
4.10976e-06
4.01831e-06
3.97621e-06
3.15995e-06
4.06258e-06
5.52e-06
4.34956e-06
3.33336e-06
4.216e-06
4.26905e-06
4.37256e-06
4.40988e-06
4.43889e-06
4.44104e-06
4.43805e-06
4.40765e-06
4.36991e-06
4.26556e-06
4.21481e-06
3.33349e-06
4.34662e-06
5.93987e-06
4.63894e-06
3.50702e-06
4.45471e-06
4.51719e-06
4.63447e-06
4.67707e-06
4.70991e-06
4.71246e-06
4.70891e-06
4.67448e-06
4.63137e-06
4.51315e-06
4.45316e-06
3.50693e-06
4.63559e-06
6.36737e-06
4.93279e-06
3.68086e-06
4.69278e-06
4.76526e-06
4.89721e-06
4.94543e-06
4.98233e-06
4.98532e-06
4.98116e-06
4.94246e-06
4.89364e-06
4.76065e-06
4.69083e-06
3.68051e-06
4.92905e-06
6.80124e-06
5.23064e-06
3.85516e-06
4.92979e-06
5.01286e-06
5.16028e-06
5.21442e-06
5.25561e-06
5.25906e-06
5.25426e-06
5.21107e-06
5.15622e-06
5.00764e-06
4.92742e-06
3.85455e-06
5.22651e-06
7.24021e-06
5.53198e-06
4.03029e-06
5.16539e-06
5.25958e-06
5.42316e-06
5.4835e-06
5.52918e-06
5.53311e-06
5.52765e-06
5.47976e-06
5.4186e-06
5.25373e-06
5.16256e-06
4.02938e-06
5.52747e-06
7.68297e-06
5.83625e-06
4.20661e-06
5.39925e-06
5.50508e-06
5.68533e-06
5.75213e-06
5.80245e-06
5.8069e-06
5.80073e-06
5.74797e-06
5.68026e-06
5.49859e-06
5.39597e-06
4.20539e-06
5.83139e-06
8.12812e-06
6.143e-06
4.38451e-06
5.63115e-06
5.74906e-06
5.94627e-06
6.01971e-06
6.07482e-06
6.0798e-06
6.07291e-06
6.01515e-06
5.94069e-06
5.74194e-06
5.6274e-06
4.38295e-06
6.1378e-06
8.57425e-06
6.45185e-06
4.56437e-06
5.86091e-06
5.99129e-06
6.20549e-06
6.2857e-06
6.34567e-06
6.35121e-06
6.34357e-06
6.28073e-06
6.1994e-06
5.98355e-06
5.85669e-06
4.56246e-06
6.44636e-06
9.01989e-06
6.76249e-06
4.74654e-06
6.08842e-06
6.23159e-06
6.46251e-06
6.54954e-06
6.61437e-06
6.6205e-06
6.61209e-06
6.54416e-06
6.45592e-06
6.22325e-06
6.08371e-06
4.74426e-06
6.75673e-06
9.46357e-06
7.07464e-06
4.93136e-06
6.31358e-06
6.46979e-06
6.71689e-06
6.81069e-06
6.88031e-06
6.88705e-06
6.87786e-06
6.80493e-06
6.70984e-06
6.46085e-06
6.30838e-06
4.9287e-06
7.06865e-06
9.90381e-06
7.38807e-06
5.11911e-06
6.53623e-06
6.70569e-06
6.96819e-06
7.06861e-06
7.14286e-06
7.15023e-06
7.14024e-06
7.0625e-06
6.9607e-06
6.69617e-06
6.53053e-06
5.11606e-06
7.38189e-06
1.03391e-05
7.70258e-06
5.31001e-06
6.75583e-06
6.93883e-06
7.21584e-06
7.32263e-06
7.40128e-06
7.40931e-06
7.3985e-06
7.3162e-06
7.20795e-06
6.92877e-06
6.74964e-06
5.30656e-06
7.69623e-06
1.07685e-05
8.01804e-06
5.50421e-06
6.9717e-06
7.16847e-06
7.4594e-06
7.57237e-06
7.65512e-06
7.66384e-06
7.65221e-06
7.56565e-06
7.45112e-06
7.15791e-06
6.96502e-06
5.50036e-06
8.01155e-06
1.11915e-05
8.33437e-06
5.70178e-06
7.18304e-06
7.39385e-06
7.6982e-06
7.81723e-06
7.90394e-06
7.91334e-06
7.90089e-06
7.81024e-06
7.68955e-06
7.38284e-06
7.17587e-06
5.69752e-06
8.32779e-06
1.16076e-05
8.65159e-06
5.9027e-06
7.38936e-06
7.61432e-06
7.93159e-06
8.05643e-06
8.14679e-06
8.15689e-06
8.14361e-06
8.04922e-06
7.92264e-06
7.6029e-06
7.38175e-06
5.89804e-06
8.64494e-06
1.2016e-05
8.96978e-06
6.10687e-06
7.59064e-06
7.82966e-06
8.1591e-06
8.28922e-06
8.38254e-06
8.39336e-06
8.37925e-06
8.28184e-06
8.14991e-06
7.81795e-06
7.58269e-06
6.10183e-06
8.96308e-06
1.24152e-05
9.28912e-06
6.31411e-06
7.787e-06
8.03999e-06
8.38014e-06
8.51454e-06
8.60937e-06
8.62093e-06
8.606e-06
8.50707e-06
8.37081e-06
8.02813e-06
7.7788e-06
6.3087e-06
9.28239e-06
1.28037e-05
9.60992e-06
6.52416e-06
7.97856e-06
8.24549e-06
8.59367e-06
8.73096e-06
8.82699e-06
8.83929e-06
8.82357e-06
8.72346e-06
8.58432e-06
8.2336e-06
7.97021e-06
6.5184e-06
9.60317e-06
1.31041e-05
9.93262e-06
6.73667e-06
8.1653e-06
8.44611e-06
8.79841e-06
8.9383e-06
9.03523e-06
9.04825e-06
9.03177e-06
8.9308e-06
8.78909e-06
8.43428e-06
8.15687e-06
6.73058e-06
9.92586e-06
1.32641e-05
1.02579e-05
6.95154e-06
8.34682e-06
8.64111e-06
8.99407e-06
9.13629e-06
9.23384e-06
9.24757e-06
9.23036e-06
9.12885e-06
8.98484e-06
8.62944e-06
8.33837e-06
6.94515e-06
1.02511e-05
1.33528e-05
1.05864e-05
7.16871e-06
8.52236e-06
8.82902e-06
9.18029e-06
9.32455e-06
9.42243e-06
9.43687e-06
9.41895e-06
9.31721e-06
9.17121e-06
8.81757e-06
8.51399e-06
7.16202e-06
1.05796e-05
1.34067e-05
1.09176e-05
7.38767e-06
8.6914e-06
9.0085e-06
9.35662e-06
9.50263e-06
9.60054e-06
9.61566e-06
9.59708e-06
9.49544e-06
9.34777e-06
8.9974e-06
8.68325e-06
7.38071e-06
1.09107e-05
1.34454e-05
1.12475e-05
7.60775e-06
8.85401e-06
9.17973e-06
9.52277e-06
9.67018e-06
9.76777e-06
9.78354e-06
9.76436e-06
9.66321e-06
9.51423e-06
9.16921e-06
8.84607e-06
7.60055e-06
1.12407e-05
1.34789e-05
1.15722e-05
7.82831e-06
9.00917e-06
9.34363e-06
9.67869e-06
9.82722e-06
9.92414e-06
9.94052e-06
9.92081e-06
9.82052e-06
9.67056e-06
9.33368e-06
9.0014e-06
7.82089e-06
1.15653e-05
1.35123e-05
1.18899e-05
8.0488e-06
9.15522e-06
9.49916e-06
9.82481e-06
9.97428e-06
1.00704e-05
1.00874e-05
1.00672e-05
9.96793e-06
9.81719e-06
9.48973e-06
9.14753e-06
8.04122e-06
1.18839e-05
1.35489e-05
1.22025e-05
8.26893e-06
9.29078e-06
9.64454e-06
9.96116e-06
1.01125e-05
1.02082e-05
1.02257e-05
1.02051e-05
1.01065e-05
9.95412e-06
9.63557e-06
9.28318e-06
8.26122e-06
1.21957e-05
1.3592e-05
1.25067e-05
8.48864e-06
9.41562e-06
9.77837e-06
1.00897e-05
1.02416e-05
1.03378e-05
1.0356e-05
1.03348e-05
1.02361e-05
1.00832e-05
9.76987e-06
9.40821e-06
8.48088e-06
1.25e-05
1.36458e-05
1.28027e-05
8.70813e-06
9.53068e-06
9.90042e-06
1.02081e-05
1.03621e-05
1.04577e-05
1.04771e-05
1.04549e-05
1.0357e-05
1.02021e-05
9.89249e-06
9.52357e-06
8.70037e-06
1.2796e-05
1.37187e-05
1.30896e-05
8.92767e-06
9.63768e-06
1.00118e-05
1.03159e-05
1.04722e-05
1.05679e-05
1.05886e-05
1.05652e-05
1.04676e-05
1.03103e-05
1.00046e-05
9.63103e-06
8.92001e-06
1.3083e-05
1.38271e-05
1.33671e-05
9.14755e-06
9.73892e-06
1.01145e-05
1.04143e-05
1.05726e-05
1.06682e-05
1.06902e-05
1.06658e-05
1.05685e-05
1.04094e-05
1.01081e-05
9.73291e-06
9.14007e-06
1.33605e-05
1.39999e-05
1.36343e-05
9.36807e-06
9.8371e-06
1.0211e-05
1.05059e-05
1.06653e-05
1.07606e-05
1.07837e-05
1.07584e-05
1.06618e-05
1.05019e-05
1.02057e-05
9.83188e-06
9.36085e-06
1.36278e-05
1.4283e-05
1.38905e-05
9.5895e-06
9.93513e-06
1.03044e-05
1.05943e-05
1.0754e-05
1.08485e-05
1.08724e-05
1.08467e-05
1.07512e-05
1.05913e-05
1.03002e-05
9.93086e-06
9.58263e-06
1.38841e-05
1.47375e-05
1.41346e-05
9.81203e-06
1.00361e-05
1.03965e-05
1.06786e-05
1.0837e-05
1.09309e-05
1.09553e-05
1.09293e-05
1.08348e-05
1.06764e-05
1.03936e-05
1.00329e-05
9.8056e-06
1.41282e-05
1.54186e-05
1.43649e-05
1.00357e-05
1.01431e-05
1.04899e-05
1.07614e-05
1.09169e-05
1.10092e-05
1.10338e-05
1.10079e-05
1.09156e-05
1.07603e-05
1.04884e-05
1.01412e-05
1.00298e-05
1.43586e-05
1.63168e-05
1.45796e-05
1.02603e-05
1.02593e-05
1.05881e-05
1.08465e-05
1.09977e-05
1.10874e-05
1.11119e-05
1.10865e-05
1.09972e-05
1.08466e-05
1.05882e-05
1.02587e-05
1.0255e-05
1.45733e-05
1.72255e-05
1.47765e-05
1.04853e-05
1.03876e-05
1.06946e-05
1.09374e-05
1.1083e-05
1.11693e-05
1.11934e-05
1.11688e-05
1.10835e-05
1.09389e-05
1.06965e-05
1.03886e-05
1.04806e-05
1.47704e-05
1.75099e-05
1.49541e-05
1.07098e-05
1.05296e-05
1.08129e-05
1.10379e-05
1.11764e-05
1.12587e-05
1.12821e-05
1.12587e-05
1.1178e-05
1.10408e-05
1.08165e-05
1.05321e-05
1.07059e-05
1.49481e-05
1.75775e-05
1.51109e-05
1.09326e-05
1.06847e-05
1.09458e-05
1.11512e-05
1.12815e-05
1.1359e-05
1.13815e-05
1.13596e-05
1.12842e-05
1.11557e-05
1.09512e-05
1.06882e-05
1.09296e-05
1.5105e-05
1.76206e-05
1.52457e-05
1.11525e-05
1.0845e-05
1.10932e-05
1.12807e-05
1.14016e-05
1.1474e-05
1.14952e-05
1.14752e-05
1.14055e-05
1.12867e-05
1.10998e-05
1.08489e-05
1.11504e-05
1.524e-05
1.76402e-05
1.5357e-05
1.13677e-05
1.10061e-05
1.12474e-05
1.14278e-05
1.1538e-05
1.16034e-05
1.16232e-05
1.16052e-05
1.1543e-05
1.14351e-05
1.12545e-05
1.10105e-05
1.13666e-05
1.53514e-05
1.76369e-05
1.54424e-05
1.15768e-05
1.11677e-05
1.14006e-05
1.15832e-05
1.16868e-05
1.17456e-05
1.17636e-05
1.17477e-05
1.16923e-05
1.15907e-05
1.14078e-05
1.11727e-05
1.15766e-05
1.5437e-05
1.7611e-05
1.54996e-05
1.17776e-05
1.13297e-05
1.15503e-05
1.17333e-05
1.18341e-05
1.18903e-05
1.1907e-05
1.18926e-05
1.18394e-05
1.17405e-05
1.15577e-05
1.13356e-05
1.17786e-05
1.54943e-05
1.75624e-05
1.55259e-05
1.19683e-05
1.14917e-05
1.16958e-05
1.18732e-05
1.19679e-05
1.20219e-05
1.20372e-05
1.20239e-05
1.19727e-05
1.18802e-05
1.17034e-05
1.14984e-05
1.19704e-05
1.55208e-05
1.74904e-05
1.55199e-05
1.21466e-05
1.16525e-05
1.18361e-05
1.20024e-05
1.20871e-05
1.21363e-05
1.21497e-05
1.21382e-05
1.20917e-05
1.20093e-05
1.1844e-05
1.16602e-05
1.21499e-05
1.55151e-05
1.73932e-05
1.54804e-05
1.23103e-05
1.18105e-05
1.19702e-05
1.21212e-05
1.21933e-05
1.22352e-05
1.22465e-05
1.22371e-05
1.2198e-05
1.21282e-05
1.19785e-05
1.18191e-05
1.23148e-05
1.5476e-05
1.72682e-05
1.54067e-05
1.24573e-05
1.19634e-05
1.20997e-05
1.22298e-05
1.22874e-05
1.232e-05
1.23289e-05
1.2322e-05
1.22921e-05
1.2237e-05
1.21086e-05
1.1973e-05
1.24629e-05
1.54029e-05
1.7108e-05
1.5299e-05
1.25852e-05
1.21087e-05
1.22228e-05
1.2328e-05
1.23695e-05
1.23913e-05
1.23976e-05
1.23933e-05
1.23743e-05
1.23355e-05
1.22322e-05
1.21193e-05
1.25921e-05
1.52958e-05
1.69026e-05
1.51578e-05
1.26915e-05
1.22433e-05
1.23367e-05
1.24148e-05
1.24391e-05
1.24491e-05
1.24528e-05
1.24513e-05
1.24441e-05
1.24226e-05
1.23467e-05
1.22548e-05
1.26995e-05
1.51554e-05
1.66477e-05
1.49847e-05
1.27746e-05
1.2364e-05
1.24394e-05
1.24898e-05
1.24963e-05
1.24934e-05
1.24942e-05
1.24958e-05
1.25016e-05
1.24979e-05
1.245e-05
1.23762e-05
1.27836e-05
1.49831e-05
1.6345e-05
1.47819e-05
1.28336e-05
1.24679e-05
1.25283e-05
1.25515e-05
1.25403e-05
1.25238e-05
1.25218e-05
1.25264e-05
1.25459e-05
1.25599e-05
1.25393e-05
1.24808e-05
1.28437e-05
1.47813e-05
1.73136e-11
1.30762e-11
1.05011e-11
1.16287e-11
1.18268e-11
1.19511e-11
1.19877e-11
1.20134e-11
1.20104e-11
1.20201e-11
1.20017e-11
1.19688e-11
1.18439e-11
1.16455e-11
1.05128e-11
1.30833e-11
3.19235e-11
2.26871e-11
1.81441e-11
2.04761e-11
2.09386e-11
2.14295e-11
2.15951e-11
2.17177e-11
2.17203e-11
2.17326e-11
2.16251e-11
2.14671e-11
2.09714e-11
2.05096e-11
1.81707e-11
2.26987e-11
3.47023e-10
2.37376e-10
1.90804e-10
2.1809e-10
2.23961e-10
2.3168e-10
2.34371e-10
2.36388e-10
2.36491e-10
2.36572e-10
2.3473e-10
2.32129e-10
2.24324e-10
2.18474e-10
1.91141e-10
2.37485e-10
2.38674e-09
1.65734e-09
1.34786e-09
1.53361e-09
1.57415e-09
1.62886e-09
1.64796e-09
1.66232e-09
1.66308e-09
1.66358e-09
1.65041e-09
1.63192e-09
1.57658e-09
1.53621e-09
1.35022e-09
1.65807e-09
9.76424e-09
6.92784e-09
5.71703e-09
6.46026e-09
6.62412e-09
6.84991e-09
6.92875e-09
6.98823e-09
6.99145e-09
6.99326e-09
6.93849e-09
6.86208e-09
6.63371e-09
6.4706e-09
5.72665e-09
6.93064e-09
2.84205e-08
2.06409e-08
1.73239e-08
1.94218e-08
1.98889e-08
2.05488e-08
2.07794e-08
2.09544e-08
2.09639e-08
2.09685e-08
2.08066e-08
2.05827e-08
1.99153e-08
1.94506e-08
1.73515e-08
2.06483e-08
6.53644e-08
4.85769e-08
4.15131e-08
4.6157e-08
4.72006e-08
4.87182e-08
4.92499e-08
4.96561e-08
4.9678e-08
4.96866e-08
4.93086e-08
4.87915e-08
4.72564e-08
4.6219e-08
4.15748e-08
4.85915e-08
1.26583e-07
9.61326e-08
8.36496e-08
9.2256e-08
9.42044e-08
9.7131e-08
9.81605e-08
9.89528e-08
9.89953e-08
9.90075e-08
9.82652e-08
9.7262e-08
9.43017e-08
9.23665e-08
8.3764e-08
9.61553e-08
2.15295e-07
1.66798e-07
1.47673e-07
1.61624e-07
1.64798e-07
1.69737e-07
1.71483e-07
1.72838e-07
1.7291e-07
1.72923e-07
1.71645e-07
1.69938e-07
1.64944e-07
1.61794e-07
1.47857e-07
1.66826e-07
3.31526e-07
2.61508e-07
2.35286e-07
2.55709e-07
2.60369e-07
2.67896e-07
2.70576e-07
2.72673e-07
2.72783e-07
2.72789e-07
2.70798e-07
2.68173e-07
2.6056e-07
2.55942e-07
2.3555e-07
2.61533e-07
4.72977e-07
3.79033e-07
3.46086e-07
3.73769e-07
3.80091e-07
3.90717e-07
3.9453e-07
3.97538e-07
3.97696e-07
3.97685e-07
3.94809e-07
3.91064e-07
3.80317e-07
3.74061e-07
3.46434e-07
3.79041e-07
6.36266e-07
5.16897e-07
4.78323e-07
5.13739e-07
5.21817e-07
5.35986e-07
5.41112e-07
5.4519e-07
5.45404e-07
5.45363e-07
5.41437e-07
5.36389e-07
5.22061e-07
5.14079e-07
4.78753e-07
5.16871e-07
8.17436e-07
6.72247e-07
6.29711e-07
6.73072e-07
6.82939e-07
7.01033e-07
7.07639e-07
7.12939e-07
7.13216e-07
7.1313e-07
7.07994e-07
7.01473e-07
6.83175e-07
6.73444e-07
6.30218e-07
6.72163e-07
1.00255e-06
8.39584e-07
7.97976e-07
8.49259e-07
8.60891e-07
8.83245e-07
8.91482e-07
8.98149e-07
8.98497e-07
8.98348e-07
8.91847e-07
8.83696e-07
8.61091e-07
8.49642e-07
7.9855e-07
8.39344e-07
1.20172e-06
1.01049e-06
9.81099e-07
1.03977e-06
1.05214e-06
1.07874e-06
1.0888e-06
1.09735e-06
1.09773e-06
1.09749e-06
1.08905e-06
1.07903e-06
1.05211e-06
1.04002e-06
9.81727e-07
1.01014e-06
1.41517e-06
1.19236e-06
1.17495e-06
1.23219e-06
1.24609e-06
1.27685e-06
1.28875e-06
1.29894e-06
1.29939e-06
1.29904e-06
1.28894e-06
1.27707e-06
1.24593e-06
1.23238e-06
1.17551e-06
1.19189e-06
1.64151e-06
1.38528e-06
1.37188e-06
1.43443e-06
1.44997e-06
1.48485e-06
1.49867e-06
1.51052e-06
1.51106e-06
1.51058e-06
1.4988e-06
1.485e-06
1.44969e-06
1.43455e-06
1.37245e-06
1.38467e-06
1.87881e-06
1.58821e-06
1.57757e-06
1.64668e-06
1.66387e-06
1.7028e-06
1.71861e-06
1.73212e-06
1.73278e-06
1.73214e-06
1.71867e-06
1.70285e-06
1.66344e-06
1.64674e-06
1.57814e-06
1.58745e-06
2.12491e-06
1.79994e-06
1.79204e-06
1.86792e-06
1.88669e-06
1.9294e-06
1.94717e-06
1.96228e-06
1.96309e-06
1.96225e-06
1.94715e-06
1.92933e-06
1.88609e-06
1.8679e-06
1.79261e-06
1.799e-06
2.37742e-06
2.01922e-06
2.01436e-06
2.09688e-06
2.11706e-06
2.16289e-06
2.18247e-06
2.19906e-06
2.20002e-06
2.19897e-06
2.18236e-06
2.16271e-06
2.11627e-06
2.09677e-06
2.01492e-06
2.0181e-06
2.63352e-06
2.24485e-06
2.24357e-06
2.33212e-06
2.35337e-06
2.40126e-06
2.42243e-06
2.44034e-06
2.44149e-06
2.44018e-06
2.42224e-06
2.40095e-06
2.35239e-06
2.33192e-06
2.2441e-06
2.24353e-06
2.88848e-06
2.47549e-06
2.47882e-06
2.57189e-06
2.59371e-06
2.64248e-06
2.66504e-06
2.68411e-06
2.68548e-06
2.68388e-06
2.66476e-06
2.64205e-06
2.59256e-06
2.57162e-06
2.4793e-06
2.474e-06
3.13087e-06
2.70957e-06
2.71917e-06
2.81428e-06
2.83614e-06
2.8847e-06
2.90846e-06
2.92852e-06
2.93014e-06
2.92821e-06
2.90809e-06
2.88413e-06
2.83483e-06
2.81396e-06
2.71961e-06
2.70791e-06
3.36731e-06
2.94535e-06
2.96319e-06
3.05748e-06
3.07887e-06
3.12621e-06
3.15098e-06
3.17182e-06
3.17372e-06
3.17142e-06
3.1505e-06
3.12549e-06
3.07739e-06
3.05714e-06
2.96358e-06
2.94356e-06
3.59772e-06
3.18121e-06
3.20916e-06
3.30013e-06
3.3205e-06
3.36566e-06
3.39126e-06
3.41266e-06
3.41487e-06
3.41217e-06
3.39067e-06
3.36479e-06
3.31886e-06
3.29976e-06
3.20952e-06
3.17931e-06
3.82052e-06
3.41597e-06
3.45539e-06
3.54113e-06
3.5599e-06
3.60199e-06
3.6282e-06
3.64995e-06
3.65248e-06
3.64935e-06
3.62749e-06
3.60096e-06
3.55809e-06
3.54073e-06
3.45573e-06
3.41398e-06
4.03426e-06
3.64861e-06
3.70055e-06
3.77965e-06
3.79619e-06
3.83439e-06
3.861e-06
3.88286e-06
3.88574e-06
3.88216e-06
3.86016e-06
3.8332e-06
3.79419e-06
3.77922e-06
3.70087e-06
3.64656e-06
4.23764e-06
3.87832e-06
3.94367e-06
4.01508e-06
4.0287e-06
4.06235e-06
4.08914e-06
4.11092e-06
4.11416e-06
4.11011e-06
4.08818e-06
4.06097e-06
4.02652e-06
4.01461e-06
3.94397e-06
3.87623e-06
4.42947e-06
4.10452e-06
4.18404e-06
4.24707e-06
4.25707e-06
4.28559e-06
4.31239e-06
4.3339e-06
4.33751e-06
4.33298e-06
4.31129e-06
4.28403e-06
4.25468e-06
4.24655e-06
4.18432e-06
4.10242e-06
4.60877e-06
4.32687e-06
4.42114e-06
4.47548e-06
4.48112e-06
4.50412e-06
4.53075e-06
4.55183e-06
4.55581e-06
4.5508e-06
4.52949e-06
4.50236e-06
4.47851e-06
4.47488e-06
4.42141e-06
4.32479e-06
4.77473e-06
4.54533e-06
4.65465e-06
4.70034e-06
4.7009e-06
4.71813e-06
4.74443e-06
4.76494e-06
4.7693e-06
4.7638e-06
4.743e-06
4.71615e-06
4.69804e-06
4.69965e-06
4.65491e-06
4.54328e-06
4.92673e-06
4.76012e-06
4.88441e-06
4.92186e-06
4.91663e-06
4.92799e-06
4.95383e-06
4.97369e-06
4.9784e-06
4.97242e-06
4.95221e-06
4.92578e-06
4.91349e-06
4.92106e-06
4.88466e-06
4.75813e-06
5.06435e-06
4.9718e-06
5.1104e-06
5.14037e-06
5.12865e-06
5.13422e-06
5.1595e-06
5.17864e-06
5.1837e-06
5.17725e-06
5.15768e-06
5.13176e-06
5.12521e-06
5.13944e-06
5.11065e-06
4.96989e-06
5.18738e-06
5.18132e-06
5.33278e-06
5.35633e-06
5.33746e-06
5.33746e-06
5.36211e-06
5.38051e-06
5.3859e-06
5.379e-06
5.36008e-06
5.33473e-06
5.33368e-06
5.35523e-06
5.33302e-06
5.17952e-06
5.2958e-06
5.39011e-06
5.55182e-06
5.57022e-06
5.54359e-06
5.53846e-06
5.56245e-06
5.58014e-06
5.58583e-06
5.57849e-06
5.56017e-06
5.53542e-06
5.53944e-06
5.56892e-06
5.55207e-06
5.38842e-06
5.3898e-06
5.60005e-06
5.76796e-06
5.78261e-06
5.7477e-06
5.73804e-06
5.7614e-06
5.77845e-06
5.78442e-06
5.77667e-06
5.75885e-06
5.73466e-06
5.74313e-06
5.78109e-06
5.76823e-06
5.5985e-06
5.46975e-06
5.81336e-06
5.98176e-06
5.99408e-06
5.95049e-06
5.93713e-06
5.95995e-06
5.97651e-06
5.98272e-06
5.97459e-06
5.9571e-06
5.93338e-06
5.94547e-06
5.9923e-06
5.98204e-06
5.81199e-06
5.53625e-06
6.03187e-06
6.19394e-06
6.20525e-06
6.15277e-06
6.13684e-06
6.15929e-06
6.17558e-06
6.18198e-06
6.1735e-06
6.15611e-06
6.13268e-06
6.14726e-06
6.20319e-06
6.19424e-06
6.03074e-06
5.59007e-06
6.25497e-06
6.40535e-06
6.41687e-06
6.35554e-06
6.33857e-06
6.36088e-06
6.3772e-06
6.38375e-06
6.37496e-06
6.35733e-06
6.33394e-06
6.34949e-06
6.41448e-06
6.40568e-06
6.25419e-06
5.63222e-06
6.47417e-06
6.61697e-06
6.62991e-06
6.56017e-06
6.54417e-06
6.56668e-06
6.58339e-06
6.59002e-06
6.58098e-06
6.56271e-06
6.53902e-06
6.55355e-06
6.62717e-06
6.61733e-06
6.47394e-06
5.6639e-06
6.65794e-06
6.82989e-06
6.84594e-06
6.76871e-06
6.75624e-06
6.77923e-06
6.79675e-06
6.80338e-06
6.79416e-06
6.77482e-06
6.75052e-06
6.76146e-06
6.84281e-06
6.83027e-06
6.65873e-06
5.68609e-06
6.81528e-06
7.04521e-06
7.06753e-06
6.98419e-06
6.97807e-06
7.00164e-06
7.02024e-06
7.02677e-06
7.01749e-06
6.99677e-06
6.97176e-06
6.97626e-06
7.06396e-06
7.04562e-06
6.81646e-06
5.6993e-06
6.96657e-06
7.26401e-06
7.29863e-06
7.21065e-06
7.21273e-06
7.23622e-06
7.25574e-06
7.26201e-06
7.25286e-06
7.23097e-06
7.20592e-06
7.20203e-06
7.29459e-06
7.26444e-06
6.96816e-06
5.70443e-06
7.11183e-06
7.48703e-06
7.54425e-06
7.45204e-06
7.45974e-06
7.48057e-06
7.49948e-06
7.50531e-06
7.49661e-06
7.47526e-06
7.45286e-06
7.44288e-06
7.53973e-06
7.48748e-06
7.11384e-06
5.70279e-06
7.25112e-06
7.71457e-06
7.80868e-06
7.70909e-06
7.70745e-06
7.7184e-06
7.7318e-06
7.73705e-06
7.72928e-06
7.71392e-06
7.70169e-06
7.69997e-06
7.80382e-06
7.71506e-06
7.25358e-06
5.69601e-06
7.38451e-06
7.94673e-06
8.09066e-06
7.97201e-06
7.91405e-06
7.89772e-06
7.893e-06
7.89774e-06
7.89162e-06
7.89628e-06
7.91242e-06
7.96454e-06
8.08602e-06
7.9473e-06
7.38742e-06
5.68608e-06
7.51195e-06
8.18425e-06
8.37204e-06
8.20227e-06
8.05507e-06
8.02955e-06
8.01818e-06
8.02256e-06
8.0169e-06
8.0284e-06
8.05384e-06
8.20036e-06
8.36905e-06
8.18502e-06
7.51532e-06
5.67544e-06
7.63336e-06
8.42988e-06
8.59123e-06
8.36626e-06
8.1938e-06
8.15826e-06
8.13972e-06
8.14367e-06
8.13857e-06
8.15743e-06
8.19302e-06
8.36489e-06
8.5933e-06
8.43101e-06
7.6372e-06
5.66691e-06
7.74858e-06
8.69008e-06
8.77332e-06
8.53003e-06
8.33025e-06
8.28389e-06
8.25765e-06
8.2611e-06
8.25664e-06
8.28341e-06
8.32997e-06
8.52924e-06
8.77616e-06
8.69181e-06
7.75291e-06
5.66322e-06
7.85732e-06
8.97653e-06
8.95683e-06
8.69351e-06
8.46441e-06
8.40641e-06
8.37197e-06
8.37483e-06
8.3711e-06
8.40631e-06
8.46467e-06
8.69337e-06
8.96053e-06
8.97925e-06
7.86215e-06
5.6663e-06
7.96018e-06
9.30645e-06
9.14181e-06
8.8566e-06
8.59624e-06
8.5258e-06
8.48268e-06
8.48486e-06
8.48199e-06
8.52614e-06
8.5971e-06
8.85717e-06
9.14647e-06
9.31062e-06
7.9655e-06
5.67798e-06
8.06054e-06
9.69903e-06
9.32826e-06
9.0192e-06
8.72581e-06
8.64218e-06
8.58994e-06
8.59134e-06
8.58944e-06
8.64298e-06
8.72731e-06
9.02054e-06
9.33397e-06
9.70513e-06
8.06636e-06
5.70018e-06
8.16213e-06
1.01622e-05
9.51546e-06
9.18125e-06
8.85329e-06
8.75581e-06
8.69409e-06
8.69461e-06
8.69382e-06
8.75713e-06
8.85551e-06
9.18343e-06
9.52213e-06
1.01704e-05
8.16843e-06
5.73441e-06
8.26496e-06
1.06588e-05
9.7022e-06
9.34273e-06
8.97909e-06
8.86722e-06
8.79577e-06
8.7953e-06
8.79575e-06
8.86911e-06
8.98206e-06
9.34578e-06
9.70972e-06
1.06681e-05
8.27171e-06
5.78163e-06
8.36913e-06
1.10323e-05
9.88733e-06
9.50339e-06
9.10356e-06
8.97695e-06
8.89568e-06
8.89414e-06
8.89591e-06
8.97941e-06
9.1073e-06
9.50732e-06
9.89559e-06
1.1039e-05
8.37629e-06
5.84259e-06
8.47496e-06
1.12152e-05
1.00702e-05
9.66283e-06
9.2268e-06
9.08512e-06
8.99396e-06
8.99129e-06
8.99444e-06
9.08813e-06
9.23128e-06
9.66763e-06
1.00791e-05
1.12224e-05
8.48251e-06
5.91781e-06
8.58296e-06
1.13925e-05
1.0251e-05
9.82079e-06
9.34877e-06
9.19173e-06
9.09062e-06
9.08674e-06
9.09135e-06
9.19529e-06
9.354e-06
9.82648e-06
1.02604e-05
1.14001e-05
8.59087e-06
6.00762e-06
8.69375e-06
1.15636e-05
1.04311e-05
9.97721e-06
9.46972e-06
9.29712e-06
9.1861e-06
9.18092e-06
9.1871e-06
9.30126e-06
9.47572e-06
9.98381e-06
1.04411e-05
1.15716e-05
8.70198e-06
6.11218e-06
8.80806e-06
1.17282e-05
1.06108e-05
1.01323e-05
9.5901e-06
9.40186e-06
9.28106e-06
9.27451e-06
9.28235e-06
9.4066e-06
9.59691e-06
1.01398e-05
1.06213e-05
1.17367e-05
8.81658e-06
6.23145e-06
8.92672e-06
1.18865e-05
1.07902e-05
1.02864e-05
9.71051e-06
9.50668e-06
9.37636e-06
9.36834e-06
9.37795e-06
9.51206e-06
9.71815e-06
1.02949e-05
1.08012e-05
1.18954e-05
8.9355e-06
6.3652e-06
9.05063e-06
1.20387e-05
1.09697e-05
1.04402e-05
9.83119e-06
9.61197e-06
9.47248e-06
9.46293e-06
9.47439e-06
9.618e-06
9.83971e-06
1.04498e-05
1.09813e-05
1.20479e-05
9.05963e-06
6.51316e-06
9.18074e-06
1.2185e-05
1.11497e-05
1.05961e-05
9.95846e-06
9.72466e-06
9.57582e-06
9.56485e-06
9.57824e-06
9.7316e-06
9.96811e-06
1.06069e-05
1.11619e-05
1.21945e-05
9.18991e-06
6.67547e-06
9.31802e-06
1.23257e-05
1.13308e-05
1.07567e-05
1.00951e-05
9.8479e-06
9.69093e-06
9.67844e-06
9.69385e-06
9.85574e-06
1.01059e-05
1.07685e-05
1.13436e-05
1.23355e-05
9.3273e-06
6.85299e-06
9.46345e-06
1.24611e-05
1.15137e-05
1.09231e-05
1.02428e-05
9.98357e-06
9.81972e-06
9.80567e-06
9.82317e-06
9.99233e-06
1.02547e-05
1.0936e-05
1.15271e-05
1.24711e-05
9.47281e-06
7.04728e-06
9.61804e-06
1.25908e-05
1.16981e-05
1.1096e-05
1.04029e-05
1.01336e-05
9.96442e-06
9.94881e-06
9.9684e-06
1.01433e-05
1.04159e-05
1.11099e-05
1.17122e-05
1.26008e-05
9.62742e-06
7.26019e-06
9.78277e-06
1.27139e-05
1.18842e-05
1.12753e-05
1.05762e-05
1.02994e-05
1.01266e-05
1.01096e-05
1.01311e-05
1.03099e-05
1.05901e-05
1.12898e-05
1.18986e-05
1.27238e-05
9.79211e-06
7.4935e-06
9.95855e-06
1.28291e-05
1.20687e-05
1.1459e-05
1.07616e-05
1.04802e-05
1.03058e-05
1.02875e-05
1.03107e-05
1.04915e-05
1.07763e-05
1.14739e-05
1.2083e-05
1.28389e-05
9.96778e-06
7.74887e-06
1.01461e-05
1.29357e-05
1.22488e-05
1.16443e-05
1.09575e-05
1.06747e-05
1.05006e-05
1.04812e-05
1.05059e-05
1.06865e-05
1.09728e-05
1.16591e-05
1.22627e-05
1.29453e-05
1.01551e-05
8.02777e-06
1.03458e-05
1.30332e-05
1.24198e-05
1.18271e-05
1.11616e-05
1.08811e-05
1.07097e-05
1.06896e-05
1.07154e-05
1.08933e-05
1.11771e-05
1.18414e-05
1.24331e-05
1.30424e-05
1.03546e-05
8.33133e-06
1.05576e-05
1.31213e-05
1.25788e-05
1.20021e-05
1.13696e-05
1.10961e-05
1.09303e-05
1.09098e-05
1.09362e-05
1.11084e-05
1.13851e-05
1.20158e-05
1.25913e-05
1.313e-05
1.0566e-05
8.66004e-06
1.0781e-05
1.31997e-05
1.27231e-05
1.21671e-05
1.15761e-05
1.13144e-05
1.11574e-05
1.11371e-05
1.11633e-05
1.13265e-05
1.15912e-05
1.21801e-05
1.27347e-05
1.32078e-05
1.07888e-05
9.01363e-06
1.10145e-05
1.3268e-05
1.28507e-05
1.232e-05
1.17762e-05
1.15302e-05
1.13848e-05
1.13652e-05
1.13907e-05
1.15419e-05
1.17906e-05
1.23322e-05
1.28614e-05
1.32754e-05
1.10218e-05
9.39068e-06
1.12565e-05
1.33259e-05
1.296e-05
1.24588e-05
1.19645e-05
1.17386e-05
1.1607e-05
1.15885e-05
1.16127e-05
1.17497e-05
1.19779e-05
1.24702e-05
1.29697e-05
1.33326e-05
1.12632e-05
9.78842e-06
1.15044e-05
1.33732e-05
1.30498e-05
1.25818e-05
1.21365e-05
1.19358e-05
1.18195e-05
1.18026e-05
1.18249e-05
1.19462e-05
1.21489e-05
1.25923e-05
1.30585e-05
1.3379e-05
1.15103e-05
1.02024e-05
1.1755e-05