/*--------------------------------*- C++ -*----------------------------------*\
| =========                 |                                                 |
| \\      /  F ield         | OpenFOAM: The Open Source CFD Toolbox           |
|  \\    /   O peration     | Version:  v1906                                 |
|   \\  /    A nd           | Web:      www.OpenFOAM.com                      |
|    \\/     M anipulation  |                                                 |
\*---------------------------------------------------------------------------*/
FoamFile
{
    version     2.0;
    format      ascii;
    class       volScalarField;
    location    "99.2";
    object      alphat;
}
// * * * * * * * * * * * * * * * * * * * * * * * * * * * * * * * * * * * * * //

dimensions      [1 -1 -1 0 0 0 0];


internalField   nonuniform List<scalar> 
634
(
9.29567e-09
6.37043e-09
1.08893e-08
8.83519e-09
1.6823e-08
1.19758e-08
2.09867e-08
1.5346e-08
1.83889e-07
1.37942e-07
2.4189e-07
1.6232e-07
1.29051e-06
9.94291e-07
1.70363e-06
1.1387e-06
5.40381e-06
4.28619e-06
7.1081e-06
4.78948e-06
1.6119e-05
1.31894e-05
2.10084e-05
1.43715e-05
3.79525e-05
3.20032e-05
4.87586e-05
3.40445e-05
7.50731e-05
6.4995e-05
9.47107e-05
6.77252e-05
0.000130088
0.000115038
0.000160817
0.000117946
0.00020351
0.000182843
0.000246354
0.000185294
0.000293991
0.000267081
0.000348584
0.000268543
0.000399009
0.000364968
0.000463893
0.00036521
0.000510731
0.000469702
0.000577016
0.000470228
0.000621561
0.000570506
0.000693207
0.000570225
0.000740822
0.000677758
0.000815313
0.00067628
0.000867978
0.000790679
0.000942238
0.000787633
0.00100269
0.000908699
0.00107304
0.000903546
0.00114484
0.00103142
0.00120687
0.00102342
0.00129436
0.0011585
0.00134296
0.0011467
0.00145127
0.00128977
0.00148067
0.00127295
0.00161572
0.00142519
0.00161955
0.00140186
0.00178784
0.00156487
0.0017593
0.00153322
0.0019679
0.00170913
0.00189933
0.00166685
0.00215662
0.00185872
0.00203791
0.00180244
0.002356
0.00201536
0.00217115
0.00193946
0.00257013
0.00218298
0.00229397
0.00207761
0.00280443
0.00236708
0.002405
0.00221825
0.00306537
0.00257968
0.00251374
0.00236691
0.00335134
0.0028227
0.0026461
0.00253291
0.00364958
0.00307848
0.00282784
0.00273234
0.00392741
0.00328655
0.00305651
0.00296874
0.00417112
0.00346851
0.00327871
0.0032211
0.0044163
0.00364844
0.00342525
0.00343838
0.00466177
0.00382536
0.00350077
0.00360359
0.0048534
0.00399822
0.00357122
0.00376744
0.00465819
0.00416563
0.00365743
0.00392941
0.00430972
0.00432642
0.00374005
0.0040887
0.00428594
0.00443021
0.00381257
0.00424413
0.00496391
0.00384542
0.00387902
0.00439452
0.00621875
0.00314663
0.00395022
0.00453879
0.00648645
0.0029393
0.0040452
0.00467616
0.00674247
0.00365823
0.0041378
0.0041001
0.00699373
0.00523146
0.00415994
0.00305484
0.00721759
0.00539424
0.00417199
0.00254222
0.00745565
0.00554449
0.00392019
0.0030916
0.00770397
0.0056888
0.00285276
0.00535564
0.00793214
0.00582674
0.00220343
0.00552824
0.00813609
0.00595887
0.00241272
0.00569737
0.00832926
0.006086
0.00398285
0.00587672
0.0085272
0.00620826
0.00392619
0.0060615
0.00873713
0.00632545
0.00387624
0.00624962
0.00896313
0.00643773
0.00382893
0.00644156
0.00916511
0.00654915
0.00377816
0.00663773
0.00934691
0.00666035
0.00365067
0.00683897
0.00952495
0.0067719
0.00206856
0.00704539
0.00970078
0.00688434
0.00135723
0.00725607
0.00987438
0.00699828
0.00146208
0.00746977
0.0100472
0.00711434
0.00326474
0.00768504
0.00964029
0.00723306
0.00319405
0.00790016
0.00725522
0.00735466
0.00314425
0.00811317
0.00622193
0.00747897
0.00311866
0.00833064
0.00838891
0.00760574
0.00312033
0.00855235
0.0111526
0.00773449
0.00315218
0.00877662
0.0114355
0.00786453
0.00321276
0.00900115
0.0117253
0.00799256
0.00329714
0.00922352
0.0120285
0.00811077
0.00340392
0.00944117
0.0123399
0.00821516
0.00353039
0.00965151
0.0126544
0.00830539
0.00367269
0.00985211
0.012966
0.00837986
0.00382737
0.0100408
0.0132669
0.00843982
0.00398964
0.0102167
0.0135482
0.00848645
0.00415514
0.0103771
0.0138021
0.0085231
0.00431985
0.0105221
0.0140208
0.0044338
0.00448009
0.0106522
0.0141998
0.00292492
0.00463224
0.0107683
0.0143349
0.00396323
0.00477309
0.0108713
0.014426
0.00853682
0.00489938
0.0109647
0.0144763
0.0085936
0.00500793
0.0110494
0.014496
0.00863432
0.00509628
0.0111215
0.014506
0.00866656
0.00516012
0.0111894
8.92031e-09
1.02773e-08
1.57185e-08
7.14913e-09
1.00989e-08
1.90436e-08
2.0404e-08
1.16556e-08
6.35949e-08
1.84071e-07
1.71e-07
9.74197e-08
4.36466e-07
1.24483e-06
1.20142e-06
6.5371e-07
1.88995e-06
5.11883e-06
5.12184e-06
2.71782e-06
5.89038e-06
1.51514e-05
1.5454e-05
8.18336e-06
1.45705e-05
3.56472e-05
3.65799e-05
1.96762e-05
3.03794e-05
7.07559e-05
7.25394e-05
4.00591e-05
5.55579e-05
0.000123313
0.000125986
7.17711e-05
9.16831e-05
0.000194263
0.000197748
0.000116299
0.00013945
0.000282837
0.000287024
0.000173976
0.000198708
0.000387201
0.000391951
0.000244112
0.000268648
0.00050482
0.000510251
0.000325324
0.000348075
0.000622827
0.000639977
0.000415901
0.000435934
0.000749862
0.000774711
0.000504847
0.000531565
0.000886399
0.000916917
0.000598572
0.000632697
0.00103282
0.00106957
0.00069794
0.000743833
0.00118913
0.00123306
0.00080295
0.000859715
0.00135558
0.00140783
0.000913348
0.000981708
0.00153273
0.00159309
0.00102895
0.00110964
0.0017212
0.00177856
0.00114955
0.00124298
0.00191892
0.00196462
0.00127494
0.00138143
0.0021209
0.00215477
0.00140497
0.00152465
0.0023189
0.00234858
0.00153949
0.0016722
0.00250647
0.00254562
0.00167843
0.00182359
0.002696
0.00274554
0.00182173
0.00197826
0.00288693
0.00294814
0.00196956
0.00213557
0.00307875
0.00315327
0.00212169
0.00229484
0.00327095
0.00336059
0.00227526
0.00245532
0.00346302
0.00356978
0.00242629
0.00261622
0.00365448
0.00378046
0.00257296
0.00277687
0.00384485
0.00399223
0.00270548
0.00293656
0.00403369
0.00420466
0.00283533
0.00309453
0.00422059
0.00441734
0.00296209
0.00325008
0.00440516
0.00462984
0.00308541
0.0034025
0.00458705
0.00484177
0.00320507
0.00355115
0.00476596
0.0050527
0.00332092
0.0036954
0.0049416
0.00526223
0.00343289
0.00383454
0.0051138
0.00546999
0.003541
0.00396764
0.00528243
0.00567558
0.00364527
0.00409355
0.00544736
0.00587868
0.00374579
0.00421089
0.00560816
0.00607898
0.00384275
0.00432018
0.00576387
0.0062762
0.00393654
0.00442171
0.00591314
0.00647017
0.004028
0.004515
0.00605447
0.00666081
0.00411769
0.00459915
0.00618622
0.00684814
0.00420536
0.00467311
0.00630752
0.00703231
0.00429034
0.00473584
0.00641819
0.00721312
0.00437237
0.00478648
0.00652655
0.00738988
0.00445143
0.00482442
0.00663303
0.00756141
0.00452739
0.0047983
0.00673879
0.00772576
0.00459986
0.00470466
0.00684517
0.00788633
0.00466814
0.00455997
0.00695166
0.0080452
0.0047312
0.00426826
0.00705586
0.0082021
0.00478773
0.00392365
0.00715553
0.00835616
0.00483628
0.00381227
0.007249
0.00850557
0.00487537
0.00411641
0.00733554
0.00864665
0.00490364
0.00457652
0.00740598
0.00877398
0.00492006
0.00455111
0.00745837
0.00888506
0.00492394
0.00445671
0.00749007
0.00899072
0.00491433
0.00435861
0.00749903
0.0090924
0.00489404
0.00426271
0.00748338
0.00918773
0.00486399
0.00417279
0.0074414
0.00927451
0.00482366
0.00409076
0.00737142
0.00935225
0.00477311
0.00401767
0.00727239
0.00942098
0.00471266
0.00395388
0.00714345
0.00948113
0.0046427
0.00389899
0.00698459
0.00953258
0.00456384
0.00385067
0.00679709
0.00957532
0.00447636
0.00380492
0.00658344
0.00960901
0.00438053
0.00375762
0.00634713
0.0096329
0.00427638
0.00370414
0.00609295
0.00964566
0.00416345
0.00363934
0.00582728
0.00964597
0.00404044
0.00355771
0.0055588
0.00963297
0.00390525
0.00345348
0.00529928
0.00960623
0.00375582
0.00332997
0.00506214
0.00956568
0.00358824
0.00318992
0.00485431
0.00951177
0.00339874
0.00303014
0.00467501
0.00944556
0.0031874
0.00284845
0.00452139
0.00936887
0.0029601
0.00264384
0.0043894
0.00928458
0.00272756
0.00241855
0.00427521
)
;

boundaryField
{
    leftWall
    {
        type            compressible::alphatWallFunction;
        Prt             0.85;
        value           uniform 0;
    }
    rightWall
    {
        type            compressible::alphatWallFunction;
        Prt             0.85;
        value           nonuniform 0();
    }
    leftSides_periodic0
    {
        type            cyclic;
    }
    leftSides_periodic1
    {
        type            cyclic;
    }
    rightSides_periodic0
    {
        type            cyclic;
    }
    rightSides_periodic1
    {
        type            cyclic;
    }
    leftInOut_periodic0
    {
        type            cyclic;
    }
    leftInOut_periodic1
    {
        type            cyclic;
    }
    rightInOut_periodic0
    {
        type            cyclic;
    }
    rightInOut_periodic1
    {
        type            cyclic;
    }
    procBoundary2to0
    {
        type            processor;
        value           nonuniform List<scalar> 
316
(
9.36363e-10
3.87048e-09
3.69733e-09
3.80485e-09
3.61992e-09
9.71859e-09
1.36248e-08
8.16728e-09
5.67526e-08
1.3328e-07
2.11222e-07
1.02418e-07
4.18936e-07
9.70054e-07
1.52876e-06
7.38282e-07
1.83846e-06
4.19386e-06
6.50989e-06
3.17769e-06
5.82524e-06
1.30039e-05
1.97672e-05
9.82367e-06
1.47385e-05
3.19902e-05
4.73622e-05
2.41405e-05
3.15222e-05
6.6215e-05
9.51102e-05
5.00373e-05
5.9083e-05
0.000119846
0.000166723
9.0934e-05
9.95433e-05
0.000195015
0.000262867
0.000148939
0.000153708
0.000291487
0.000381519
0.000224489
0.00022097
0.000407249
0.000519099
0.000316525
0.000299634
0.000539265
0.000653089
0.000422998
0.000386073
0.000684196
0.000795826
0.000541403
0.00046616
0.000828441
0.000945765
0.000669169
0.000552016
0.000972249
0.0011023
0.000793649
0.000641834
0.00112158
0.00126536
0.000919372
0.000734849
0.00127612
0.0014346
0.00104971
0.000830633
0.00143492
0.00160955
0.00118396
0.000927938
0.0015972
0.00178961
0.00132121
0.00102279
0.00176235
0.00197446
0.00146074
0.0011093
0.00192994
0.00216421
0.00160192
0.00118631
0.0020998
0.00235916
0.00174425
0.00126817
0.00227182
0.00255861
0.0018874
0.00138179
0.00244506
0.00276092
0.00203123
0.00153539
0.00261881
0.00296426
0.00217576
0.00170497
0.0027935
0.00316568
0.00232108
0.00186088
0.00296895
0.00336409
0.00246621
0.00197731
0.00314452
0.00356393
0.00261015
0.00207555
0.00331919
0.00377625
0.00275439
0.0021692
0.00349164
0.00401307
0.00289922
0.00225653
0.00366048
0.00427453
0.00304421
0.00233736
0.00382431
0.00453595
0.00318863
0.00241298
0.00398171
0.00475
0.00333185
0.00218726
0.00413077
0.00487869
0.00347331
0.0018443
0.00426847
0.00494185
0.00361196
0.00185531
0.00439059
0.00503254
0.00374557
0.00218152
0.00449321
0.00527337
0.00387056
0.00265857
0.00457553
0.00573914
0.00398207
0.00281314
0.00464379
0.00635668
0.00407269
0.00285806
0.00471422
0.00683076
0.00413221
0.00289734
0.00480525
0.00702884
0.00415062
0.00293085
0.00492262
0.00721332
0.0041278
0.00295929
0.00506205
0.00738143
0.00408975
0.0029829
0.00522517
0.00753157
0.00408253
0.00219852
0.0054224
0.00766695
0.00413385
0.00193005
0.00566536
0.00750988
0.00424561
0.00225488
0.00596695
0.00609857
0.00441301
0.00298286
0.00635203
0.0053868
0.00460979
0.00311478
0.006793
0.00573019
0.00476069
0.00315627
0.00718451
0.00700551
0.00474112
0.00321354
0.00744612
0.00840135
0.00470676
0.00328847
0.00759873
0.00846251
0.0046586
0.00338007
0.00774201
0.0085006
0.00459754
0.00348398
0.00787464
0.00851761
0.00452446
0.00359473
0.0079981
0.00851335
0.00444021
0.00370842
0.00720332
0.00848715
0.00434544
0.00382087
0.00620742
0.0075044
0.00424082
0.00392714
0.00582395
0.00501468
0.00412712
0.00402263
0.00629525
0.00410718
0.00400548
0.00410471
0.00743913
0.00459781
0.00387277
0.00417274
0.00853393
0.00648035
0.00372817
0.0029749
0.00880175
0.00822794
0.00357183
0.0022023
0.00885201
0.00821411
0.00340468
0.00220936
0.00888131
0.00819989
0.00322852
0.00283239
0.00889322
0.00818378
0.00304605
0.00389968
0.00888872
0.00816534
0.00286343
0.00414124
0.0088662
0.00814457
0.00269186
0.00405273
0.00882492
0.00812196
0.00254592
0.00394365
0.00876474
0.00809872
0.00243918
0.00381411
0.00868599
0.00807727
0.0023819
0.00366601
0.00858948
0.00806158
0.00238022
0.00350265
0.00847568
0.00805606
0.0024318
0.00332848
0.00834448
0.00805016
0.00256741
0.00314945
0.00821046
0.00803581
0.0027597
0.00297133
0.00807642
0.00801762
0.00300692
0.00280085
0.00792764
0.00799988
0.00329778
0.00265582
0.00776559
0.00798901
0.00362319
0.00255091
0.00759425
0.00798947
0.00397272
)
;
    }
    procBoundary2to0throughleftSides_periodic1
    {
        type            processorCyclic;
        value           nonuniform List<scalar> 
314
(
1.35053e-08
3.25911e-08
4.18257e-07
2.89873e-06
1.17469e-05
3.37265e-05
7.64572e-05
0.000146083
0.00024555
0.00037433
0.000529462
0.000689935
0.000861053
0.00104822
0.00125056
0.001467
0.00169643
0.00193759
0.00218928
0.00245058
0.00272066
0.00299871
0.00328385
0.00357512
0.00387156
0.00417183
0.00447398
0.00477566
0.0050743
0.00535744
0.00562283
0.00588469
0.00614272
0.00639675
0.00664692
0.00689358
0.00713692
0.0073764
0.00761099
0.00783948
0.00806081
0.00827419
0.00847662
0.00866498
0.00883831
0.00899586
0.00913653
0.00925794
0.00935991
0.00944424
0.00922461
0.00521952
0.00388533
0.00482214
0.0080488
0.0102587
0.0104344
0.0106014
0.0107602
0.010913
0.0110634
0.0112166
0.0113803
0.0115639
0.0117758
0.012018
0.0122877
0.0125821
0.0128986
0.0132338
0.0135834
0.0139424
0.0143044
0.0146567
0.0149876
0.0152766
0.0155244
0.0157227
0.0158777
1.82949e-08
2.40721e-08
1.54487e-07
1.01896e-06
4.27989e-06
1.3013e-05
3.14558e-05
6.40888e-05
0.000114461
0.000184366
0.000273714
0.000380995
0.000503974
0.000626057
0.000759678
0.000903994
0.00105814
0.00122217
0.00139654
0.00158164
0.00177719
0.00198201
0.00219393
0.00241035
0.00262929
0.00284951
0.00306948
0.00328691
0.00349994
0.00370671
0.00391268
0.00411743
0.0043205
0.00452157
0.0047204
0.0049168
0.00511064
0.0053018
0.00549013
0.00567538
0.00585702
0.00603441
0.00620739
0.00637633
0.00654077
0.00669923
0.00684923
0.00698711
0.00710547
0.00711498
0.00496871
0.00336633
0.00381634
0.00604777
0.00806648
0.00823975
0.00840527
0.00856971
0.00873436
0.00890001
0.00906586
0.0092304
0.00939223
0.00955007
0.00970281
0.00984942
0.00998892
0.0101204
0.010243
0.0103563
0.0104602
0.0105547
0.0106405
0.0107182
0.010775
0.0108085
0.0108336
0.01085
0.0108566
9.43407e-09
2.08422e-08
2.55808e-07
1.79675e-06
7.47636e-06
2.21699e-05
5.19616e-05
0.000102441
0.000177047
0.00027632
0.000398304
0.00053627
0.000671663
0.000819104
0.000976219
0.00113997
0.00130914
0.00148353
0.00166337
0.00184972
0.00204454
0.00224893
0.0024586
0.00265941
0.00282995
0.00295989
0.00306719
0.00319994
0.00341669
0.00374198
0.00412094
0.00446332
0.00473736
0.00497215
0.00520725
0.00544324
0.0056411
0.00583436
0.00602198
0.00620272
0.00637539
0.00653886
0.00669243
0.00683614
0.00697007
0.00709435
0.0072095
0.00731631
0.00741583
0.00750846
0.00759423
0.007669
0.00773046
0.0077784
0.00781461
0.0078412
0.00786172
0.00787765
0.00720516
0.00342073
0.00316151
0.00497409
0.00795199
0.00797274
0.00800995
0.0080597
0.00812154
0.00819641
0.0082865
0.00839533
0.00851046
0.0086193
0.00872168
0.00881607
0.00889977
0.00896953
0.00902231
0.00905575
2.2331e-08
3.21286e-08
2.37337e-07
1.55832e-06
6.37782e-06
1.87865e-05
4.38876e-05
8.64302e-05
0.000149521
0.000234028
0.000338804
0.000461425
0.000589961
0.000723687
0.000866574
0.00101831
0.0011789
0.00134828
0.00152608
0.00171174
0.00190459
0.00210388
0.00230886
0.00251902
0.00273414
0.00295409
0.0031785
0.00340731
0.00363865
0.00386853
0.00409192
0.00430539
0.00450413
0.00469597
0.00488324
0.00506538
0.00524189
0.00541239
0.00557663
0.00573459
0.00588648
0.00603272
0.00617384
0.0063103
0.00644152
0.00656869
0.00669195
0.00681163
0.00692771
0.00703982
0.00714866
0.00725644
0.00736521
0.00747762
0.00759602
0.00772268
0.0078596
0.00800822
0.00816932
0.00834343
0.00852549
0.00871321
0.00890547
0.00910056
0.0092962
0.00949092
0.00968344
0.0098709
0.0100493
0.0102215
0.0103174
0.00536727
0.00350706
0.00536303
0.00994223
0.0115576
0.0117414
0.0119036
)
;
    }
    procBoundary2to1throughleftSides_periodic1
    {
        type            processorCyclic;
        value           nonuniform List<scalar> 2(0.00907391 0.0120498);
    }
    procBoundary2to1throughrightSides_periodic1
    {
        type            processorCyclic;
        value           nonuniform List<scalar> 2(0.0159837 0.0108538);
    }
    procBoundary2to3
    {
        type            processor;
        value           nonuniform List<scalar> 
11
(
0.0145096
0.00870294
0.00520325
0.00559674
0.00919706
0.00251262
0.0145096
0.00870294
0.00217873
0.00919706
0.00417447
)
;
    }
    procBoundary2to3throughrightInOut_periodic1
    {
        type            processorCyclic;
        value           uniform 0.00251262;
    }
}


// ************************************************************************* //
