/*--------------------------------*- C++ -*----------------------------------*\
| =========                 |                                                 |
| \\      /  F ield         | OpenFOAM: The Open Source CFD Toolbox           |
|  \\    /   O peration     | Version:  v1906                                 |
|   \\  /    A nd           | Web:      www.OpenFOAM.com                      |
|    \\/     M anipulation  |                                                 |
\*---------------------------------------------------------------------------*/
FoamFile
{
    version     2.0;
    format      ascii;
    class       volVectorField;
    location    "99.2";
    object      U;
}
// * * * * * * * * * * * * * * * * * * * * * * * * * * * * * * * * * * * * * //

dimensions      [0 1 -1 0 0 0 0];


internalField   nonuniform List<vector> 
634
(
(-0.000303195 -2.47657e-05 -0.00742809)
(0.00171925 1.77842e-05 -0.00580476)
(0.000274247 -5.0007e-06 -0.0080669)
(-0.00168019 2.0856e-05 -0.00687267)
(-0.000695312 -5.03823e-05 -0.0192842)
(0.00274497 4.59762e-05 -0.0151478)
(0.000609446 -1.14739e-05 -0.0211847)
(-0.00262371 4.55899e-05 -0.0180226)
(-0.000905113 -9.64628e-05 -0.0301737)
(0.00203141 9.24766e-05 -0.0240701)
(0.000760949 -2.6218e-05 -0.03325)
(-0.00183244 0.000101667 -0.0285125)
(-0.00107282 -0.000139087 -0.0415841)
(0.00123223 0.00014299 -0.0337536)
(0.000867589 -4.08384e-05 -0.0457938)
(-0.000972587 0.000152599 -0.0395836)
(-0.00124821 -0.000172147 -0.0533733)
(0.000810659 0.000193933 -0.0439881)
(0.000977943 -5.60151e-05 -0.0586943)
(-0.000508935 0.000207639 -0.0510168)
(-0.00141309 -0.00020243 -0.0650681)
(0.000492754 0.00024827 -0.0543442)
(0.00107306 -7.08994e-05 -0.0714457)
(-0.00017875 0.000264931 -0.0623687)
(-0.00156115 -0.000228539 -0.0764618)
(0.000171995 0.0003046 -0.0646111)
(0.00114646 -8.56701e-05 -0.0838119)
(0.000116482 0.000323974 -0.0734442)
(-0.00169077 -0.000250919 -0.0874341)
(-0.000188437 0.00036276 -0.0746453)
(0.00119692 -0.000100203 -0.0956524)
(0.000410086 0.000384456 -0.084134)
(-0.00180217 -0.00026945 -0.0979017)
(-0.000594884 0.000422741 -0.0843383)
(0.00122558 -0.000115665 -0.106875)
(0.000710018 0.00044638 -0.0943687)
(-0.00189654 -0.000285254 -0.107806)
(-0.00103924 0.000483949 -0.0936097)
(0.00123515 -0.000132273 -0.117429)
(0.00101402 0.000509267 -0.104101)
(-0.00197615 -0.000298209 -0.117121)
(-0.00149961 0.000546986 -0.102414)
(0.00122918 -0.000150224 -0.127305)
(0.00130947 0.000573886 -0.113309)
(-0.00204363 -0.000307642 -0.125858)
(-0.00195103 0.000610565 -0.110746)
(0.00121099 -0.000169506 -0.136549)
(0.00157991 0.000639121 -0.121999)
(-0.00210135 -0.000313265 -0.134074)
(-0.00238046 0.000673769 -0.11865)
(0.00118311 -0.000189471 -0.145231)
(0.00181648 0.000704105 -0.130221)
(-0.00215117 -0.000315261 -0.141817)
(-0.00278474 0.000737938 -0.126167)
(0.00114723 -0.000211079 -0.153396)
(0.00201792 0.000769969 -0.138023)
(-0.00219396 -0.000315431 -0.149109)
(-0.00316806 0.00080272 -0.133309)
(0.00110459 -0.000234433 -0.161072)
(0.00218946 0.000836403 -0.145427)
(-0.00223052 -0.00031348 -0.155971)
(-0.00353202 0.000868244 -0.14009)
(0.00105655 -0.000259384 -0.168291)
(0.0023346 0.000903706 -0.152451)
(-0.00226189 -0.000309237 -0.162431)
(-0.00387299 0.000934235 -0.146529)
(0.00100445 -0.000286149 -0.175083)
(0.00245235 0.000971606 -0.159117)
(-0.00228896 -0.000303284 -0.168513)
(-0.00418828 0.00100042 -0.152643)
(0.00094945 -0.000314702 -0.181479)
(0.00254188 0.00103988 -0.165446)
(-0.00231246 -0.000295695 -0.174241)
(-0.00447566 0.00106692 -0.158447)
(0.000892516 -0.000345053 -0.187506)
(0.00260263 0.00110868 -0.171457)
(-0.00233298 -0.000286772 -0.179637)
(-0.00473341 0.00113355 -0.163958)
(0.000834467 -0.000377236 -0.193189)
(0.00263438 0.0011779 -0.177168)
(-0.00235102 -0.000276821 -0.184725)
(-0.00496023 0.00120022 -0.169192)
(0.000775965 -0.000411251 -0.198552)
(0.00263725 0.00124749 -0.182598)
(-0.00236696 -0.000266158 -0.189525)
(-0.00515507 0.00126682 -0.174163)
(0.000717548 -0.000447093 -0.203617)
(0.00261157 0.00131741 -0.187762)
(-0.00238109 -0.000255022 -0.194056)
(-0.00531716 0.00133324 -0.178882)
(0.000659681 -0.000484782 -0.208403)
(0.00255776 0.00138765 -0.192675)
(-0.0023936 -0.000243606 -0.198337)
(-0.00544619 0.00139944 -0.183363)
(0.000602867 -0.000524388 -0.212929)
(0.0024759 0.00145813 -0.197352)
(-0.00240453 -0.000231937 -0.202384)
(-0.00554269 0.00146528 -0.187615)
(0.000547757 -0.000565946 -0.217217)
(0.00236556 0.00152877 -0.201805)
(-0.00241373 -0.000219873 -0.206209)
(-0.00561009 0.00153017 -0.191642)
(0.000495156 -0.000609032 -0.221294)
(0.00222606 0.0015995 -0.20605)
(-0.00242087 -0.000207559 -0.209815)
(-0.0056575 0.00159387 -0.195444)
(0.00044571 -0.000652596 -0.225192)
(0.00205778 0.00166997 -0.210098)
(-0.00242561 -0.000196025 -0.213204)
(-0.00569751 0.00165759 -0.199008)
(0.000399383 -0.000695585 -0.228928)
(0.00186545 0.00173946 -0.213955)
(-0.00242792 -0.000187157 -0.216379)
(-0.00573754 0.00172287 -0.202321)
(0.000355144 -0.00073808 -0.232488)
(0.00166151 0.0018078 -0.217617)
(-0.00242825 -0.000178841 -0.219354)
(-0.00577113 0.00178885 -0.205393)
(0.000311382 -0.000782456 -0.235824)
(0.00146395 0.0018764 -0.221062)
(-0.00242716 -0.000170335 -0.22216)
(-0.00577982 0.00185383 -0.208264)
(0.000267356 -0.000834077 -0.238887)
(0.00128627 0.0019472 -0.224266)
(-0.00242512 -0.000163093 -0.22483)
(-0.00574258 0.00191589 -0.210988)
(0.00022479 -0.000890407 -0.241681)
(0.00112594 0.00202006 -0.22723)
(-0.00242237 -0.000143921 -0.227388)
(-0.00564782 0.00197496 -0.213603)
(0.000186161 -0.000943313 -0.244281)
(0.000963185 0.00209259 -0.229991)
(-0.00241857 -0.00013508 -0.229851)
(-0.00549781 0.00203359 -0.216131)
(0.000152594 -0.000990838 -0.24678)
(0.00077333 0.00216161 -0.232608)
(-0.00241657 -0.000165332 -0.232263)
(-0.00530243 0.00209266 -0.218577)
(0.000124271 -0.0010363 -0.249204)
(0.000542586 0.00222657 -0.235124)
(-0.00242319 -0.000183443 -0.234748)
(-0.00507418 0.00214608 -0.220937)
(0.000100326 -0.00108544 -0.251535)
(0.000271417 0.00229067 -0.237557)
(-0.0024401 -0.000132542 -0.237499)
(-0.00482526 0.00220338 -0.223208)
(8.03864e-05 -0.00113656 -0.253773)
(-3.22016e-05 0.00235753 -0.239905)
(-0.00245959 -3.33207e-05 -0.240546)
(-0.00450275 0.00229142 -0.225431)
(6.49225e-05 -0.00118635 -0.255928)
(-0.000358895 0.00242823 -0.242162)
(-0.00246653 -4.07831e-06 -0.243456)
(-0.00392709 0.00238207 -0.227826)
(5.3399e-05 -0.00123534 -0.258006)
(-0.000698797 0.00249761 -0.244329)
(-0.00245078 -0.000107133 -0.24578)
(-0.00296604 0.0024063 -0.230764)
(4.39638e-05 -0.00128261 -0.260012)
(-0.00103438 0.00255197 -0.246404)
(-0.0024202 -0.000216192 -0.247684)
(-0.00170775 0.00236121 -0.234384)
(3.42612e-05 -0.00132728 -0.26194)
(-0.00136427 0.00264339 -0.248382)
(-0.00238838 -0.000246293 -0.249542)
(-0.000594537 0.00237884 -0.237858)
(2.37829e-05 -0.00136765 -0.263777)
(-0.00189699 0.00277889 -0.250481)
(-0.00236299 -0.000226152 -0.251489)
(-7.1732e-05 0.00253505 -0.240138)
(1.54433e-05 -0.00139647 -0.265506)
(-0.00288393 0.00283542 -0.253202)
(-0.00234441 -0.000232824 -0.253463)
(9.87928e-05 0.00267169 -0.24165)
(1.30814e-05 -0.00142712 -0.267098)
(-0.0043133 0.00276169 -0.25699)
(-0.00232976 -0.000284216 -0.255407)
(0.000317466 0.00271844 -0.243153)
(3.24898e-05 -0.00148455 -0.268684)
(-0.0058068 0.00271421 -0.261092)
(-0.00231573 -0.00034259 -0.257316)
(0.000729872 0.00272149 -0.244855)
(9.14757e-05 -0.00152963 -0.27071)
(-0.00650314 0.00291791 -0.263466)
(-0.00229883 -0.000400327 -0.259196)
(0.00124252 0.00274922 -0.246596)
(0.000179389 -0.00147214 -0.273593)
(-0.00657636 0.00312531 -0.264593)
(-0.00227742 -0.000459978 -0.261055)
(0.00176233 0.00280281 -0.248289)
(0.000276412 -0.0013714 -0.276916)
(-0.00662072 0.00319549 -0.26567)
(-0.00225225 -0.000522903 -0.262897)
(0.00228036 0.00285159 -0.249935)
(0.00034747 -0.00145072 -0.279007)
(-0.00687175 0.0031992 -0.267031)
(-0.00222463 -0.000590118 -0.264724)
(0.00279974 0.00289754 -0.25154)
(0.000378863 -0.00156583 -0.279957)
(-0.00723902 0.00323038 -0.268468)
(-0.00219491 -0.000661422 -0.266532)
(0.0033212 0.00294194 -0.253104)
(0.000395776 -0.00156213 -0.280875)
(-0.0076025 0.00329814 -0.269834)
(-0.00216278 -0.000736135 -0.268318)
(0.00384348 0.00298581 -0.254627)
(0.000429963 -0.00152214 -0.282053)
(-0.00794424 0.00336355 -0.27112)
(-0.00212787 -0.000814132 -0.270079)
(0.0043647 0.0030295 -0.256107)
(0.000473055 -0.00150414 -0.283152)
(-0.00826756 0.00342585 -0.272333)
(-0.00208988 -0.000897307 -0.271808)
(0.004883 0.00307303 -0.257541)
(0.000537219 -0.00153882 -0.284259)
(-0.00857401 0.00348731 -0.273473)
(-0.00204843 -0.000987142 -0.273501)
(0.0053964 0.0031164 -0.258927)
(0.000650975 -0.00159631 -0.286146)
(-0.0088642 0.00354891 -0.27454)
(-0.00200305 -0.00107976 -0.275146)
(0.00590187 0.00315965 -0.260261)
(0.000805563 -0.00148791 -0.289547)
(-0.00913734 0.00361176 -0.275535)
(-0.00195302 -0.00113702 -0.276726)
(0.00639577 0.00320243 -0.261542)
(0.00100635 -0.00129803 -0.294052)
(-0.00939179 0.00367627 -0.276457)
(-0.00189726 -0.00127024 -0.278208)
(0.00687491 0.00324324 -0.262773)
(0.00118033 -0.00137413 -0.296422)
(-0.00962635 0.00374144 -0.277307)
(-0.00184872 -0.00152007 -0.279727)
(0.00733967 0.00328071 -0.263956)
(0.00127823 -0.00150076 -0.296842)
(-0.00984308 0.00380574 -0.278085)
(-0.00182004 -0.00158301 -0.281726)
(0.00779625 0.00331602 -0.265099)
(0.00133027 -0.00145109 -0.297145)
(-0.0100489 0.00386978 -0.278787)
(-0.00178652 -0.00141635 -0.284498)
(0.00825053 0.00335151 -0.266206)
(0.00139207 -0.0013811 -0.297879)
(-0.0102499 0.00393571 -0.279412)
(-0.00173711 -0.00135653 -0.287294)
(0.00870147 0.00338725 -0.26728)
(0.00146267 -0.00135847 -0.298672)
(-0.0104464 0.0040035 -0.279954)
(-0.00167368 -0.00176571 -0.288542)
(0.00913864 0.00342149 -0.268319)
(0.00152309 -0.0013244 -0.299349)
(-0.0106306 0.00407068 -0.280409)
(-0.00159745 -0.0021285 -0.289056)
(0.0095499 0.00345271 -0.269322)
(0.0015738 -0.00129239 -0.299943)
(-0.0107932 0.00413561 -0.280775)
(-0.00152562 -0.00219696 -0.289721)
(0.00993025 0.003481 -0.27029)
(0.00161469 -0.00125499 -0.300459)
(-0.0109312 0.00419841 -0.281049)
(-0.00146381 -0.00222066 -0.29053)
(0.0102819 0.00350716 -0.271225)
(0.00164556 -0.00121302 -0.300904)
(-0.0110483 0.00425979 -0.281228)
(-0.00140339 -0.00235651 -0.291247)
(0.0106064 0.00353169 -0.272126)
(0.00166628 -0.00116655 -0.301285)
(-0.0111479 0.00431965 -0.281312)
(-0.00133998 -0.00252655 -0.291821)
(0.010901 0.00355678 -0.272992)
(0.00167691 -0.00111557 -0.30161)
(-0.0112301 0.00437742 -0.281297)
(-0.00127432 -0.0026865 -0.292265)
(0.0111609 0.00358093 -0.273813)
(0.00167766 -0.0010602 -0.301889)
(-0.0112948 0.00443241 -0.281185)
(-0.0012069 -0.00285093 -0.292584)
(0.0113786 0.00360329 -0.27457)
(0.00166904 -0.00100049 -0.302133)
(-0.0113419 0.00448388 -0.280975)
(-0.00113792 -0.00301758 -0.292782)
(0.0115364 0.00359825 -0.275185)
(0.00165198 -0.000936555 -0.302354)
(-0.0113714 0.00453108 -0.280671)
(-0.00106782 -0.00318692 -0.292862)
(0.0117287 0.00368042 -0.275947)
(0.00162875 -0.000868603 -0.302561)
(-0.0113835 0.00457306 -0.280277)
(-0.000997595 -0.00336057 -0.292822)
(0.012138 0.00383224 -0.277922)
(0.00160188 -0.000795706 -0.302764)
(-0.0113777 0.00460901 -0.279801)
(-0.0009253 -0.0035426 -0.292662)
(0.0128099 0.00362466 -0.281967)
(0.00156769 -0.000716488 -0.302969)
(-0.0113529 0.004638 -0.279249)
(-0.000847704 -0.00373664 -0.29238)
(0.0136528 0.00332221 -0.287388)
(0.00152342 -0.000639408 -0.30318)
(-0.0113068 0.0046539 -0.278628)
(-0.000763707 -0.00393084 -0.291972)
(0.0139119 0.00361766 -0.288935)
(0.0014693 -0.000546173 -0.30339)
(-0.0112353 0.004683 -0.277914)
(-0.000675765 -0.00412963 -0.291436)
(0.0137916 0.0038347 -0.288422)
(0.00140891 -0.000447613 -0.303603)
(-0.0111721 0.00478814 -0.2773)
(-0.00058492 -0.00430415 -0.290765)
(0.0136211 0.00376284 -0.288101)
(0.00134208 -0.000350491 -0.303821)
(-0.0111626 0.00486165 -0.277321)
(-0.000492759 -0.00445138 -0.289892)
(0.0134845 0.00367961 -0.288238)
(0.00126811 -0.000203999 -0.303986)
(-0.0111137 0.00460323 -0.277579)
(0.000193604 1.07614e-06 -0.00933447)
(-0.000286446 -3.14288e-06 -0.00637866)
(-0.000245296 -4.18615e-06 -0.00953099)
(0.000174524 -5.50383e-06 -0.00516968)
(0.00031022 6.77496e-06 -0.0226667)
(-0.000608033 2.75702e-07 -0.0193545)
(-0.00045974 -1.01055e-05 -0.0251364)
(0.000277305 -6.44251e-06 -0.0158124)
(0.000311751 1.69345e-05 -0.0323277)
(-0.000732597 -2.34634e-06 -0.0327825)
(-0.000554284 -1.51611e-05 -0.0388207)
(0.000188464 -1.24364e-05 -0.0270517)
(0.000348972 3.38115e-05 -0.0415281)
(-0.000832495 7.705e-06 -0.0459952)
(-0.000678728 -2.22488e-05 -0.0521312)
(8.26757e-05 -7.52085e-06 -0.0381514)
(0.000437264 5.22062e-05 -0.051096)
(-0.000963734 1.50161e-05 -0.0585755)
(-0.000847476 -2.61245e-05 -0.0651848)
(1.80756e-05 -4.20332e-06 -0.0486729)
(0.000544454 7.29359e-05 -0.0605035)
(-0.00109806 2.47773e-05 -0.0705535)
(-0.0010284 -3.10309e-05 -0.0776634)
(-3.12558e-05 5.99091e-07 -0.0586887)
(0.000657577 9.54069e-05 -0.0695839)
(-0.00122334 3.55552e-05 -0.0819571)
(-0.00120839 -3.68086e-05 -0.0894853)
(-7.54077e-05 5.97361e-06 -0.0682649)
(0.000771185 0.000119272 -0.0782764)
(-0.00133383 4.69257e-05 -0.0927841)
(-0.00138151 -4.38049e-05 -0.100629)
(-0.000118486 1.13579e-05 -0.0774356)
(0.000882701 0.000144419 -0.0865547)
(-0.0014264 5.88619e-05 -0.103015)
(-0.00154442 -5.18242e-05 -0.111083)
(-0.00016255 1.67492e-05 -0.0862143)
(0.000990623 0.000170611 -0.0944028)
(-0.00149916 7.11128e-05 -0.112625)
(-0.00169503 -6.05316e-05 -0.120835)
(-0.000209069 2.21008e-05 -0.0945999)
(0.00109393 0.000197789 -0.101811)
(-0.0015511 8.39471e-05 -0.121597)
(-0.00183245 -6.99764e-05 -0.129886)
(-0.000259336 2.72807e-05 -0.102583)
(0.00119212 0.000225418 -0.108781)
(-0.00158203 9.72041e-05 -0.129932)
(-0.00195707 -7.9745e-05 -0.138259)
(-0.000314499 3.24636e-05 -0.110156)
(0.0012854 0.000253473 -0.115332)
(-0.00159242 0.000110814 -0.137652)
(-0.00206994 -8.98028e-05 -0.146)
(-0.000375498 3.7472e-05 -0.117314)
(0.00137436 0.000281449 -0.121492)
(-0.00158269 0.000124641 -0.144798)
(-0.00217179 -0.000100245 -0.15317)
(-0.000442985 4.21702e-05 -0.124062)
(0.00145884 0.000308772 -0.127293)
(-0.00155269 0.000138227 -0.15143)
(-0.00226243 -0.000110717 -0.15982)
(-0.00051768 4.64245e-05 -0.130421)
(0.00153752 0.000335899 -0.132742)
(-0.00150206 0.000151832 -0.157592)
(-0.00234152 -0.000121515 -0.165983)
(-0.000600577 4.99395e-05 -0.136427)
(0.00160876 0.000362415 -0.137833)
(-0.00143055 0.000165325 -0.163316)
(-0.00240918 -0.000132422 -0.171698)
(-0.000692721 5.29465e-05 -0.142101)
(0.00167171 0.000388163 -0.14257)
(-0.00133856 0.000178566 -0.168633)
(-0.00246574 -0.000143241 -0.176999)
(-0.000794997 5.54264e-05 -0.14746)
(0.00172614 0.000413075 -0.146968)
(-0.00122707 0.000191411 -0.173575)
(-0.00251153 -0.000154044 -0.181917)
(-0.000907747 5.73045e-05 -0.152521)
(0.00177224 0.000436831 -0.151047)
(-0.00109743 0.000203979 -0.178168)
(-0.00254711 -0.000164631 -0.186481)
(-0.00103078 5.85696e-05 -0.157299)
(0.00181052 0.00045938 -0.154833)
(-0.000951581 0.000216304 -0.182438)
(-0.00257343 -0.000174814 -0.190727)
(-0.0011636 5.91773e-05 -0.161809)
(0.00184176 0.000480629 -0.158353)
(-0.000791872 0.000227949 -0.186409)
(-0.0025916 -0.00018444 -0.19469)
(-0.00130544 5.914e-05 -0.166069)
(0.00186688 0.000500486 -0.161638)
(-0.000620102 0.000238741 -0.190114)
(-0.00260265 -0.000193453 -0.198405)
(-0.00145529 5.84662e-05 -0.170091)
(0.00188687 0.000518903 -0.164716)
(-0.000437478 0.000248588 -0.193589)
(-0.00260746 -0.000201857 -0.201902)
(-0.00161189 5.71663e-05 -0.173892)
(0.00190264 0.000535808 -0.167615)
(-0.00024512 0.000257704 -0.196862)
(-0.00260693 -0.000209375 -0.205205)
(-0.00177376 5.52604e-05 -0.177485)
(0.00191498 0.000551125 -0.170359)
(-4.43761e-05 0.00026633 -0.199955)
(-0.00260184 -0.000215751 -0.20834)
(-0.00193926 5.27306e-05 -0.180883)
(0.00192455 0.000564806 -0.172968)
(0.000163037 0.00027431 -0.202886)
(-0.00259259 -0.000220858 -0.211325)
(-0.00210657 4.98213e-05 -0.184098)
(0.00193186 0.000576865 -0.175461)
(0.000375301 0.000281657 -0.205671)
(-0.0025792 -0.000224614 -0.214172)
(-0.00227358 4.65135e-05 -0.187142)
(0.00193735 0.000587406 -0.177853)
(0.000590639 0.000288536 -0.208322)
(-0.00256167 -0.000227163 -0.216889)
(-0.00243815 4.25168e-05 -0.190026)
(0.00194156 0.000596507 -0.180158)
(0.000807275 0.000295119 -0.210851)
(-0.00254014 -0.000228431 -0.219485)
(-0.00259867 3.78692e-05 -0.192767)
(0.00194497 0.000604074 -0.18239)
(0.00102342 0.000301548 -0.21327)
(-0.00251486 -0.000228092 -0.221971)
(-0.00275378 3.25737e-05 -0.195381)
(0.00194782 0.000610139 -0.184559)
(0.00123733 0.000307914 -0.215585)
(-0.00248611 -0.00022611 -0.224355)
(-0.00290199 2.70628e-05 -0.19788)
(0.00195004 0.000614932 -0.186669)
(0.00144731 0.000314276 -0.217806)
(-0.00245419 -0.000222686 -0.226646)
(-0.00304156 2.16657e-05 -0.200275)
(0.00195155 0.000618371 -0.18872)
(0.0016518 0.000320636 -0.21994)
(-0.00241941 -0.000217784 -0.228853)
(-0.00317043 1.62423e-05 -0.202572)
(0.00195239 0.000620503 -0.190717)
(0.00184938 0.000326951 -0.221992)
(-0.00238205 -0.000211345 -0.23098)
(-0.0032865 1.08295e-05 -0.204778)
(0.00195269 0.000621438 -0.192663)
(0.00203876 0.000333213 -0.223969)
(-0.0023424 -0.000203443 -0.233033)
(-0.00338784 5.47959e-06 -0.206898)
(0.00195256 0.000620511 -0.194561)
(0.00221877 0.000339514 -0.225875)
(-0.00230073 -0.000194076 -0.235016)
(-0.00347266 2.02083e-07 -0.208936)
(0.00195204 0.00061707 -0.196413)
(0.00238831 0.000345896 -0.227716)
(-0.00225734 -0.000183336 -0.236935)
(-0.0035393 -5.00434e-06 -0.210896)
(0.00195102 0.000611553 -0.198228)
(0.00254598 0.00035215 -0.229497)
(-0.00221249 -0.000171294 -0.238792)
(-0.00358633 -1.00996e-05 -0.21278)
(0.00194941 0.000604682 -0.200016)
(0.00269008 0.000357594 -0.231221)
(-0.00216644 -0.000157983 -0.240591)
(-0.00361257 -1.49779e-05 -0.214592)
(0.00194724 0.000596552 -0.201784)
(0.00282025 0.000360904 -0.232894)
(-0.00211945 -0.000143467 -0.242335)
(-0.00361705 -1.94206e-05 -0.216333)
(0.00194457 0.000587267 -0.203537)
(0.00293955 0.000361432 -0.234527)
(-0.00207172 -0.00012779 -0.244026)
(-0.00359876 -2.37143e-05 -0.218005)
(0.00194145 0.000577167 -0.205278)
(0.0030515 0.000360133 -0.236129)
(-0.00202352 -0.000111 -0.245666)
(-0.00355572 -2.84273e-05 -0.219608)
(0.00193784 0.000566398 -0.207007)
(0.00315617 0.000359001 -0.237708)
(-0.0019751 -9.30852e-05 -0.247257)
(-0.00348714 -3.54145e-05 -0.221146)
(0.00193372 0.000554929 -0.208725)
(0.00325269 0.000358655 -0.239267)
(-0.00192676 -7.39046e-05 -0.248798)
(-0.00339955 -4.60479e-05 -0.222628)
(0.00192908 0.000542983 -0.210434)
(0.00334048 0.000358385 -0.240811)
(-0.00187883 -5.40773e-05 -0.250291)
(-0.00330382 -5.96088e-05 -0.224074)
(0.00192384 0.000530444 -0.212136)
(0.00341867 0.000358046 -0.242345)
(-0.00183156 -3.53653e-05 -0.251731)
(-0.00320328 -7.28142e-05 -0.22549)
(0.00191781 0.000515094 -0.213838)
(0.00348615 0.000358199 -0.24387)
(-0.00178473 -1.89439e-05 -0.253125)
(-0.003099 -8.42389e-05 -0.226878)
(0.00191055 0.00049638 -0.215554)
(0.00354232 0.000356699 -0.245382)
(-0.00173765 -3.63591e-06 -0.254482)
(-0.00299286 -9.42687e-05 -0.228238)
(0.0019015 0.000479402 -0.217302)
(0.0035867 0.000350774 -0.246881)
(-0.00169019 1.24316e-05 -0.255808)
(-0.00288708 -0.000103924 -0.229569)
(0.00189071 0.00046975 -0.219091)
(0.00361703 0.000343957 -0.248371)
(-0.00164231 3.01141e-05 -0.257103)
(-0.00278329 -0.000113626 -0.23087)
(0.00187976 0.000455918 -0.220923)
(0.0036302 0.000343099 -0.249855)
(-0.00159376 4.91022e-05 -0.258364)
(-0.00268225 -0.0001231 -0.232137)
(0.00187193 0.00043715 -0.222784)
(0.00363443 0.000347156 -0.251329)
(-0.00154451 6.91541e-05 -0.25959)
(-0.00258435 -0.000132326 -0.233369)
(0.00187527 0.000430892 -0.224711)
(0.00363984 0.000353705 -0.25278)
(-0.00149487 9.07066e-05 -0.260779)
(-0.00249016 -0.000141613 -0.234565)
(0.0019016 0.000425869 -0.22679)
(0.00364636 0.000360557 -0.254203)
(-0.00144542 0.000112633 -0.261926)
(-0.00240016 -0.000151022 -0.235723)
(0.0019481 0.000406461 -0.229005)
(0.00365001 0.000368042 -0.255592)
(-0.00139667 0.000130201 -0.263031)
(-0.00231444 -0.00016071 -0.236842)
(0.0019888 0.000398069 -0.231103)
(0.00364839 0.000375787 -0.256946)
(-0.00134802 0.000140465 -0.264104)
(-0.00223274 -0.000170882 -0.237923)
(0.0020127 0.000402295 -0.232866)
(0.00364103 0.000382805 -0.258264)
(-0.00129783 0.000146769 -0.265178)
(-0.00215452 -0.000181688 -0.238963)
(0.00203752 0.000392274 -0.234447)
(0.00362756 0.00038988 -0.259548)
(-0.00124583 0.000153374 -0.26627)
(-0.00207927 -0.000193206 -0.239963)
(0.00207002 0.000379396 -0.235988)
(0.00360759 0.000397016 -0.260801)
(-0.00119238 0.000161427 -0.267373)
(-0.00200676 -0.000205517 -0.240921)
(0.0021043 0.000364298 -0.237435)
(0.00358069 0.000404028 -0.262022)
(-0.00113801 0.000175645 -0.268465)
(-0.00193709 -0.000218779 -0.241836)
(0.00213704 0.000342336 -0.238763)
(0.00354635 0.000410852 -0.263214)
(-0.00108313 0.000197215 -0.269516)
(-0.00187057 -0.000233129 -0.242706)
(0.00216743 0.000322162 -0.240004)
(0.00350399 0.000417413 -0.264377)
(-0.00102779 0.00022265 -0.270519)
(-0.00180778 -0.000248635 -0.243529)
(0.00219579 0.000299512 -0.241174)
(0.00345302 0.000423602 -0.265513)
(-0.000971994 0.000249043 -0.271481)
(-0.0017497 -0.000265387 -0.244303)
(0.00222227 0.000275251 -0.242279)
(0.00339268 0.000429307 -0.266621)
(-0.000915875 0.000275627 -0.272407)
(-0.00169754 -0.00028348 -0.245024)
(0.00224689 0.000251063 -0.24332)
(0.00332196 0.00043441 -0.267702)
(-0.00085964 0.000303001 -0.273294)
(-0.00165276 -0.000302971 -0.24569)
(0.00226996 0.000226374 -0.2443)
(0.00323951 0.000438791 -0.268753)
(-0.00080363 0.000330614 -0.274141)
(-0.00161716 -0.000323729 -0.246296)
(0.00229204 0.000200537 -0.245224)
(0.00314361 0.000442322 -0.269774)
(-0.000748314 0.000358433 -0.274947)
(-0.00159287 -0.000345465 -0.246839)
(0.00231394 0.000173666 -0.2461)
(0.00303211 0.000444865 -0.270757)
(-0.000694284 0.000386508 -0.27571)
(-0.00158241 -0.000368703 -0.247315)
(0.00233664 0.000145748 -0.246937)
(0.00290246 0.000446343 -0.271697)
(-0.000642249 0.00041473 -0.276429)
(-0.00158873 -0.00039563 -0.247722)
(0.00236122 0.000116773 -0.247745)
(0.00275181 0.000447072 -0.272583)
(-0.000593015 0.000442905 -0.277103)
(-0.00161555 -0.000423885 -0.248062)
(0.00238877 8.66724e-05 -0.248537)
(0.002577 0.000447493 -0.273401)
(-0.000547314 0.00047097 -0.277732)
(-0.00167056 -0.000454343 -0.248324)
(0.00242003 5.53653e-05 -0.249322)
(0.00237281 0.000445979 -0.274128)
(-0.000505569 0.000498527 -0.278317)
(-0.00176273 -0.000493393 -0.248489)
(0.00245516 2.25469e-05 -0.250111)
(0.00213443 0.000434593 -0.274735)
(-0.000467785 0.000525292 -0.278858)
(-0.00188777 -0.000550789 -0.248616)
(0.00249348 -1.18001e-05 -0.250911)
(0.00187098 0.000408756 -0.275241)
(-0.000433624 0.000558033 -0.279357)
(-0.00202736 -0.00060742 -0.248876)
(0.00253337 -4.32316e-05 -0.251726)
(0.00160958 0.000379365 -0.275749)
(-0.00040254 0.000583216 -0.279816)
(-0.00218309 -0.000672172 -0.24935)
(0.00257334 -8.09932e-05 -0.25256)
(0.00136199 0.000343681 -0.276285)
(-0.000374407 0.000605416 -0.280239)
(-0.0023581 -0.000749654 -0.250046)
(0.00261076 -0.000122331 -0.253413)
(0.00113584 0.00030731 -0.276846)
(-0.00034861 0.000632778 -0.280632)
(-0.00255455 -0.000824594 -0.250943)
(0.00264113 -0.000166351 -0.254264)
(0.000935676 0.000273507 -0.277404)
(-0.000323079 0.00063865 -0.280978)
(-0.00277289 -0.00093585 -0.251988)
(0.00265246 -0.00022308 -0.25504)
(0.000762548 0.000230842 -0.277901)
)
;

boundaryField
{
    leftWall
    {
        type            noSlip;
    }
    rightWall
    {
        type            noSlip;
    }
    leftSides_periodic0
    {
        type            cyclic;
    }
    leftSides_periodic1
    {
        type            cyclic;
    }
    rightSides_periodic0
    {
        type            cyclic;
    }
    rightSides_periodic1
    {
        type            cyclic;
    }
    leftInOut_periodic0
    {
        type            cyclic;
    }
    leftInOut_periodic1
    {
        type            cyclic;
    }
    rightInOut_periodic0
    {
        type            cyclic;
    }
    rightInOut_periodic1
    {
        type            cyclic;
    }
    procBoundary2to0
    {
        type            processor;
        value           nonuniform List<vector> 
316
(
(-4.68517e-05 1.41292e-05 0.0012594)
(-7.45049e-05 -3.85055e-06 -0.00470206)
(8.22933e-05 9.80432e-06 -0.00331951)
(0.000241196 -2.52424e-06 -0.00475702)
(1.62269e-05 3.38054e-05 -0.00185258)
(-1.94141e-05 -1.37955e-05 -0.01404)
(8.8349e-05 2.10441e-05 -0.0133184)
(0.000511999 -1.23919e-05 -0.0141127)
(0.000136039 5.7551e-05 -0.00863075)
(-2.96939e-05 -2.78697e-05 -0.0227715)
(3.61484e-05 3.7774e-05 -0.0248636)
(0.000841467 -2.58927e-05 -0.0227008)
(0.000226349 8.18588e-05 -0.0157361)
(-0.000134029 -4.93922e-05 -0.031416)
(1.12285e-05 5.20025e-05 -0.0362548)
(0.00125609 -4.96872e-05 -0.0311244)
(0.000280862 0.000100329 -0.0222428)
(-0.000262403 -6.9275e-05 -0.0402135)
(1.87985e-05 6.30243e-05 -0.0471946)
(0.0016838 -7.2393e-05 -0.0396661)
(0.000318068 0.000119061 -0.0286457)
(-0.000389451 -9.06859e-05 -0.0490359)
(3.94881e-05 7.33721e-05 -0.0579125)
(0.0020972 -9.76792e-05 -0.0481863)
(0.000345196 0.000137574 -0.0351182)
(-0.000506119 -0.000112557 -0.057803)
(6.50141e-05 8.30034e-05 -0.0684542)
(0.0024854 -0.000124383 -0.0566064)
(0.000365097 0.000156035 -0.0416862)
(-0.000609885 -0.000134497 -0.0664297)
(9.14361e-05 9.22921e-05 -0.0787728)
(0.00284439 -0.000152033 -0.0648561)
(0.000379052 0.000174489 -0.0483192)
(-0.000701005 -0.000156461 -0.0748294)
(0.000116599 0.000101016 -0.088787)
(0.00317301 -0.000180482 -0.0728738)
(0.000387846 0.000192931 -0.0549665)
(-0.000781331 -0.00017839 -0.0829208)
(0.000139315 0.00010944 -0.0984113)
(0.00347151 -0.000209579 -0.0806051)
(0.000392099 0.000211323 -0.0615705)
(-0.000853859 -0.000200149 -0.0906405)
(0.000159073 0.000117103 -0.10758)
(0.00374131 -0.000239269 -0.0880055)
(0.000392318 0.000229972 -0.0680755)
(-0.000922175 -0.000221794 -0.0979525)
(0.000175942 0.000124103 -0.116259)
(0.00398491 -0.000269374 -0.0950462)
(0.000388941 0.000248749 -0.0744356)
(-0.000989829 -0.000243269 -0.104851)
(0.000190621 0.000130509 -0.124439)
(0.00420562 -0.000299988 -0.101717)
(0.000382278 0.000268033 -0.0806162)
(-0.00106079 -0.000264048 -0.11135)
(0.000203939 0.000135556 -0.132145)
(0.00440714 -0.000330978 -0.108024)
(0.000372196 0.000288175 -0.0865841)
(-0.00113887 -0.000283756 -0.117496)
(0.000216023 0.000139702 -0.139425)
(0.00459377 -0.000361713 -0.113988)
(0.000358202 0.000308488 -0.09231)
(-0.00122592 -0.000302425 -0.123342)
(0.000226265 0.000143132 -0.146325)
(0.00476986 -0.000392023 -0.119649)
(0.00034015 0.000329339 -0.0977911)
(-0.00132264 -0.000320369 -0.128921)
(0.00023406 0.000145956 -0.152875)
(0.0049377 -0.000421985 -0.125048)
(0.000318562 0.000351361 -0.103037)
(-0.00142987 -0.000337651 -0.134252)
(0.000239171 0.000148191 -0.159101)
(0.00509863 -0.000451937 -0.130208)
(0.000294072 0.000375032 -0.108056)
(-0.00154826 -0.000354029 -0.139354)
(0.000241531 0.000149598 -0.165023)
(0.0052543 -0.000481811 -0.135142)
(0.000266935 0.000400235 -0.112858)
(-0.00167802 -0.00036945 -0.144246)
(0.000241089 0.000150125 -0.170665)
(0.00540595 -0.000511307 -0.139868)
(0.000237405 0.000426294 -0.117461)
(-0.00181897 -0.000383902 -0.148944)
(0.000237816 0.000149747 -0.176045)
(0.00555442 -0.000540469 -0.144402)
(0.000206271 0.000452957 -0.121903)
(-0.00197058 -0.000397384 -0.153464)
(0.000231721 0.000148453 -0.18118)
(0.00570021 -0.000569261 -0.148756)
(0.000174926 0.000480082 -0.126231)
(-0.00213199 -0.000409916 -0.157817)
(0.000222878 0.000146207 -0.186086)
(0.00584345 -0.000597654 -0.152944)
(0.000144783 0.000511593 -0.130466)
(-0.00230207 -0.000421439 -0.162015)
(0.000211425 0.000142939 -0.190776)
(0.00598397 -0.000625616 -0.156976)
(0.000115384 0.000548593 -0.134536)
(-0.00247959 -0.000431852 -0.166068)
(0.000197525 0.000138518 -0.195263)
(0.0061213 -0.000653139 -0.160863)
(8.38275e-05 0.000586013 -0.138312)
(-0.00266323 -0.000441143 -0.169986)
(0.000181295 0.000132725 -0.199564)
(0.00625479 -0.000680259 -0.164613)
(4.75733e-05 0.000621935 -0.141763)
(-0.00285162 -0.000449428 -0.173778)
(0.000162747 0.000125311 -0.203694)
(0.00638366 -0.000706946 -0.168232)
(7.2789e-06 0.000657074 -0.144947)
(-0.0030434 -0.00045689 -0.177451)
(0.000141759 0.000116105 -0.207673)
(0.00650707 -0.000733154 -0.171727)
(-3.44175e-05 0.000694792 -0.147949)
(-0.00323716 -0.000463677 -0.181013)
(0.000118171 0.000105264 -0.211513)
(0.00662398 -0.000758898 -0.175104)
(-7.61198e-05 0.000736105 -0.150835)
(-0.00343142 -0.000469916 -0.18447)
(9.20579e-05 9.32411e-05 -0.215218)
(0.00673307 -0.000784265 -0.178368)
(-0.000118337 0.000785847 -0.1536)
(-0.00362465 -0.000475733 -0.187831)
(6.40341e-05 8.02328e-05 -0.218778)
(0.00683288 -0.000809408 -0.181523)
(-0.000164508 0.000842226 -0.15615)
(-0.00381537 -0.000481244 -0.191104)
(3.5267e-05 6.59193e-05 -0.222179)
(0.00692196 -0.000834429 -0.184573)
(-0.000219902 0.000889985 -0.158414)
(-0.00400225 -0.000486627 -0.194296)
(6.91685e-06 4.93601e-05 -0.225421)
(0.00699888 -0.000859462 -0.187521)
(-0.000284318 0.000920491 -0.160587)
(-0.00418404 -0.000492134 -0.197416)
(-2.07892e-05 2.91899e-05 -0.228534)
(0.00706212 -0.000884728 -0.190373)
(-0.000344783 0.000941474 -0.163147)
(-0.00435933 -0.000497918 -0.200472)
(-4.91763e-05 4.91557e-06 -0.231575)
(0.00710987 -0.000910399 -0.193133)
(-0.000382516 0.000996401 -0.166483)
(-0.0045266 -0.000503826 -0.203472)
(-8.07528e-05 -2.19749e-05 -0.234603)
(0.00714012 -0.000936478 -0.195807)
(-0.000399067 0.00108864 -0.170215)
(-0.0046845 -0.000509416 -0.206427)
(-0.000117507 -4.84771e-05 -0.237637)
(0.00715111 -0.000962852 -0.198398)
(-0.000418482 0.00116884 -0.17351)
(-0.00483227 -0.000514157 -0.209347)
(-0.000158512 -6.96982e-05 -0.240617)
(0.00714189 -0.00098948 -0.200914)
(-0.000456458 0.00122403 -0.176142)
(-0.00496889 -0.00051773 -0.212244)
(-0.000199011 -8.99808e-05 -0.243425)
(0.00711225 -0.00101646 -0.203363)
(-0.00050923 0.00126412 -0.178313)