0 	0 	0 	0
5.01672e-05 	-2.26153e-05 	-4.5554e-06 	0.0203591
0.000100334 	-4.52305e-05 	-9.11079e-06 	0.0407182
0.000150502 	-6.78458e-05 	-1.36662e-05 	0.0610773
0.000200669 	-9.04611e-05 	-1.82216e-05 	0.0814365
0.000250836 	-0.000113076 	-2.2777e-05 	0.101796
0.000301003 	-0.000135692 	-2.73324e-05 	0.122155
0.000351171 	-0.000156208 	-3.26037e-05 	0.140402
0.000401338 	-0.000168789 	-4.05825e-05 	0.150663
0.000451505 	-0.00018137 	-4.85612e-05 	0.160925
0.000501672 	-0.000193951 	-5.65399e-05 	0.171186
0.000551839 	-0.000206532 	-6.45187e-05 	0.181447
0.000602007 	-0.000219113 	-7.24974e-05 	0.191708
0.000652174 	-0.000231694 	-8.04761e-05 	0.20197
0.000702341 	-0.000244275 	-8.84549e-05 	0.212231
0.000752508 	-0.000254058 	-9.66563e-05 	0.221065
0.000802676 	-0.000256902 	-0.00010541 	0.226359
0.000852843 	-0.000259745 	-0.000114164 	0.231654
0.00090301 	-0.000262589 	-0.000122917 	0.236948
0.000953177 	-0.000265433 	-0.000131671 	0.242242
0.00100334 	-0.000268277 	-0.000140424 	0.247537
0.00105351 	-0.000271121 	-0.000149178 	0.252831
0.00110368 	-0.000273965 	-0.000157932 	0.258125
0.00115385 	-0.000276809 	-0.000166685 	0.26342
0.00120401 	-0.000279451 	-0.000175396 	0.268608
0.00125418 	-0.000277965 	-0.000183223 	0.271629
0.00130435 	-0.000276479 	-0.00019105 	0.27465
0.00135452 	-0.000274993 	-0.000198877 	0.277671
0.00140468 	-0.000273506 	-0.000206704 	0.280692
0.00145485 	-0.00027202 	-0.000214531 	0.283713
0.00150502 	-0.000270534 	-0.000222358 	0.286734
0.00155518 	-0.000269048 	-0.000230185 	0.289755
0.00160535 	-0.000267561 	-0.000238011 	0.292776
0.00165552 	-0.000266075 	-0.000245838 	0.295797
0.00170569 	-0.000264589 	-0.000253665 	0.298818
0.00175585 	-0.000262847 	-0.000261081 	0.301549
0.00180602 	-0.000260401 	-0.000267367 	0.303485
0.00185619 	-0.000257956 	-0.000273652 	0.30542
0.00190635 	-0.00025551 	-0.000279938 	0.307356
0.00195652 	-0.000253065 	-0.000286223 	0.309291
0.00200669 	-0.00025062 	-0.000292509 	0.311227
0.00205686 	-0.000248174 	-0.000298794 	0.313162
0.00210702 	-0.000245729 	-0.00030508 	0.315098
0.00215719 	-0.000243283 	-0.000311365 	0.317033
0.00220736 	-0.000240838 	-0.000317651 	0.318969
0.00225753 	-0.000238392 	-0.000323936 	0.320904
0.00230769 	-0.000235947 	-0.000330222 	0.32284
0.00235786 	-0.000233501 	-0.000336507 	0.324775
0.00240803 	-0.000231303 	-0.000341616 	0.326277
0.00245819 	-0.000229215 	-0.000346201 	0.327584
0.00250836 	-0.000227127 	-0.000350786 	0.328892
0.00255853 	-0.00022504 	-0.000355371 	0.3302
0.0026087 	-0.000222952 	-0.000359955 	0.331508
0.00265886 	-0.000220864 	-0.00036454 	0.332815
0.00270903 	-0.000218776 	-0.000369125 	0.334123
0.0027592 	-0.000216689 	-0.000373709 	0.335431
0.00280936 	-0.000214601 	-0.000378294 	0.336739
0.00285953 	-0.000212513 	-0.000382879 	0.338046
0.0029097 	-0.000210425 	-0.000387464 	0.339354
0.00295987 	-0.000208337 	-0.000392048 	0.340662
0.00301003 	-0.00020625 	-0.000396633 	0.341969
0.0030602 	-0.000204162 	-0.000401218 	0.343277
0.00311037 	-0.000202088 	-0.000405772 	0.344575
0.00316054 	-0.000200631 	-0.000409004 	0.345453
0.0032107 	-0.000199174 	-0.000412236 	0.346331
0.00326087 	-0.000197718 	-0.000415468 	0.347209
0.00331104 	-0.000196261 	-0.0004187 	0.348086
0.0033612 	-0.000194804 	-0.000421932 	0.348964
0.00341137 	-0.000193347 	-0.000425165 	0.349842
0.00346154 	-0.00019189 	-0.000428397 	0.35072
0.00351171 	-0.000190433 	-0.000431629 	0.351597
0.00356187 	-0.000188976 	-0.000434861 	0.352475
0.00361204 	-0.00018752 	-0.000438093 	0.353353
0.00366221 	-0.000186063 	-0.000441325 	0.354231
0.00371237 	-0.000184606 	-0.000444557 	0.355109
0.00376254 	-0.000183149 	-0.00044779 	0.355986
0.00381271 	-0.000181692 	-0.000451022 	0.356864
0.00386288 	-0.000180235 	-0.000454254 	0.357742
0.00391304 	-0.000178778 	-0.000457486 	0.35862
0.00396321 	-0.000177321 	-0.000460718 	0.359497
0.00401338 	-0.000176274 	-0.000463104 	0.360076
0.00406355 	-0.000175267 	-0.000465407 	0.360626
0.00411371 	-0.00017426 	-0.000467711 	0.361176
0.00416388 	-0.000173252 	-0.000470014 	0.361725
0.00421405 	-0.000172245 	-0.000472317 	0.362275
0.00426421 	-0.000171238 	-0.00047462 	0.362824
0.00431438 	-0.000170231 	-0.000476924 	0.363374
0.00436455 	-0.000169223 	-0.000479227 	0.363924
0.00441472 	-0.000168216 	-0.00048153 	0.364473
0.00446488 	-0.000167209 	-0.000483833 	0.365023
0.00451505 	-0.000166202 	-0.000486136 	0.365573
0.00456522 	-0.000165195 	-0.00048844 	0.366122
0.00461538 	-0.000164187 	-0.000490743 	0.366672
0.00466555 	-0.00016318 	-0.000493046 	0.367221
0.00471572 	-0.000162173 	-0.000495349 	0.367771
0.00476589 	-0.000161166 	-0.000497652 	0.368321
0.00481605 	-0.000160158 	-0.000499956 	0.36887
0.00486622 	-0.000159151 	-0.000502259 	0.36942
0.00491639 	-0.000158144 	-0.000504562 	0.36997
0.00496656 	-0.000157137 	-0.000506865 	0.370519
0.00501672 	-0.000156338 	-0.000508446 	0.370819
0.00506689 	-0.000155551 	-0.000509988 	0.371105
0.00511706 	-0.000154764 	-0.000511531 	0.371392
0.00516722 	-0.000153976 	-0.000513073 	0.371678
0.00521739 	-0.000153189 	-0.000514615 	0.371964
0.00526756 	-0.000152402 	-0.000516157 	0.372251
0.00531773 	-0.000151614 	-0.000517699 	0.372537
0.00536789 	-0.000150827 	-0.000519241 	0.372823
0.00541806 	-0.00015004 	-0.000520784 	0.37311
0.00546823 	-0.000149252 	-0.000522326 	0.373396
0.00551839 	-0.000148465 	-0.000523868 	0.373683
0.00556856 	-0.000147678 	-0.00052541 	0.373969
0.00561873 	-0.00014689 	-0.000526952 	0.374255
0.0056689 	-0.000146103 	-0.000528494 	0.374542
0.00571906 	-0.000145316 	-0.000530037 	0.374828
0.00576923 	-0.000144528 	-0.000531579 	0.375114
0.0058194 	-0.000143741 	-0.000533121 	0.375401
0.00586957 	-0.000142954 	-0.000534663 	0.375687
0.00591973 	-0.000142166 	-0.000536205 	0.375973
0.0059699 	-0.000141379 	-0.000537747 	0.37626
0.00602007 	-0.000140592 	-0.00053929 	0.376546
0.00607023 	-0.000139804 	-0.000540832 	0.376833
0.0061204 	-0.000139017 	-0.000542374 	0.377119
0.00617057 	-0.000138328 	-0.000543397 	0.377259
0.00622074 	-0.000137688 	-0.000544157 	0.377325
0.0062709 	-0.000137048 	-0.000544917 	0.377391
0.00632107 	-0.000136408 	-0.000545677 	0.377457
0.00637124 	-0.000135769 	-0.000546437 	0.377523
0.0064214 	-0.000135129 	-0.000547197 	0.377589
0.00647157 	-0.000134489 	-0.000547957 	0.377654
0.00652174 	-0.00013385 	-0.000548717 	0.37772
0.00657191 	-0.00013321 	-0.000549477 	0.377786
0.00662207 	-0.00013257 	-0.000550237 	0.377852
0.00667224 	-0.00013193 	-0.000550997 	0.377918
0.00672241 	-0.000131291 	-0.000551757 	0.377984
0.00677258 	-0.000130651 	-0.000552517 	0.37805
0.00682274 	-0.000130011 	-0.000553277 	0.378116
0.00687291 	-0.000129371 	-0.000554037 	0.378182
0.00692308 	-0.000128732 	-0.000554797 	0.378248
0.00697324 	-0.000128092 	-0.000555557 	0.378313
0.00702341 	-0.000127452 	-0.000556317 	0.378379
0.00707358 	-0.000126812 	-0.000557077 	0.378445
0.00712375 	-0.000126173 	-0.000557837 	0.378511
0.00717391 	-0.000125533 	-0.000558596 	0.378577
0.00722408 	-0.000124893 	-0.000559356 	0.378643
0.00727425 	-0.000124253 	-0.000560116 	0.378709
0.00732441 	-0.000123614 	-0.000560876 	0.378775
0.00737458 	-0.000122974 	-0.000561636 	0.378841
0.00742475 	-0.000122334 	-0.000562396 	0.378907
0.00747492 	-0.000121695 	-0.000563156 	0.378973
0.00752508 	-0.000121113 	-0.000563528 	0.378939
0.00757525 	-0.000120588 	-0.000563511 	0.378807
0.00762542 	-0.000120064 	-0.000563494 	0.378674
0.00767559 	-0.00011954 	-0.000563477 	0.378542
0.00772575 	-0.000119016 	-0.000563459 	0.378409
0.00777592 	-0.000118492 	-0.000563442 	0.378277
0.00782609 	-0.000117968 	-0.000563425 	0.378144
0.00787625 	-0.000117444 	-0.000563408 	0.378012
0.00792642 	-0.00011692 	-0.000563391 	0.37788
0.00797659 	-0.000116395 	-0.000563374 	0.377747
0.00802676 	-0.000115871 	-0.000563357 	0.377615
0.00807692 	-0.000115347 	-0.00056334 	0.377482
0.00812709 	-0.000114823 	-0.000563323 	0.37735
0.00817726 	-0.000114299 	-0.000563306 	0.377217
0.00822742 	-0.000113775 	-0.000563289 	0.377085
0.00827759 	-0.000113251 	-0.000563272 	0.376952
0.00832776 	-0.000112727 	-0.000563255 	0.37682
0.00837793 	-0.000112202 	-0.000563238 	0.376687
0.00842809 	-0.000111678 	-0.000563221 	0.376555
0.00847826 	-0.000111154 	-0.000563203 	0.376422
0.00852843 	-0.00011063 	-0.000563186 	0.37629
0.0085786 	-0.000110106 	-0.000563169 	0.376157
0.00862876 	-0.000109582 	-0.000563152 	0.376025
0.00867893 	-0.000109058 	-0.000563135 	0.375892
0.0087291 	-0.000108534 	-0.000563118 	0.37576
0.00877926 	-0.000108009 	-0.000563101 	0.375628
0.00882943 	-0.000107485 	-0.000563084 	0.375495
0.0088796 	-0.000107016 	-0.000562747 	0.375282
0.00892977 	-0.000106653 	-0.000561778 	0.374909
0.00897993 	-0.000106291 	-0.00056081 	0.374536
0.0090301 	-0.000105928 	-0.000559842 	0.374163
0.00908027 	-0.000105566 	-0.000558873 	0.37379
0.00913043 	-0.000105203 	-0.000557905 	0.373417
0.0091806 	-0.000104841 	-0.000556937 	0.373044
0.00923077 	-0.000104478 	-0.000555968 	0.372672
0.00928094 	-0.000104116 	-0.000555 	0.372299
0.0093311 	-0.000103753 	-0.000554032 	0.371926
0.00938127 	-0.000103391 	-0.000553063 	0.371553
0.00943144 	-0.000103029 	-0.000552095 	0.37118
0.00948161 	-0.000102666 	-0.000551127 	0.370807
0.00953177 	-0.000102304 	-0.000550158 	0.370434
0.00958194 	-0.000101941 	-0.00054919 	0.370061
0.00963211 	-0.000101579 	-0.000548222 	0.369689
0.00968227 	-0.000101216 	-0.000547253 	0.369316
0.00973244 	-0.000100854 	-0.000546285 	0.368943
0.00978261 	-0.000100491 	-0.000545317 	0.36857
0.00983278 	-0.000100129 	-0.000544348 	0.368197
0.00988294 	-9.97663e-05 	-0.00054338 	0.367824
0.00993311 	-9.94038e-05 	-0.000542412 	0.367451
0.00998328 	-9.90414e-05 	-0.000541443 	0.367078
0.0100334 	-9.86968e-05 	-0.000540419 	0.366691
0.0100836 	-9.86861e-05 	-0.000538346 	0.366034
0.0101338 	-9.86755e-05 	-0.000536273 	0.365377
0.0101839 	-9.86648e-05 	-0.000534199 	0.36472
0.0102341 	-9.86542e-05 	-0.000532126 	0.364063
0.0102843 	-9.86435e-05 	-0.000530053 	0.363406
0.0103344 	-9.86328e-05 	-0.00052798 	0.362748
0.0103846 	-9.86222e-05 	-0.000525906 	0.362091
0.0104348 	-9.86115e-05 	-0.000523833 	0.361434
0.0104849 	-9.86009e-05 	-0.00052176 	0.360777
0.0105351 	-9.85902e-05 	-0.000519687 	0.36012
0.0105853 	-9.85796e-05 	-0.000517614 	0.359463
0.0106355 	-9.85689e-05 	-0.00051554 	0.358806
0.0106856 	-9.85583e-05 	-0.000513467 	0.358149
0.0107358 	-9.85476e-05 	-0.000511394 	0.357492
0.010786 	-9.85369e-05 	-0.000509321 	0.356835
0.0108361 	-9.85263e-05 	-0.000507248 	0.356177
0.0108863 	-9.85156e-05 	-0.000505174 	0.35552
0.0109365 	-9.8505e-05 	-0.000503101 	0.354863
0.0109866 	-9.84943e-05 	-0.000501028 	0.354206
0.0110368 	-9.85402e-05 	-0.000498813 	0.353516
0.011087 	-9.91621e-05 	-0.000495149 	0.352491
0.0111371 	-9.97841e-05 	-0.000491485 	0.351466
0.0111873 	-0.000100406 	-0.000487821 	0.350441
0.0112375 	-0.000101028 	-0.000484158 	0.349415
0.0112876 	-0.00010165 	-0.000480494 	0.34839
0.0113378 	-0.000102272 	-0.00047683 	0.347365
0.011388 	-0.000102894 	-0.000473166 	0.34634
0.0114381 	-0.000103516 	-0.000469503 	0.345315
0.0114883 	-0.000104138 	-0.000465839 	0.34429
0.0115385 	-0.00010476 	-0.000462175 	0.343265
0.0115886 	-0.000105382 	-0.000458511 	0.342239
0.0116388 	-0.000106004 	-0.000454848 	0.341214
0.011689 	-0.000106626 	-0.000451184 	0.340189
0.0117391 	-0.000107248 	-0.00044752 	0.339164
0.0117893 	-0.00010787 	-0.000443857 	0.338139
0.0118395 	-0.000108492 	-0.000440193 	0.337114
0.0118896 	-0.000109114 	-0.000436529 	0.336088
0.0119398 	-0.000110631 	-0.000430383 	0.334525
0.01199 	-0.00011217 	-0.00042418 	0.332949
0.0120401 	-0.000113708 	-0.000417977 	0.331373
0.0120903 	-0.000115246 	-0.000411774 	0.329797
0.0121405 	-0.000116784 	-0.000405571 	0.328221
0.0121906 	-0.000118322 	-0.000399368 	0.326645
0.0122408 	-0.00011986 	-0.000393165 	0.325069
0.012291 	-0.000121398 	-0.000386962 	0.323493
0.0123411 	-0.000122937 	-0.000380759 	0.321917
0.0123913 	-0.000124475 	-0.000374556 	0.320341
0.0124415 	-0.000126013 	-0.000368353 	0.318765
0.0124916 	-0.000127551 	-0.00036215 	0.317189
0.0125418 	-0.000129089 	-0.000355947 	0.315613
0.012592 	-0.000130627 	-0.000349744 	0.314037
0.0126421 	-0.000132423 	-0.000342581 	0.312176
0.0126923 	-0.000134794 	-0.000333264 	0.309676
0.0127425 	-0.000137166 	-0.000323948 	0.307177
0.0127926 	-0.000139537 	-0.000314632 	0.304677
0.0128428 	-0.000141909 	-0.000305316 	0.302177
0.012893 	-0.00014428 	-0.000295999 	0.299678
0.0129431 	-0.000146652 	-0.000286683 	0.297178
0.0129933 	-0.000149023 	-0.000277367 	0.294678
0.0130435 	-0.000151395 	-0.000268051 	0.292178
0.0130936 	-0.000153766 	-0.000258735 	0.289679
0.0131438 	-0.000156138 	-0.000249418 	0.287179
0.013194 	-0.000158509 	-0.000240102 	0.284679
0.0132441 	-0.000160881 	-0.000230786 	0.282179
0.0132943 	-0.000162934 	-0.000219891 	0.278464
0.0133445 	-0.000164872 	-0.000208421 	0.274308
0.0133946 	-0.00016681 	-0.000196952 	0.270151
0.0134448 	-0.000168748 	-0.000185483 	0.265994
0.013495 	-0.000170686 	-0.000174014 	0.261837
0.0135452 	-0.000172624 	-0.000162545 	0.25768
0.0135953 	-0.000174562 	-0.000151076 	0.253523
0.0136455 	-0.0001765 	-0.000139606 	0.249367
0.0136957 	-0.000178438 	-0.000128137 	0.24521
0.0137458 	-0.000180376 	-0.000116668 	0.241053
0.013796 	-0.000182314 	-0.000105199 	0.236896
0.0138462 	-0.000180231 	-9.54074e-05 	0.229454
0.0138963 	-0.000177952 	-8.56977e-05 	0.221851
0.0139465 	-0.000175674 	-7.5988e-05 	0.214249
0.0139967 	-0.000173395 	-6.62783e-05 	0.206646
0.0140468 	-0.000171116 	-5.65686e-05 	0.199044
0.014097 	-0.000168837 	-4.68588e-05 	0.191441
0.0141472 	-0.000166559 	-3.71491e-05 	0.183839
0.0141973 	-0.00016428 	-2.74394e-05 	0.176236
0.0142475 	-0.000162001 	-1.77297e-05 	0.168634
0.0142977 	-0.000154308 	-1.2702e-05 	0.158106
0.0143478 	-0.000144432 	-9.56253e-06 	0.146399
0.014398 	-0.000134555 	-6.42307e-06 	0.134692
0.0144482 	-0.000124679 	-3.28361e-06 	0.122984
0.0144983 	-0.000114803 	-1.44156e-07 	0.111277
0.0145485 	-0.000104926 	2.9953e-06 	0.0995699
0.0145987 	-9.50495e-05 	6.13476e-06 	0.0878627
0.0146488 	-8.51731e-05 	9.27422e-06 	0.0761554
0.014699 	-7.34288e-05 	8.77426e-06 	0.0651231
0.0147492 	-6.11907e-05 	7.31188e-06 	0.0542693
0.0147993 	-4.89526e-05 	5.8495e-06 	0.0434154
0.0148495 	-3.67144e-05 	4.38713e-06 	0.0325616
0.0148997 	-2.44763e-05 	2.92475e-06 	0.0217077
0.0149498 	-1.22381e-05 	1.46238e-06 	0.0108539
0.015 	0 	0 	0
