0 	0 	0 	0
5.01672e-05 	-2.1896e-05 	-4.45965e-06 	0.0203412
0.000100334 	-4.3792e-05 	-8.9193e-06 	0.0406825
0.000150502 	-6.56879e-05 	-1.3379e-05 	0.0610237
0.000200669 	-8.75839e-05 	-1.78386e-05 	0.081365
0.000250836 	-0.00010948 	-2.22983e-05 	0.101706
0.000301003 	-0.000131376 	-2.67579e-05 	0.122047
0.000351171 	-0.000151273 	-3.19254e-05 	0.140281
0.000401338 	-0.000163614 	-3.97697e-05 	0.150547
0.000451505 	-0.000175954 	-4.7614e-05 	0.160812
0.000501672 	-0.000188294 	-5.54583e-05 	0.171078
0.000551839 	-0.000200634 	-6.33026e-05 	0.181343
0.000602007 	-0.000212974 	-7.11469e-05 	0.191609
0.000652174 	-0.000225314 	-7.89912e-05 	0.201874
0.000702341 	-0.000237654 	-8.68355e-05 	0.21214
0.000752508 	-0.000247256 	-9.49071e-05 	0.220975
0.000802676 	-0.000250068 	-0.000103542 	0.226262
0.000852843 	-0.00025288 	-0.000112177 	0.23155
0.00090301 	-0.000255692 	-0.000120812 	0.236837
0.000953177 	-0.000258504 	-0.000129448 	0.242125
0.00100334 	-0.000261316 	-0.000138083 	0.247412
0.00105351 	-0.000264128 	-0.000146718 	0.2527
0.00110368 	-0.00026694 	-0.000155353 	0.257987
0.00115385 	-0.000269752 	-0.000163988 	0.263275
0.00120401 	-0.000272367 	-0.000172582 	0.268457
0.00125418 	-0.000270925 	-0.000180333 	0.271471
0.00130435 	-0.000269484 	-0.000188084 	0.274486
0.00135452 	-0.000268043 	-0.000195835 	0.277501
0.00140468 	-0.000266601 	-0.000203586 	0.280516
0.00145485 	-0.00026516 	-0.000211337 	0.28353
0.00150502 	-0.000263718 	-0.000219088 	0.286545
0.00155518 	-0.000262277 	-0.000226839 	0.28956
0.00160535 	-0.000260836 	-0.00023459 	0.292575
0.00165552 	-0.000259394 	-0.000242341 	0.295589
0.00170569 	-0.000257953 	-0.000250092 	0.298604
0.00175585 	-0.000256258 	-0.000257442 	0.30133
0.00180602 	-0.000253867 	-0.000263691 	0.303261
0.00185619 	-0.000251476 	-0.00026994 	0.305192
0.00190635 	-0.000249085 	-0.00027619 	0.307123
0.00195652 	-0.000246694 	-0.000282439 	0.309054
0.00200669 	-0.000244303 	-0.000288688 	0.310985
0.00205686 	-0.000241912 	-0.000294937 	0.312916
0.00210702 	-0.000239522 	-0.000301186 	0.314847
0.00215719 	-0.000237131 	-0.000307435 	0.316778
0.00220736 	-0.00023474 	-0.000313684 	0.31871
0.00225753 	-0.000232349 	-0.000319934 	0.320641
0.00230769 	-0.000229958 	-0.000326183 	0.322572
0.00235786 	-0.000227567 	-0.000332432 	0.324503
0.00240803 	-0.000225413 	-0.000337526 	0.326001
0.00245819 	-0.000223364 	-0.000342104 	0.327306
0.00250836 	-0.000221316 	-0.000346683 	0.328611
0.00255853 	-0.000219268 	-0.000351261 	0.329916
0.0026087 	-0.000217219 	-0.00035584 	0.331221
0.00265886 	-0.000215171 	-0.000360418 	0.332526
0.00270903 	-0.000213122 	-0.000364997 	0.333831
0.0027592 	-0.000211074 	-0.000369575 	0.335136
0.00280936 	-0.000209026 	-0.000374154 	0.336441
0.00285953 	-0.000206977 	-0.000378732 	0.337746
0.0029097 	-0.000204929 	-0.000383311 	0.339052
0.00295987 	-0.00020288 	-0.00038789 	0.340357
0.00301003 	-0.000200832 	-0.000392468 	0.341662
0.0030602 	-0.000198784 	-0.000397047 	0.342967
0.00311037 	-0.000196749 	-0.000401595 	0.344262
0.00316054 	-0.000195315 	-0.000404834 	0.345139
0.0032107 	-0.00019388 	-0.000408074 	0.346016
0.00326087 	-0.000192446 	-0.000411313 	0.346892
0.00331104 	-0.000191012 	-0.000414552 	0.347769
0.0033612 	-0.000189577 	-0.000417792 	0.348646
0.00341137 	-0.000188143 	-0.000421031 	0.349522
0.00346154 	-0.000186709 	-0.000424271 	0.350399
0.00351171 	-0.000185274 	-0.00042751 	0.351276
0.00356187 	-0.00018384 	-0.000430749 	0.352152
0.00361204 	-0.000182406 	-0.000433989 	0.353029
0.00366221 	-0.000180971 	-0.000437228 	0.353906
0.00371237 	-0.000179537 	-0.000440467 	0.354783
0.00376254 	-0.000178103 	-0.000443707 	0.355659
0.00381271 	-0.000176668 	-0.000446946 	0.356536
0.00386288 	-0.000175234 	-0.000450186 	0.357413
0.00391304 	-0.000173799 	-0.000453425 	0.358289
0.00396321 	-0.000172365 	-0.000456664 	0.359166
0.00401338 	-0.000171332 	-0.000459061 	0.359745
0.00406355 	-0.000170337 	-0.000461375 	0.360295
0.00411371 	-0.000169343 	-0.000463689 	0.360845
0.00416388 	-0.000168349 	-0.000466003 	0.361394
0.00421405 	-0.000167355 	-0.000468316 	0.361944
0.00426421 	-0.00016636 	-0.00047063 	0.362494
0.00431438 	-0.000165366 	-0.000472944 	0.363044
0.00436455 	-0.000164372 	-0.000475258 	0.363593
0.00441472 	-0.000163378 	-0.000477572 	0.364143
0.00446488 	-0.000162383 	-0.000479886 	0.364693
0.00451505 	-0.000161389 	-0.0004822 	0.365243
0.00456522 	-0.000160395 	-0.000484514 	0.365792
0.00461538 	-0.000159401 	-0.000486828 	0.366342
0.00466555 	-0.000158406 	-0.000489142 	0.366892
0.00471572 	-0.000157412 	-0.000491455 	0.367442
0.00476589 	-0.000156418 	-0.000493769 	0.367991
0.00481605 	-0.000155424 	-0.000496083 	0.368541
0.00486622 	-0.000154429 	-0.000498397 	0.369091
0.00491639 	-0.000153435 	-0.000500711 	0.369641
0.00496656 	-0.000152441 	-0.000503025 	0.37019
0.00501672 	-0.000151652 	-0.000504621 	0.370491
0.00506689 	-0.000150875 	-0.000506179 	0.370778
0.00511706 	-0.000150097 	-0.000507737 	0.371065
0.00516722 	-0.000149319 	-0.000509294 	0.371352
0.00521739 	-0.000148542 	-0.000510852 	0.37164
0.00526756 	-0.000147764 	-0.00051241 	0.371927
0.00531773 	-0.000146986 	-0.000513968 	0.372214
0.00536789 	-0.000146209 	-0.000515525 	0.372501
0.00541806 	-0.000145431 	-0.000517083 	0.372788
0.00546823 	-0.000144653 	-0.000518641 	0.373075
0.00551839 	-0.000143876 	-0.000520199 	0.373363
0.00556856 	-0.000143098 	-0.000521756 	0.37365
0.00561873 	-0.00014232 	-0.000523314 	0.373937
0.0056689 	-0.000141543 	-0.000524872 	0.374224
0.00571906 	-0.000140765 	-0.00052643 	0.374511
0.00576923 	-0.000139987 	-0.000527988 	0.374798
0.0058194 	-0.00013921 	-0.000529545 	0.375086
0.00586957 	-0.000138432 	-0.000531103 	0.375373
0.00591973 	-0.000137654 	-0.000532661 	0.37566
0.0059699 	-0.000136877 	-0.000534219 	0.375947
0.00602007 	-0.000136099 	-0.000535776 	0.376234
0.00607023 	-0.000135321 	-0.000537334 	0.376521
0.0061204 	-0.000134543 	-0.000538892 	0.376809
0.00617057 	-0.000133863 	-0.000539935 	0.37695
0.00622074 	-0.000133231 	-0.000540717 	0.377016
0.0062709 	-0.0001326 	-0.000541499 	0.377083
0.00632107 	-0.000131969 	-0.00054228 	0.37715
0.00637124 	-0.000131337 	-0.000543062 	0.377217
0.0064214 	-0.000130706 	-0.000543844 	0.377284
0.00647157 	-0.000130074 	-0.000544626 	0.377351
0.00652174 	-0.000129443 	-0.000545408 	0.377418
0.00657191 	-0.000128811 	-0.00054619 	0.377484
0.00662207 	-0.00012818 	-0.000546972 	0.377551
0.00667224 	-0.000127549 	-0.000547754 	0.377618
0.00672241 	-0.000126917 	-0.000548535 	0.377685
0.00677258 	-0.000126286 	-0.000549317 	0.377752
0.00682274 	-0.000125654 	-0.000550099 	0.377819
0.00687291 	-0.000125023 	-0.000550881 	0.377886
0.00692308 	-0.000124391 	-0.000551663 	0.377953
0.00697324 	-0.00012376 	-0.000552445 	0.378019
0.00702341 	-0.000123129 	-0.000553227 	0.378086
0.00707358 	-0.000122497 	-0.000554009 	0.378153
0.00712375 	-0.000121866 	-0.00055479 	0.37822
0.00717391 	-0.000121234 	-0.000555572 	0.378287
0.00722408 	-0.000120603 	-0.000556354 	0.378354
0.00727425 	-0.000119971 	-0.000557136 	0.378421
0.00732441 	-0.00011934 	-0.000557918 	0.378487
0.00737458 	-0.000118709 	-0.0005587 	0.378554
0.00742475 	-0.000118077 	-0.000559482 	0.378621
0.00747492 	-0.000117446 	-0.000560263 	0.378688
0.00752508 	-0.000116872 	-0.000560661 	0.378656
0.00757525 	-0.000116355 	-0.000560673 	0.378525
0.00762542 	-0.000115839 	-0.000560685 	0.378393
0.00767559 	-0.000115322 	-0.000560698 	0.378262
0.00772575 	-0.000114806 	-0.00056071 	0.37813
0.00777592 	-0.000114289 	-0.000560722 	0.377999
0.00782609 	-0.000113772 	-0.000560735 	0.377868
0.00787625 	-0.000113256 	-0.000560747 	0.377736
0.00792642 	-0.000112739 	-0.00056076 	0.377605
0.00797659 	-0.000112223 	-0.000560772 	0.377474
0.00802676 	-0.000111706 	-0.000560784 	0.377342
0.00807692 	-0.00011119 	-0.000560797 	0.377211
0.00812709 	-0.000110673 	-0.000560809 	0.37708
0.00817726 	-0.000110157 	-0.000560821 	0.376948
0.00822742 	-0.00010964 	-0.000560834 	0.376817
0.00827759 	-0.000109123 	-0.000560846 	0.376686
0.00832776 	-0.000108607 	-0.000560858 	0.376554
0.00837793 	-0.00010809 	-0.000560871 	0.376423
0.00842809 	-0.000107574 	-0.000560883 	0.376292
0.00847826 	-0.000107057 	-0.000560896 	0.37616
0.00852843 	-0.000106541 	-0.000560908 	0.376029
0.0085786 	-0.000106024 	-0.00056092 	0.375898
0.00862876 	-0.000105507 	-0.000560933 	0.375766
0.00867893 	-0.000104991 	-0.000560945 	0.375635
0.0087291 	-0.000104474 	-0.000560957 	0.375504
0.00877926 	-0.000103958 	-0.00056097 	0.375372
0.00882943 	-0.000103441 	-0.000560982 	0.375241
0.0088796 	-0.000102978 	-0.000560678 	0.375029
0.00892977 	-0.000102621 	-0.000559749 	0.374658
0.00897993 	-0.000102264 	-0.000558821 	0.374286
0.0090301 	-0.000101907 	-0.000557892 	0.373915
0.00908027 	-0.00010155 	-0.000556963 	0.373544
0.00913043 	-0.000101193 	-0.000556035 	0.373173
0.0091806 	-0.000100836 	-0.000555106 	0.372802
0.00923077 	-0.000100479 	-0.000554178 	0.37243
0.00928094 	-0.000100122 	-0.000553249 	0.372059
0.0093311 	-9.97651e-05 	-0.00055232 	0.371688
0.00938127 	-9.9408e-05 	-0.000551392 	0.371317
0.00943144 	-9.9051e-05 	-0.000550463 	0.370945
0.00948161 	-9.8694e-05 	-0.000549535 	0.370574
0.00953177 	-9.83369e-05 	-0.000548606 	0.370203
0.00958194 	-9.79799e-05 	-0.000547677 	0.369832
0.00963211 	-9.76229e-05 	-0.000546749 	0.36946
0.00968227 	-9.72658e-05 	-0.00054582 	0.369089
0.00973244 	-9.69088e-05 	-0.000544892 	0.368718
0.00978261 	-9.65518e-05 	-0.000543963 	0.368347
0.00983278 	-9.61947e-05 	-0.000543034 	0.367976
0.00988294 	-9.58377e-05 	-0.000542106 	0.367604
0.00993311 	-9.54807e-05 	-0.000541177 	0.367233
0.00998328 	-9.51236e-05 	-0.000540249 	0.366862
0.0100334 	-9.47841e-05 	-0.000539264 	0.366476
0.0100836 	-9.47713e-05 	-0.000537234 	0.365821
0.0101338 	-9.47586e-05 	-0.000535204 	0.365167
0.0101839 	-9.47458e-05 	-0.000533174 	0.364512
0.0102341 	-9.47331e-05 	-0.000531144 	0.363857
0.0102843 	-9.47203e-05 	-0.000529114 	0.363202
0.0103344 	-9.47076e-05 	-0.000527084 	0.362547
0.0103846 	-9.46948e-05 	-0.000525054 	0.361893
0.0104348 	-9.4682e-05 	-0.000523024 	0.361238
0.0104849 	-9.46693e-05 	-0.000520994 	0.360583
0.0105351 	-9.46565e-05 	-0.000518964 	0.359928
0.0105853 	-9.46438e-05 	-0.000516934 	0.359273
0.0106355 	-9.4631e-05 	-0.000514904 	0.358619
0.0106856 	-9.46182e-05 	-0.000512874 	0.357964
0.0107358 	-9.46055e-05 	-0.000510844 	0.357309
0.010786 	-9.45927e-05 	-0.000508814 	0.356654
0.0108361 	-9.458e-05 	-0.000506785 	0.355999
0.0108863 	-9.45672e-05 	-0.000504755 	0.355345
0.0109365 	-9.45544e-05 	-0.000502725 	0.35469
0.0109866 	-9.45417e-05 	-0.000500695 	0.354035
0.0110368 	-9.4584e-05 	-0.000498522 	0.353347
0.011087 	-9.51881e-05 	-0.0004949 	0.352325
0.0111371 	-9.57921e-05 	-0.000491277 	0.351303
0.0111873 	-9.63962e-05 	-0.000487654 	0.350282
0.0112375 	-9.70002e-05 	-0.000484031 	0.34926
0.0112876 	-9.76043e-05 	-0.000480408 	0.348238
0.0113378 	-9.82084e-05 	-0.000476786 	0.347216
0.011388 	-9.88124e-05 	-0.000473163 	0.346194
0.0114381 	-9.94165e-05 	-0.00046954 	0.345172
0.0114883 	-0.000100021 	-0.000465917 	0.34415
0.0115385 	-0.000100625 	-0.000462294 	0.343128
0.0115886 	-0.000101229 	-0.000458672 	0.342106
0.0116388 	-0.000101833 	-0.000455049 	0.341084
0.011689 	-0.000102437 	-0.000451426 	0.340062
0.0117391 	-0.000103041 	-0.000447803 	0.33904
0.0117893 	-0.000103645 	-0.00044418 	0.338018
0.0118395 	-0.000104249 	-0.000440558 	0.336996
0.0118896 	-0.000104853 	-0.000436935 	0.335974
0.0119398 	-0.000106329 	-0.000430825 	0.334416
0.01199 	-0.000107826 	-0.000424658 	0.332844
0.0120401 	-0.000109323 	-0.000418491 	0.331273
0.0120903 	-0.000110819 	-0.000412324 	0.329702
0.0121405 	-0.000112316 	-0.000406157 	0.32813
0.0121906 	-0.000113813 	-0.00039999 	0.326559
0.0122408 	-0.000115309 	-0.000393823 	0.324988
0.012291 	-0.000116806 	-0.000387656 	0.323416
0.0123411 	-0.000118302 	-0.000381489 	0.321845
0.0123913 	-0.000119799 	-0.000375322 	0.320274
0.0124415 	-0.000121296 	-0.000369155 	0.318703
0.0124916 	-0.000122792 	-0.000362988 	0.317131
0.0125418 	-0.000124289 	-0.000356821 	0.31556
0.012592 	-0.000125785 	-0.000350654 	0.313989
0.0126421 	-0.000127533 	-0.000343525 	0.312133
0.0126923 	-0.000129843 	-0.000334238 	0.309641
0.0127425 	-0.000132153 	-0.000324952 	0.307149
0.0127926 	-0.000134463 	-0.000315665 	0.304656
0.0128428 	-0.000136773 	-0.000306379 	0.302164
0.012893 	-0.000139083 	-0.000297092 	0.299671
0.0129431 	-0.000141393 	-0.000287806 	0.297179
0.0129933 	-0.000143703 	-0.000278519 	0.294687
0.0130435 	-0.000146013 	-0.000269233 	0.292194
0.0130936 	-0.000148323 	-0.000259946 	0.289702
0.0131438 	-0.000150633 	-0.00025066 	0.287209
0.013194 	-0.000152943 	-0.000241373 	0.284717
0.0132441 	-0.000155253 	-0.000232087 	0.282225
0.0132943 	-0.000157259 	-0.000221209 	0.27852
0.0133445 	-0.000159156 	-0.000209753 	0.274374
0.0133946 	-0.000161052 	-0.000198298 	0.270227
0.0134448 	-0.000162948 	-0.000186842 	0.266081
0.013495 	-0.000164844 	-0.000175386 	0.261935
0.0135452 	-0.00016674 	-0.000163931 	0.257789
0.0135953 	-0.000168637 	-0.000152475 	0.253643
0.0136455 	-0.000170533 	-0.000141019 	0.249497
0.0136957 	-0.000172429 	-0.000129564 	0.245351
0.0137458 	-0.000174325 	-0.000118108 	0.241205
0.013796 	-0.000176221 	-0.000106652 	0.237059
0.0138462 	-0.000174216 	-9.68211e-05 	0.229621
0.0138963 	-0.000172021 	-8.70691e-05 	0.222023
0.0139465 	-0.000169826 	-7.73172e-05 	0.214424
0.0139967 	-0.000167631 	-6.75652e-05 	0.206826
0.0140468 	-0.000165436 	-5.78133e-05 	0.199227
0.014097 	-0.000163241 	-4.80613e-05 	0.191629
0.0141472 	-0.000161045 	-3.83094e-05 	0.18403
0.0141973 	-0.00015885 	-2.85574e-05 	0.176432
0.0142475 	-0.000156655 	-1.88055e-05 	0.168833
0.0142977 	-0.000149205 	-1.37011e-05 	0.158291
0.0143478 	-0.000139636 	-1.04711e-05 	0.146562
0.014398 	-0.000130067 	-7.24115e-06 	0.134833
0.0144482 	-0.000120497 	-4.01118e-06 	0.123103
0.0144983 	-0.000110928 	-7.81209e-07 	0.111374
0.0145485 	-0.000101359 	2.44876e-06 	0.0996445
0.0145987 	-9.17895e-05 	5.67873e-06 	0.0879152
0.0146488 	-8.22202e-05 	8.90871e-06 	0.0761858
0.014699 	-7.08766e-05 	8.46804e-06 	0.0651459
0.0147492 	-5.90639e-05 	7.0567e-06 	0.0542882
0.0147993 	-4.72511e-05 	5.64536e-06 	0.0434306
0.0148495 	-3.54383e-05 	4.23402e-06 	0.0325729
0.0148997 	-2.36255e-05 	2.82268e-06 	0.0217153
0.0149498 	-1.18128e-05 	1.41134e-06 	0.0108576
0.015 	0 	0 	0
