/*--------------------------------*- C++ -*----------------------------------*\
| =========                 |                                                 |
| \\      /  F ield         | OpenFOAM: The Open Source CFD Toolbox           |
|  \\    /   O peration     | Version:  v1912                                 |
|   \\  /    A nd           | Website:  www.openfoam.com                      |
|    \\/     M anipulation  |                                                 |
\*---------------------------------------------------------------------------*/
FoamFile
{
    version     2.0;
    format      ascii;
    class       volScalarField;
    location    "10.8";
    object      nut;
}
// * * * * * * * * * * * * * * * * * * * * * * * * * * * * * * * * * * * * * //

dimensions      [0 2 -1 0 0 0 0];


internalField   nonuniform List<scalar> 
34128
(
4.04413e-12
3.99404e-12
4.11275e-12
4.34771e-12
4.59039e-12
4.67009e-12
4.41043e-12
4.01108e-12
4.00075e-12
4.36868e-12
4.53031e-12
4.44269e-12
3.96607e-12
3.92601e-12
4.04148e-12
4.26262e-12
4.5077e-12
4.59481e-12
4.33621e-12
3.94221e-12
3.93753e-12
4.30005e-12
4.45097e-12
4.3618e-12
6.92946e-12
7.02653e-12
7.2122e-12
7.42638e-12
7.97928e-12
8.29062e-12
7.77107e-12
7.04893e-12
7.14453e-12
7.80406e-12
7.91984e-12
7.70187e-12
2.84912e-11
2.94697e-11
3.01739e-11
3.04348e-11
3.30819e-11
3.48827e-11
3.25802e-11
2.95786e-11
3.03399e-11
3.30762e-11
3.29988e-11
3.18943e-11
1.10592e-10
1.14917e-10
1.17538e-10
1.17829e-10
1.28131e-10
1.35452e-10
1.26734e-10
1.15495e-10
1.1878e-10
1.29016e-10
1.28058e-10
1.23686e-10
3.31332e-10
3.44713e-10
3.52147e-10
3.51782e-10
3.81592e-10
4.03347e-10
3.78688e-10
3.46876e-10
3.56836e-10
3.85628e-10
3.81852e-10
3.69215e-10
7.98795e-10
8.31395e-10
8.47859e-10
8.44101e-10
9.12418e-10
9.63672e-10
9.08711e-10
8.37404e-10
8.60875e-10
9.24483e-10
9.14023e-10
8.85607e-10
1.62526e-09
1.69146e-09
1.72113e-09
1.7076e-09
1.83838e-09
1.93948e-09
1.83796e-09
1.70482e-09
1.75017e-09
1.86605e-09
1.84339e-09
1.79116e-09
2.89257e-09
3.0088e-09
3.05371e-09
3.02004e-09
3.23753e-09
3.41096e-09
3.24953e-09
3.03425e-09
3.10838e-09
3.28932e-09
3.24915e-09
3.16792e-09
4.62722e-09
4.80793e-09
4.86631e-09
4.80001e-09
5.12374e-09
5.38995e-09
5.16264e-09
4.85132e-09
4.9562e-09
5.20601e-09
5.14615e-09
5.03651e-09
6.79532e-09
7.04903e-09
7.11525e-09
7.00519e-09
7.4465e-09
7.82058e-09
7.53092e-09
7.11775e-09
7.24798e-09
7.5607e-09
7.48466e-09
7.35403e-09
9.31486e-09
9.64158e-09
9.70734e-09
9.54703e-09
1.00677e-08
1.0533e-08
1.02434e-08
9.7449e-09
9.84841e-09
1.01718e-08
1.01283e-08
1.00289e-08
1.16422e-08
1.19779e-08
1.2005e-08
1.18149e-08
1.24165e-08
1.29874e-08
1.26738e-08
1.20975e-08
1.21735e-08
1.25363e-08
1.25063e-08
1.24109e-08
1.40224e-08
1.43955e-08
1.44057e-08
1.41741e-08
1.48653e-08
1.555e-08
1.52234e-08
1.45575e-08
1.46064e-08
1.50023e-08
1.49931e-08
1.49077e-08
1.64902e-08
1.68952e-08
1.68801e-08
1.6603e-08
1.73833e-08
1.81892e-08
1.78613e-08
1.71063e-08
1.71171e-08
1.75385e-08
1.75581e-08
1.74888e-08
1.90196e-08
1.94496e-08
1.94004e-08
1.90753e-08
1.99439e-08
2.08789e-08
2.05611e-08
1.97172e-08
1.96787e-08
2.01187e-08
2.01753e-08
2.01274e-08
2.15897e-08
2.2037e-08
2.19451e-08
2.15714e-08
2.25281e-08
2.36011e-08
2.33042e-08
2.23699e-08
2.22713e-08
2.27247e-08
2.28265e-08
2.28033e-08
2.41871e-08
2.46428e-08
2.45001e-08
2.40792e-08
2.51252e-08
2.63469e-08
2.60809e-08
2.50524e-08
2.48834e-08
2.53478e-08
2.55024e-08
2.55038e-08
2.68069e-08
2.72608e-08
2.70597e-08
2.65952e-08
2.77344e-08
2.9117e-08
2.8891e-08
2.77626e-08
2.75139e-08
2.79904e-08
2.82036e-08
2.82258e-08
2.94539e-08
2.9895e-08
2.96282e-08
2.9126e-08
3.03656e-08
3.19217e-08
3.17434e-08
3.05098e-08
3.01738e-08
3.06663e-08
3.09414e-08
3.09772e-08
3.21441e-08
3.25599e-08
3.22211e-08
3.16901e-08
3.30398e-08
3.47803e-08
3.46564e-08
3.33148e-08
3.28866e-08
3.34e-08
3.3738e-08
3.37775e-08
3.49028e-08
3.52796e-08
3.48645e-08
3.4317e-08
3.57876e-08
3.77202e-08
3.76561e-08
3.62083e-08
3.56865e-08
3.62251e-08
3.66237e-08
3.6657e-08
3.77601e-08
3.80832e-08
3.75909e-08
3.70436e-08
3.86444e-08
4.07732e-08
4.07728e-08
3.92254e-08
3.86125e-08
3.91791e-08
3.96332e-08
3.96506e-08
4.07459e-08
4.09999e-08
4.04337e-08
3.99088e-08
4.16472e-08
4.3974e-08
4.40371e-08
4.23993e-08
4.17023e-08
4.23001e-08
4.28026e-08
4.27935e-08
4.38846e-08
4.40541e-08
4.34228e-08
4.29505e-08
4.48359e-08
4.73603e-08
4.74788e-08
4.57575e-08
4.4989e-08
4.56258e-08
4.61685e-08
4.61197e-08
4.71947e-08
4.72663e-08
4.65863e-08
4.62103e-08
4.82583e-08
5.0976e-08
5.11291e-08
4.93243e-08
4.85053e-08
4.91984e-08
4.97722e-08
4.9666e-08
5.06933e-08
5.06569e-08
4.99606e-08
4.97423e-08
5.19791e-08
5.48783e-08
5.50275e-08
5.31293e-08
5.22933e-08
5.30729e-08
5.36683e-08
5.34814e-08
5.44052e-08
5.42552e-08
5.35992e-08
5.36282e-08
5.60912e-08
5.9145e-08
5.92306e-08
5.72209e-08
5.64201e-08
5.73287e-08
5.79367e-08
5.76402e-08
5.83751e-08
5.81097e-08
5.75853e-08
5.7994e-08
6.07276e-08
6.38837e-08
6.38225e-08
6.16815e-08
6.09939e-08
6.20822e-08
6.26957e-08
6.22575e-08
6.26814e-08
6.22999e-08
6.20472e-08
6.30275e-08
6.60754e-08
6.92421e-08
6.89271e-08
6.66477e-08
6.6185e-08
6.75008e-08
6.81174e-08
6.75066e-08
6.74596e-08
6.69535e-08
6.71821e-08
6.8995e-08
7.23782e-08
7.5407e-08
7.47192e-08
7.23345e-08
7.22406e-08
7.38104e-08
7.44372e-08
7.36305e-08
7.29175e-08
7.22497e-08
7.32401e-08
7.62153e-08
7.99191e-08
8.25963e-08
8.13873e-08
7.89758e-08
7.94266e-08
8.12665e-08
8.19237e-08
8.08989e-08
7.92217e-08
7.83516e-08
8.05013e-08
8.50846e-08
8.90848e-08
9.11009e-08
8.91706e-08
8.68294e-08
8.80674e-08
9.02094e-08
9.09316e-08
8.96605e-08
8.66873e-08
8.55634e-08
8.942e-08
9.62309e-08
1.00489e-07
1.0138e-07
9.8458e-08
9.63108e-08
9.86727e-08
1.01189e-07
1.02027e-07
1.00463e-07
9.57813e-08
9.43344e-08
1.0067e-07
1.10615e-07
1.1507e-07
1.14125e-07
1.09824e-07
1.08046e-07
1.12021e-07
1.15048e-07
1.16073e-07
1.14131e-07
1.07176e-07
1.05311e-07
1.15267e-07
1.29712e-07
1.34258e-07
1.30368e-07
1.24121e-07
1.2297e-07
1.29305e-07
1.33079e-07
1.34389e-07
1.31916e-07
1.21868e-07
1.1945e-07
1.34786e-07
1.5581e-07
1.60278e-07
1.51672e-07
1.42637e-07
1.42509e-07
1.52384e-07
1.57317e-07
1.59025e-07
1.55726e-07
1.41407e-07
1.38235e-07
1.61754e-07
1.92586e-07
1.96706e-07
1.80469e-07
1.67392e-07
1.68923e-07
1.84268e-07
1.90792e-07
1.93212e-07
1.88575e-07
1.68235e-07
1.63848e-07
2.00078e-07
2.45853e-07
2.47905e-07
2.20232e-07
2.01315e-07
2.0574e-07
2.29201e-07
2.28055e-07
2.40088e-07
2.35083e-07
2.00806e-07
1.89905e-07
2.41745e-07
3.10845e-07
2.99455e-07
2.61053e-07
2.35979e-07
2.49418e-07
2.73173e-07
2.71616e-07
2.8734e-07
2.89363e-07
2.36418e-07
2.2248e-07
2.92315e-07
3.83964e-07
3.66384e-07
3.13998e-07
2.80196e-07
2.99035e-07
3.31594e-07
3.29154e-07
3.49546e-07
3.53104e-07
2.83678e-07
2.65662e-07
3.57248e-07
4.75153e-07
4.49597e-07
3.80649e-07
3.37285e-07
3.62858e-07
4.04539e-07
4.00831e-07
4.26801e-07
4.3276e-07
3.44076e-07
3.21619e-07
4.37301e-07
5.87069e-07
5.51624e-07
4.62327e-07
4.0745e-07
4.41014e-07
4.93712e-07
4.88602e-07
5.21165e-07
5.30473e-07
4.18015e-07
3.91035e-07
5.34513e-07
7.21662e-07
6.74535e-07
5.61291e-07
4.92418e-07
5.35557e-07
6.01258e-07
5.9477e-07
6.34635e-07
6.48457e-07
5.07293e-07
4.75631e-07
6.50538e-07
8.79239e-07
8.19172e-07
6.79296e-07
5.94245e-07
6.48228e-07
7.28464e-07
7.20923e-07
7.68193e-07
7.87785e-07
6.13704e-07
5.77404e-07
7.85911e-07
1.0579e-06
9.84675e-07
8.17002e-07
7.14474e-07
7.79783e-07
8.75231e-07
8.66813e-07
9.21251e-07
9.47798e-07
7.38298e-07
6.97482e-07
9.39631e-07
1.25356e-06
1.16871e-06
9.73485e-07
8.53657e-07
9.29616e-07
1.03953e-06
1.02993e-06
1.09131e-06
1.12572e-06
8.80748e-07
8.3571e-07
1.10893e-06
1.46134e-06
1.36799e-06
1.14592e-06
1.01047e-06
1.09556e-06
1.21726e-06
1.20676e-06
1.27402e-06
1.31672e-06
1.03871e-06
9.90371e-07
1.28936e-06
1.67342e-06
1.57298e-06
1.32961e-06
1.18171e-06
1.27401e-06
1.40298e-06
1.39242e-06
1.46363e-06
1.51454e-06
1.20799e-06
1.15814e-06
1.47516e-06
1.87804e-06
1.77468e-06
1.51834e-06
1.36255e-06
1.46017e-06
1.59081e-06
1.58098e-06
1.6538e-06
1.71358e-06
1.3831e-06
1.3343e-06
1.65999e-06
2.06598e-06
1.96512e-06
1.70513e-06
1.54701e-06
1.64789e-06
1.77501e-06
1.76621e-06
1.83835e-06
1.90585e-06
1.55812e-06
1.51329e-06
1.83773e-06
2.23035e-06
2.13736e-06
1.88307e-06
1.72873e-06
1.83068e-06
1.95014e-06
1.94227e-06
2.01162e-06
2.0836e-06
1.72727e-06
1.68931e-06
2.00322e-06
2.36532e-06
2.28647e-06
2.04631e-06
1.90173e-06
2.00263e-06
2.11176e-06
2.10513e-06
2.16869e-06
2.24315e-06
1.83944e-06
1.85703e-06
2.15273e-06
2.46636e-06
2.40936e-06
2.19082e-06
2.0611e-06
2.15912e-06
2.2569e-06
2.25237e-06
2.26565e-06
2.38222e-06
1.71445e-06
2.01221e-06
2.28405e-06
2.54464e-06
2.50187e-06
2.31428e-06
2.20338e-06
2.29714e-06
2.38404e-06
2.31455e-06
2.15902e-06
2.49963e-06
1.63568e-06
2.15192e-06
2.39287e-06
2.60701e-06
2.5633e-06
2.41575e-06
2.32623e-06
2.41541e-06
2.49208e-06
2.22343e-06
2.09056e-06
2.42719e-06
1.61008e-06
2.27329e-06
2.47969e-06
2.65795e-06
2.60886e-06
2.29341e-06
2.30349e-06
2.51426e-06
2.58232e-06
2.18317e-06
2.05939e-06
2.37689e-06
1.61935e-06
2.37576e-06
2.55303e-06
2.69971e-06
2.64554e-06
2.14261e-06
2.12622e-06
2.5934e-06
2.65611e-06
2.18005e-06
2.05178e-06
2.37026e-06
1.65239e-06
2.45968e-06
2.61449e-06
2.73411e-06
2.67508e-06
2.01873e-06
1.98255e-06
2.65604e-06
2.71516e-06
2.2012e-06
2.06377e-06
2.3942e-06
1.7025e-06
2.53019e-06
2.66555e-06
2.76267e-06
2.69904e-06
1.92247e-06
1.87729e-06
2.70407e-06
2.76133e-06
2.24144e-06
2.09598e-06
2.43927e-06
1.76527e-06
2.58893e-06
2.70798e-06
2.78665e-06
2.71871e-06
1.84825e-06
1.79888e-06
2.69377e-06
2.79653e-06
2.29753e-06
2.15176e-06
2.50137e-06
1.83812e-06
2.63774e-06
2.74329e-06
2.80709e-06
2.73475e-06
1.79385e-06
1.74276e-06
2.59862e-06
2.82255e-06
2.36671e-06
2.23681e-06
2.58041e-06
1.92048e-06
2.67849e-06
2.77279e-06
2.82473e-06
2.74793e-06
1.75885e-06
1.70709e-06
2.54217e-06
2.84102e-06
2.44615e-06
2.35971e-06
2.6793e-06
2.01386e-06
2.71278e-06
2.79756e-06
2.84008e-06
2.75881e-06
1.74412e-06
1.69142e-06
2.51474e-06
2.85329e-06
2.53271e-06
2.53259e-06
2.80503e-06
2.12183e-06
2.74186e-06
2.81847e-06
2.85331e-06
2.76784e-06
1.75195e-06
1.69634e-06
2.50633e-06
2.86041e-06
2.62305e-06
2.75236e-06
2.91161e-06
2.24937e-06
2.76661e-06
2.83607e-06
2.86459e-06
2.77545e-06
1.78555e-06
1.72294e-06
2.50985e-06
2.86306e-06
2.71259e-06
2.87064e-06
2.91587e-06
2.40116e-06
2.73794e-06
2.85067e-06
2.87392e-06
2.74313e-06
1.84852e-06
1.77232e-06
2.51609e-06
2.86155e-06
2.79521e-06
2.87409e-06
2.9173e-06
2.58411e-06
2.6856e-06
2.86257e-06
2.88111e-06
2.71422e-06
1.94421e-06
1.84484e-06
2.51401e-06
2.8559e-06
2.86113e-06
2.87428e-06
2.91607e-06
2.78894e-06
2.65756e-06
2.87198e-06
2.88606e-06
2.69801e-06
2.07505e-06
1.93966e-06
2.49316e-06
2.81504e-06
2.86525e-06
2.87126e-06
2.91236e-06
2.83569e-06
2.65489e-06
2.8788e-06
2.88988e-06
2.6953e-06
2.24392e-06
2.05456e-06
2.44658e-06
2.6844e-06
2.85287e-06
2.86514e-06
2.90635e-06
2.84911e-06
2.67092e-06
2.88398e-06
2.89305e-06
2.70454e-06
2.45668e-06
2.18577e-06
2.37243e-06
2.52651e-06
2.83651e-06
2.85625e-06
2.89835e-06
2.8598e-06
2.69805e-06
2.88731e-06
2.89595e-06
2.7221e-06
2.69574e-06
2.33021e-06
2.27514e-06
2.34655e-06
2.8166e-06
2.84503e-06
2.88877e-06
2.86786e-06
2.72832e-06
2.88886e-06
2.89874e-06
2.74274e-06
2.70326e-06
2.49794e-06
2.16557e-06
2.15536e-06
2.79345e-06
2.83213e-06
2.87817e-06
2.87345e-06
2.75411e-06
2.88918e-06
2.90051e-06
2.76269e-06
2.71052e-06
2.68671e-06
2.05704e-06
1.96621e-06
2.76758e-06
2.81837e-06
2.86722e-06
2.87683e-06
2.76963e-06
2.88877e-06
2.90231e-06
2.77821e-06
2.71811e-06
2.69139e-06
1.96112e-06
1.79085e-06
2.73978e-06
2.8047e-06
2.85668e-06
2.87834e-06
2.77227e-06
2.88802e-06
2.90455e-06
2.7851e-06
2.7269e-06
2.68916e-06
1.8871e-06
1.63837e-06
2.71101e-06
2.79199e-06
2.84732e-06
2.87829e-06
2.76321e-06
2.88715e-06
2.90732e-06
2.7801e-06
2.73831e-06
2.68686e-06
1.8425e-06
1.51488e-06
2.68246e-06
2.78103e-06
2.83985e-06
2.87696e-06
2.7471e-06
2.88677e-06
2.91031e-06
2.7616e-06
2.75013e-06
2.68544e-06
1.83149e-06
1.42398e-06
2.65544e-06
2.77245e-06
2.83485e-06
2.87448e-06
2.73049e-06
2.88731e-06
2.91345e-06
2.73016e-06
2.76315e-06
2.68577e-06
1.85255e-06
1.3676e-06
2.62624e-06
2.76664e-06
2.83264e-06
4.30012e-12
4.26865e-12
4.40062e-12
4.6327e-12
4.9029e-12
4.99159e-12
4.70243e-12
4.29122e-12
4.29967e-12
4.68377e-12
4.82048e-12
4.71853e-12
4.11278e-12
4.08631e-12
4.21631e-12
4.43819e-12
4.70311e-12
4.78887e-12
4.50368e-12
4.1068e-12
4.11947e-12
4.48995e-12
4.61829e-12
4.52119e-12
5.36081e-12
5.39782e-12
5.63842e-12
5.92297e-12
6.38478e-12
6.51033e-12
5.98386e-12
5.41139e-12
5.51796e-12
6.0497e-12
6.16202e-12
6.04102e-12
1.44031e-11
1.48712e-11
1.59045e-11
1.66372e-11
1.85087e-11
1.89095e-11
1.66486e-11
1.48724e-11
1.56493e-11
1.73073e-11
1.7275e-11
1.69812e-11
4.87043e-11
5.0747e-11
5.47745e-11
5.72063e-11
6.42038e-11
6.55181e-11
5.69243e-11
5.08736e-11
5.41665e-11
5.9836e-11
5.9197e-11
5.82773e-11
1.39837e-10
1.4593e-10
1.57917e-10
1.64832e-10
1.84799e-10
1.88096e-10
1.63374e-10
1.46901e-10
1.56845e-10
1.72273e-10
1.69843e-10
1.67437e-10
3.30548e-10
3.44684e-10
3.73234e-10
3.89463e-10
4.3485e-10
4.4113e-10
3.84523e-10
3.48595e-10
3.72203e-10
4.05682e-10
3.99298e-10
3.94351e-10
6.64033e-10
6.91045e-10
7.48255e-10
7.80889e-10
8.67185e-10
8.76223e-10
7.6772e-10
7.02361e-10
7.48994e-10
8.09305e-10
7.96126e-10
7.88013e-10
1.17006e-09
1.21428e-09
1.31415e-09
1.37261e-09
1.51511e-09
1.52439e-09
1.34334e-09
1.24032e-09
1.31995e-09
1.41387e-09
1.39107e-09
1.38023e-09
1.85575e-09
1.91887e-09
2.07586e-09
2.17207e-09
2.38239e-09
2.38588e-09
2.11519e-09
1.97046e-09
2.09142e-09
2.22147e-09
2.18781e-09
2.176e-09
2.70479e-09
2.78433e-09
3.01189e-09
3.16043e-09
3.44401e-09
3.43216e-09
3.0611e-09
2.8756e-09
3.04285e-09
3.20704e-09
3.16376e-09
3.15357e-09
3.68296e-09
3.77121e-09
4.06458e-09
4.27229e-09
4.61176e-09
4.57982e-09
4.12301e-09
3.89799e-09
4.09274e-09
4.28638e-09
4.247e-09
4.24449e-09
4.56191e-09
4.63727e-09
5.00568e-09
5.28535e-09
5.67692e-09
5.61427e-09
5.07617e-09
4.82555e-09
5.05474e-09
5.27133e-09
5.23188e-09
5.22882e-09
5.47413e-09
5.53522e-09
5.98575e-09
6.35086e-09
6.78716e-09
6.68244e-09
6.06755e-09
5.8007e-09
6.0636e-09
6.29677e-09
6.26042e-09
6.25522e-09
6.41664e-09
6.45286e-09
6.9924e-09
7.45722e-09
7.92872e-09
7.76943e-09
7.08375e-09
6.81144e-09
7.10705e-09
7.34969e-09
7.32038e-09
7.31093e-09
7.38045e-09
7.38006e-09
8.0156e-09
8.5952e-09
9.09068e-09
8.86375e-09
8.11388e-09
7.84747e-09
8.17461e-09
8.41976e-09
8.40222e-09
8.38569e-09
8.35935e-09
8.30983e-09
9.04862e-09
9.75879e-09
1.02661e-08
9.95845e-09
9.15061e-09
8.90109e-09
9.25863e-09
9.50048e-09
9.50012e-09
9.47276e-09
9.35051e-09
9.23895e-09
1.00887e-08
1.09459e-08
1.14528e-08
1.10515e-08
1.01905e-08
9.96784e-09
1.03551e-08
1.05899e-08
1.06124e-08
1.05696e-08
1.03549e-08
1.01686e-08
1.11378e-08
1.2159e-08
1.26538e-08
1.21463e-08
1.12343e-08
1.10471e-08
1.14642e-08
1.16909e-08
1.17421e-08
1.16786e-08
1.13778e-08
1.1105e-08
1.22035e-08
1.34067e-08
1.38783e-08
1.32516e-08
1.22877e-08
1.21425e-08
1.25914e-08
1.28118e-08
1.28974e-08
1.28076e-08
1.24297e-08
1.206e-08
1.32998e-08
1.47037e-08
1.51415e-08
1.43821e-08
1.33614e-08
1.32636e-08
1.37482e-08
1.39662e-08
1.40919e-08
1.39706e-08
1.35263e-08
1.3051e-08
1.44467e-08
1.60711e-08
1.64651e-08
1.55586e-08
1.44721e-08
1.44252e-08
1.49517e-08
1.51729e-08
1.53452e-08
1.51875e-08
1.46886e-08
1.41002e-08
1.56696e-08
1.75348e-08
1.78762e-08
1.68077e-08
1.56422e-08
1.56468e-08
1.62235e-08
1.64557e-08
1.66827e-08
1.6484e-08
1.59411e-08
1.52345e-08
1.69977e-08
1.91258e-08
1.94084e-08
1.81627e-08
1.68994e-08
1.69524e-08
1.75894e-08
1.78435e-08
1.81351e-08
1.78913e-08
1.73127e-08
1.64854e-08
1.84651e-08
2.08818e-08
2.11032e-08
1.96652e-08
1.82785e-08
1.83716e-08
1.90819e-08
1.93728e-08
1.97408e-08
1.94488e-08
1.88381e-08
1.78904e-08
2.01135e-08
2.28525e-08
2.30159e-08
2.13688e-08
1.98248e-08
1.99442e-08
2.07441e-08
2.10915e-08
2.15507e-08
2.12091e-08
2.05634e-08
1.94979e-08
2.19987e-08
2.51102e-08
2.52243e-08
2.3346e-08
2.16e-08
2.17263e-08
2.26383e-08
2.30656e-08
2.36363e-08
2.32474e-08
2.2553e-08
2.13729e-08
2.41997e-08
2.77629e-08
2.78401e-08
2.56961e-08
2.36895e-08
2.38003e-08
2.48551e-08
2.53884e-08
2.61001e-08
2.56732e-08
2.48998e-08
2.36057e-08
2.68315e-08
3.09716e-08
3.10237e-08
2.85563e-08
2.62128e-08
2.62851e-08
2.75259e-08
2.81918e-08
2.90895e-08
2.86459e-08
2.77384e-08
2.63238e-08
3.00615e-08
3.49708e-08
3.50034e-08
3.21161e-08
2.9336e-08
2.93498e-08
3.08362e-08
3.16603e-08
3.28142e-08
3.23932e-08
3.12615e-08
2.97074e-08
3.41315e-08
4.00965e-08
4.01008e-08
3.66363e-08
3.32881e-08
3.3231e-08
3.50455e-08
3.60501e-08
3.75685e-08
3.72367e-08
3.57434e-08
3.40111e-08
3.93866e-08
4.68267e-08
4.67695e-08
4.24759e-08
3.83846e-08
3.82565e-08
4.0513e-08
4.1715e-08
4.37652e-08
4.36297e-08
4.13784e-08
3.94004e-08
4.6149e-08
5.57155e-08
5.55289e-08
4.99957e-08
4.49002e-08
4.47123e-08
4.75786e-08
4.89917e-08
5.18469e-08
5.20821e-08
4.85265e-08
4.61943e-08
5.49735e-08
6.76825e-08
6.72341e-08
5.97874e-08
5.32955e-08
5.30743e-08
5.67945e-08
5.84329e-08
6.25385e-08
6.34277e-08
5.77558e-08
5.49002e-08
6.67487e-08
8.42316e-08
8.32662e-08
7.27776e-08
6.42845e-08
6.40742e-08
6.90112e-08
7.08976e-08
7.69886e-08
7.89992e-08
6.99411e-08
6.62973e-08
8.29021e-08
1.0785e-07
1.05864e-07
9.04187e-08
7.89668e-08
7.88331e-08
8.5524e-08
8.77149e-08
9.70339e-08
1.00955e-07
8.64036e-08
8.15702e-08
1.05672e-07
1.41032e-07
1.36878e-07
1.14933e-07
9.8971e-08
9.90059e-08
1.07692e-07
1.10878e-07
1.25548e-07
1.32718e-07
1.05544e-07
1.00667e-07
1.31128e-07
1.77832e-07
1.71988e-07
1.43964e-07
1.20736e-07
1.21166e-07
1.3244e-07
1.3772e-07
1.59693e-07
1.70776e-07
1.28532e-07
1.22237e-07
1.6334e-07
2.27383e-07
2.192e-07
1.80045e-07
1.4892e-07
1.49882e-07
1.65013e-07
1.7207e-07
2.03025e-07
2.20016e-07
1.58655e-07
1.50321e-07
2.06183e-07
2.93972e-07
2.82635e-07
2.27821e-07
1.85992e-07
1.87727e-07
2.08063e-07
2.17674e-07
2.61174e-07
2.8692e-07
1.98428e-07
1.87205e-07
2.6316e-07
3.79861e-07
3.64675e-07
2.90696e-07
2.34871e-07
2.37628e-07
2.64898e-07
2.78177e-07
3.37297e-07
3.74858e-07
2.51098e-07
2.35837e-07
3.36149e-07
4.8857e-07
4.68797e-07
3.7043e-07
2.9826e-07
3.02257e-07
3.37384e-07
3.55305e-07
4.34273e-07
4.88488e-07
3.18476e-07
2.98503e-07
4.27518e-07
6.22649e-07
5.97885e-07
4.69868e-07
3.77903e-07
3.8328e-07
4.27542e-07
4.51257e-07
5.55421e-07
6.32039e-07
4.02455e-07
3.76457e-07
5.39564e-07
7.8246e-07
7.52905e-07
5.91341e-07
4.76537e-07
4.83271e-07
5.37358e-07
5.67657e-07
7.02734e-07
8.07183e-07
5.05346e-07
4.71968e-07
6.73285e-07
9.6534e-07
9.31955e-07
7.35706e-07
5.96232e-07
6.04088e-07
6.67406e-07
7.04532e-07
8.75938e-07
1.01155e-06
6.28378e-07
5.8662e-07
8.27802e-07
1.16537e-06
1.12972e-06
9.01662e-07
7.37656e-07
7.46187e-07
8.16443e-07
8.61019e-07
1.07123e-06
1.23816e-06
7.71054e-07
7.20778e-07
1.00009e-06
1.37367e-06
1.33707e-06
1.08541e-06
8.99497e-07
9.08095e-07
9.8174e-07
1.03536e-06
1.28146e-06
1.4764e-06
9.30786e-07
8.7318e-07
1.18516e-06
1.57841e-06
1.54189e-06
1.28088e-06
1.07825e-06
1.0862e-06
1.15966e-06
1.22323e-06
1.49728e-06
1.71462e-06
1.10299e-06
1.04078e-06
1.37665e-06
1.7705e-06
1.73895e-06
1.48045e-06
1.26844e-06
1.27502e-06
1.34563e-06
1.41849e-06
1.70894e-06
1.94033e-06
1.28161e-06
1.21894e-06
1.56756e-06
1.94736e-06
1.9219e-06
1.67605e-06
1.46321e-06
1.46787e-06
1.53421e-06
1.61421e-06
1.90809e-06
2.14191e-06
1.45987e-06
1.40191e-06
1.75121e-06
2.10639e-06
2.0419e-06
1.86014e-06
1.65528e-06
1.65795e-06
1.71967e-06
1.80366e-06
2.08899e-06
2.31588e-06
1.57205e-06
1.58337e-06
1.92191e-06
2.21124e-06
1.99575e-06
2.02622e-06
1.83775e-06
1.83919e-06
1.89669e-06
1.98113e-06
2.09426e-06
2.42239e-06
1.47369e-06
1.75722e-06
2.07528e-06
2.23573e-06
1.94339e-06
2.06418e-06
2.00479e-06
2.00689e-06
2.06089e-06
2.14255e-06
2.00409e-06
2.34347e-06
1.39736e-06
1.81726e-06
2.14868e-06
2.26301e-06
1.90164e-06
1.91844e-06
2.11904e-06
2.15784e-06
2.209e-06
2.08307e-06
1.95612e-06
2.28043e-06
1.36169e-06
1.81881e-06
2.20475e-06
2.29729e-06
1.87143e-06
1.78189e-06
1.98541e-06
2.29022e-06
2.33897e-06
2.02655e-06
1.93913e-06
2.24781e-06
1.35738e-06
1.8306e-06
2.26039e-06
2.3382e-06
1.8524e-06
1.67272e-06
1.85647e-06
2.40325e-06
2.45035e-06
2.00987e-06
1.937e-06
2.2425e-06
1.3753e-06
1.85746e-06
2.31247e-06
2.38201e-06
1.84277e-06
1.58521e-06
1.75891e-06
2.49683e-06
2.54396e-06
2.01186e-06
1.94155e-06
2.25959e-06
1.40947e-06
1.89351e-06
2.35974e-06
2.42819e-06
1.84036e-06
1.51611e-06
1.6872e-06
2.46409e-06
2.62024e-06
2.02595e-06
1.9509e-06
2.29373e-06
1.45613e-06
1.93346e-06
2.4011e-06
2.47711e-06
1.8431e-06
1.4617e-06
1.63423e-06
2.41712e-06
2.68132e-06
2.05154e-06
1.96717e-06
2.3419e-06
1.51304e-06
1.97308e-06
2.43636e-06
2.52912e-06
1.84938e-06
1.41903e-06
1.59447e-06
2.38489e-06
2.72919e-06
2.08901e-06
1.99391e-06
2.40295e-06
1.57922e-06
2.00954e-06
2.46644e-06
2.58442e-06
1.8582e-06
1.38729e-06
1.56584e-06
2.37051e-06
2.76584e-06
2.13855e-06
2.03469e-06
2.47727e-06
1.6548e-06
2.04141e-06
2.49381e-06
2.64327e-06
1.86918e-06
1.36734e-06
1.54867e-06
2.37297e-06
2.79322e-06
2.20019e-06
2.09416e-06
2.56704e-06
1.74097e-06
2.06855e-06
2.5219e-06
2.70689e-06
1.88264e-06
1.36104e-06
1.54459e-06
2.39523e-06
2.81312e-06
2.27419e-06
2.17889e-06
2.67618e-06
1.83991e-06
2.09213e-06
2.5535e-06
2.77463e-06
1.89968e-06
1.37093e-06
1.55585e-06
2.44251e-06
2.827e-06
2.36063e-06
2.29738e-06
2.80987e-06
1.95456e-06
2.11462e-06
2.59136e-06
2.84373e-06
1.92216e-06
1.40015e-06
1.58479e-06
2.5173e-06
2.83598e-06
2.45821e-06
2.46016e-06
2.96052e-06
2.0878e-06
2.13951e-06
2.63829e-06
2.8856e-06
1.95261e-06
1.4525e-06
1.63337e-06
2.61534e-06
2.84085e-06
2.5634e-06
2.67406e-06
2.98753e-06
2.24137e-06
2.17073e-06
2.69563e-06
2.89444e-06
1.9939e-06
1.53233e-06
1.70243e-06
2.7229e-06
2.84198e-06
2.66996e-06
2.90285e-06
2.98609e-06
2.41528e-06
2.21189e-06
2.76153e-06
2.90153e-06
2.04895e-06
1.64408e-06
1.79089e-06
2.75712e-06
2.8395e-06
2.76754e-06
2.92171e-06
2.98316e-06
2.61001e-06
2.26485e-06
2.82862e-06
2.9071e-06
2.12007e-06
1.79087e-06
1.89537e-06
2.75477e-06
2.8333e-06
2.8455e-06
2.92134e-06
2.97869e-06
2.80658e-06
2.328e-06
2.88162e-06
2.91016e-06
2.20809e-06
1.97243e-06
2.01009e-06
2.75178e-06
2.82296e-06
2.87824e-06
2.91796e-06
2.97264e-06
2.84658e-06
2.39588e-06
2.88424e-06
2.91064e-06
2.31144e-06
2.18695e-06
2.12731e-06
2.74633e-06
2.80793e-06
2.86254e-06
2.91135e-06
2.96502e-06
2.85635e-06
2.46128e-06
2.88341e-06
2.90865e-06
2.42521e-06
2.44066e-06
2.24071e-06
2.59552e-06
2.78587e-06
2.84375e-06
2.90149e-06
2.95593e-06
2.86339e-06
2.51736e-06
2.87993e-06
2.90488e-06
2.5403e-06
2.70801e-06
2.34972e-06
2.39893e-06
2.58427e-06
2.82101e-06
2.88842e-06
2.94557e-06
2.86785e-06
2.55866e-06
2.87464e-06
2.90138e-06
2.64415e-06
2.71919e-06
2.46147e-06
2.20003e-06
2.26032e-06
2.79478e-06
2.8729e-06
2.93425e-06
2.87006e-06
2.58222e-06
2.86729e-06
2.89838e-06
2.72541e-06
2.72233e-06
2.57982e-06
2.02831e-06
1.97775e-06
2.72656e-06
2.85674e-06
2.92241e-06
2.87043e-06
2.58866e-06
2.80628e-06
2.89705e-06
2.77326e-06
2.72411e-06
2.68537e-06
1.90363e-06
1.74544e-06
2.64022e-06
2.84212e-06
2.91059e-06
2.8695e-06
2.58259e-06
2.74911e-06
2.89911e-06
2.77988e-06
2.72489e-06
2.68264e-06
1.83629e-06
1.5709e-06
2.55665e-06
2.82843e-06
2.89935e-06
2.86777e-06
2.57203e-06
2.71173e-06
2.9023e-06
2.74592e-06
2.59429e-06
2.68093e-06
1.8297e-06
1.45469e-06
2.48923e-06
2.81625e-06
2.88923e-06
2.86561e-06
2.56655e-06
2.70704e-06
2.90559e-06
2.68288e-06
2.34158e-06
2.68109e-06
1.88092e-06
1.39371e-06
2.45059e-06
2.80612e-06
2.88063e-06
4.63425e-12
4.61198e-12
4.74745e-12
4.98026e-12
5.266e-12
5.34877e-12
5.05465e-12
4.66983e-12
4.69999e-12
5.06934e-12
5.16986e-12
5.05484e-12
4.51139e-12
4.49434e-12
4.6284e-12
4.85325e-12
5.1331e-12
5.2153e-12
4.93156e-12
4.56225e-12
4.5937e-12
4.94552e-12
5.03878e-12
4.92609e-12
7.27882e-12
7.33464e-12
7.59166e-12
7.92217e-12
8.39396e-12
8.5468e-12
8.1453e-12
7.66641e-12
7.75985e-12
8.17039e-12
8.22875e-12
8.03793e-12
2.7783e-11
2.82966e-11
2.94225e-11
3.05434e-11
3.2349e-11
3.29795e-11
3.17274e-11
3.04285e-11
3.09515e-11
3.18549e-11
3.17092e-11
3.09667e-11
1.05614e-10
1.0779e-10
1.1213e-10
1.16127e-10
1.22643e-10
1.24963e-10
1.20832e-10
1.16837e-10
1.18964e-10
1.21365e-10
1.20399e-10
1.17702e-10
3.1362e-10
3.20018e-10
3.32557e-10
3.43717e-10
3.61639e-10
3.68096e-10
3.57528e-10
3.47769e-10
3.53976e-10
3.58961e-10
3.55742e-10
3.48401e-10
7.50887e-10
7.65519e-10
7.94031e-10
8.18863e-10
8.57878e-10
8.7218e-10
8.51184e-10
8.32645e-10
8.46568e-10
8.53568e-10
8.45815e-10
8.30332e-10
1.51793e-09
1.5455e-09
1.59911e-09
1.64537e-09
1.71602e-09
1.74266e-09
1.70919e-09
1.68086e-09
1.70601e-09
1.71062e-09
1.69601e-09
1.66954e-09
2.6858e-09
2.72956e-09
2.81693e-09
2.89233e-09
3.00314e-09
3.04613e-09
3.00265e-09
2.96705e-09
3.00466e-09
2.99718e-09
2.97557e-09
2.93763e-09
4.27528e-09
4.33556e-09
4.4621e-09
4.57348e-09
4.72881e-09
4.79197e-09
4.74624e-09
4.70799e-09
4.75517e-09
4.723e-09
4.6976e-09
4.65063e-09
6.25458e-09
6.32754e-09
6.49427e-09
6.64709e-09
6.84672e-09
6.93426e-09
6.89847e-09
6.86165e-09
6.91059e-09
6.84206e-09
6.82017e-09
6.76875e-09
8.55126e-09
8.62898e-09
8.81119e-09
8.96002e-09
9.19718e-09
9.36029e-09
9.36575e-09
9.28467e-09
9.29048e-09
9.2282e-09
9.21797e-09
9.14198e-09
1.06532e-08
1.07319e-08
1.08954e-08
1.10661e-08
1.13426e-08
1.15546e-08
1.15899e-08
1.14919e-08
1.14795e-08
1.13998e-08
1.14022e-08
1.13183e-08
1.28435e-08
1.29168e-08
1.30804e-08
1.3271e-08
1.35846e-08
1.38508e-08
1.39258e-08
1.38124e-08
1.37769e-08
1.36757e-08
1.3696e-08
1.3609e-08
1.51248e-08
1.51857e-08
1.53402e-08
1.55496e-08
1.58975e-08
1.62229e-08
1.63482e-08
1.62208e-08
1.61572e-08
1.60304e-08
1.60742e-08
1.59896e-08
1.74771e-08
1.75169e-08
1.76529e-08
1.78825e-08
1.82614e-08
1.86511e-08
1.88368e-08
1.86971e-08
1.85996e-08
1.8444e-08
1.85171e-08
1.8441e-08
1.98862e-08
1.98945e-08
2.00033e-08
2.0258e-08
2.06654e-08
2.11241e-08
2.13787e-08
2.12282e-08
2.10915e-08
2.09055e-08
2.10134e-08
2.09521e-08
2.23444e-08
2.23096e-08
2.23846e-08
2.26739e-08
2.31085e-08
2.36392e-08
2.39688e-08
2.38089e-08
2.3629e-08
2.34128e-08
2.35607e-08
2.35213e-08
2.48517e-08
2.47616e-08
2.48002e-08
2.51396e-08
2.56009e-08
2.62032e-08
2.66099e-08
2.64426e-08
2.62184e-08
2.59724e-08
2.61662e-08
2.61579e-08
2.7417e-08
2.72588e-08
2.72644e-08
2.76762e-08
2.81636e-08
2.88323e-08
2.9314e-08
2.91429e-08
2.88765e-08
2.85993e-08
2.88473e-08
2.88829e-08
3.00585e-08
2.98189e-08
2.98035e-08
3.03163e-08
3.08287e-08
3.15527e-08
3.21027e-08
3.19338e-08
3.16309e-08
3.13169e-08
3.16324e-08
3.17284e-08
3.28028e-08
3.24677e-08
3.24523e-08
3.31019e-08
3.3637e-08
3.43999e-08
3.5006e-08
3.48483e-08
3.45169e-08
3.41562e-08
3.45582e-08
3.47364e-08
3.56817e-08
3.52357e-08
3.52501e-08
3.60815e-08
3.66367e-08
3.74164e-08
3.80599e-08
3.7925e-08
3.75751e-08
3.71541e-08
3.76684e-08
3.79561e-08
3.87288e-08
3.8154e-08
3.82377e-08
3.93087e-08
3.98837e-08
4.06505e-08
4.13066e-08
4.1206e-08
4.08499e-08
4.03532e-08
4.10138e-08
4.14448e-08
4.19787e-08
4.12538e-08
4.14579e-08
4.28478e-08
4.34465e-08
4.4161e-08
4.47957e-08
4.47382e-08
4.4392e-08
4.38034e-08
4.46565e-08
4.52733e-08
4.54699e-08
4.45689e-08
4.49617e-08
4.67847e-08
4.74155e-08
4.8023e-08
4.85889e-08
4.85796e-08
4.82653e-08
4.75677e-08
4.86782e-08
4.95372e-08
4.92534e-08
4.81425e-08
4.88197e-08
5.12434e-08
5.19165e-08
5.23383e-08
5.27692e-08
5.28096e-08
5.25574e-08
5.17305e-08
5.31928e-08
5.43719e-08
5.34033e-08
5.20369e-08
5.31372e-08
5.6404e-08
5.71238e-08
5.72465e-08
5.74509e-08
5.75402e-08
5.73902e-08
5.64079e-08
5.83602e-08
5.99687e-08
5.80303e-08
5.63454e-08
5.80716e-08
6.25183e-08
6.32735e-08
6.29346e-08
6.27903e-08
6.29269e-08
6.29298e-08
6.17572e-08
6.43993e-08
6.65882e-08
6.32951e-08
6.12056e-08
6.38487e-08
6.99239e-08
7.06742e-08
6.96467e-08
6.8996e-08
6.91796e-08
6.9396e-08
6.79875e-08
7.15992e-08
7.45711e-08
6.94251e-08
6.68162e-08
7.07803e-08
7.905e-08
7.97153e-08
7.76898e-08
7.63325e-08
7.65617e-08
7.70624e-08
7.53681e-08
8.03234e-08
8.43417e-08
7.67107e-08
7.34493e-08
7.9262e-08
9.04511e-08
9.09003e-08
8.74436e-08
8.51173e-08
8.53842e-08
8.6266e-08
8.42352e-08
9.10312e-08
9.64491e-08
8.54865e-08
8.1398e-08
8.98152e-08
1.04987e-07
1.05001e-07
9.94626e-08
9.57995e-08
9.60926e-08
9.75034e-08
9.50621e-08
1.04424e-07
1.11757e-07
9.62991e-08
9.1153e-08
1.03288e-07
1.24036e-07
1.23232e-07
1.14612e-07
1.09089e-07
1.09401e-07
1.11566e-07
1.08602e-07
1.21606e-07
1.31619e-07
1.09992e-07
1.03469e-07
1.21038e-07
1.49804e-07
1.47475e-07
1.34202e-07
1.26072e-07
1.26417e-07
1.29684e-07
1.26012e-07
1.44294e-07
1.58135e-07
1.27892e-07
1.19517e-07
1.45302e-07
1.85977e-07
1.8074e-07
1.60233e-07
1.48426e-07
1.48899e-07
1.53778e-07
1.49109e-07
1.75211e-07
1.94637e-07
1.52091e-07
1.41175e-07
1.79739e-07
2.3847e-07
2.27715e-07
1.95846e-07
1.7872e-07
1.79571e-07
1.84277e-07
1.8053e-07
2.18485e-07
2.46567e-07
1.81479e-07
1.70277e-07
2.19799e-07
2.95803e-07
2.8308e-07
2.4501e-07
2.15699e-07
2.13924e-07
2.14618e-07
2.12247e-07
2.67998e-07
3.19939e-07
2.12378e-07
1.98433e-07
2.64277e-07
3.64611e-07
3.46865e-07
2.94642e-07
2.55141e-07
2.52895e-07
2.54191e-07
2.51971e-07
3.25616e-07
3.94144e-07
2.53288e-07
2.3572e-07
3.23285e-07
4.50374e-07
4.26564e-07
3.58931e-07
3.07158e-07
3.04421e-07
3.06185e-07
3.04229e-07
3.9888e-07
4.8845e-07
3.07408e-07
2.85391e-07
3.97001e-07
5.55469e-07
5.24601e-07
4.38516e-07
3.7242e-07
3.69072e-07
3.70572e-07
3.69659e-07
4.89289e-07
6.05521e-07
3.75123e-07
3.48846e-07
4.87386e-07
6.81533e-07
6.43185e-07
5.35773e-07
4.52047e-07
4.47924e-07
4.48865e-07
4.499e-07
5.9938e-07
7.48519e-07
4.58045e-07
4.27166e-07
5.96264e-07
8.28675e-07
7.83358e-07
6.52796e-07
5.48035e-07
5.42894e-07
5.43064e-07
5.47365e-07
7.31189e-07
9.17019e-07
5.58164e-07
5.22568e-07
7.24393e-07
9.95035e-07
9.44401e-07
7.90647e-07
6.61874e-07
6.5532e-07
6.5474e-07
6.6405e-07
8.8674e-07
1.10505e-06
6.76706e-07
6.3667e-07
8.71019e-07
1.1767e-06
1.12343e-06
9.48783e-07
7.94144e-07
7.85583e-07
7.84712e-07
8.00917e-07
1.06846e-06
1.30557e-06
8.13686e-07
7.69941e-07
1.03367e-06
1.3681e-06
1.31541e-06
1.1246e-06
9.44164e-07
9.32802e-07
9.32623e-07
9.57087e-07
1.26756e-06
1.51174e-06
9.67564e-07