/*--------------------------------*- C++ -*----------------------------------*\
| =========                 |                                                 |
| \\      /  F ield         | OpenFOAM: The Open Source CFD Toolbox           |
|  \\    /   O peration     | Version:  v1912                                 |
|   \\  /    A nd           | Website:  www.openfoam.com                      |
|    \\/     M anipulation  |                                                 |
\*---------------------------------------------------------------------------*/
FoamFile
{
    version     2.0;
    format      ascii;
    class       volScalarField;
    location    "10.8";
    object      pPrime2Mean;
}
// * * * * * * * * * * * * * * * * * * * * * * * * * * * * * * * * * * * * * //

dimensions      [2 -2 -4 0 0 0 0];


internalField   nonuniform List<scalar> 
34128
(
3068.04
3068.07
3068.08
3068.07
3068.06
3068.04
3068
3067.95
3067.88
3067.79
3067.67
3067.53
3064.72
3064.75
3064.76
3064.76
3064.75
3064.73
3064.69
3064.64
3064.57
3064.48
3064.37
3064.23
3059.59
3059.62
3059.63
3059.63
3059.61
3059.6
3059.56
3059.51
3059.44
3059.35
3059.24
3059.11
3056.26
3056.29
3056.3
3056.3
3056.29
3056.27
3056.23
3056.18
3056.11
3056.03
3055.92
3055.79
3055.39
3055.42
3055.43
3055.42
3055.41
3055.4
3055.36
3055.31
3055.24
3055.16
3055.05
3054.92
3055.43
3055.46
3055.46
3055.46
3055.45
3055.43
3055.39
3055.34
3055.28
3055.19
3055.09
3054.95
3055.46
3055.49
3055.49
3055.49
3055.48
3055.46
3055.43
3055.38
3055.31
3055.22
3055.12
3054.99
3055.48
3055.51
3055.52
3055.52
3055.51
3055.49
3055.45
3055.4
3055.33
3055.25
3055.14
3055.01
3055.5
3055.53
3055.54
3055.54
3055.53
3055.51
3055.47
3055.42
3055.35
3055.26
3055.16
3055.03
3055.52
3055.55
3055.55
3055.55
3055.54
3055.52
3055.48
3055.43
3055.37
3055.28
3055.17
3055.04
3055.52
3055.55
3055.56
3055.56
3055.55
3055.53
3055.49
3055.44
3055.37
3055.28
3055.18
3055.05
3055.53
3055.55
3055.56
3055.56
3055.55
3055.53
3055.49
3055.44
3055.37
3055.29
3055.18
3055.05
3055.52
3055.55
3055.56
3055.56
3055.55
3055.53
3055.49
3055.44
3055.37
3055.28
3055.17
3055.04
3055.51
3055.54
3055.55
3055.55
3055.54
3055.52
3055.48
3055.43
3055.36
3055.27
3055.16
3055.03
3055.5
3055.53
3055.53
3055.54
3055.53
3055.51
3055.47
3055.42
3055.35
3055.26
3055.15
3055.02
3055.48
3055.51
3055.52
3055.52
3055.51
3055.49
3055.45
3055.4
3055.33
3055.24
3055.13
3054.99
3055.45
3055.48
3055.49
3055.49
3055.48
3055.46
3055.42
3055.37
3055.3
3055.21
3055.1
3054.97
3055.42
3055.45
3055.46
3055.46
3055.45
3055.43
3055.39
3055.34
3055.27
3055.18
3055.07
3054.94
3055.39
3055.42
3055.43
3055.43
3055.42
3055.4
3055.36
3055.31
3055.24
3055.14
3055.03
3054.9
3055.35
3055.38
3055.39
3055.39
3055.38
3055.36
3055.32
3055.27
3055.2
3055.1
3054.99
3054.86
3055.3
3055.34
3055.35
3055.35
3055.34
3055.32
3055.28
3055.22
3055.15
3055.06
3054.95
3054.81
3055.25
3055.29
3055.3
3055.3
3055.29
3055.27
3055.23
3055.18
3055.1
3055.01
3054.9
3054.76
3055.2
3055.23
3055.24
3055.25
3055.24
3055.22
3055.18
3055.12
3055.05
3054.95
3054.84
3054.71
3055.14
3055.18
3055.19
3055.19
3055.18
3055.16
3055.12
3055.06
3054.99
3054.89
3054.78
3054.65
3055.08
3055.11
3055.12
3055.13
3055.12
3055.1
3055.06
3055
3054.92
3054.83
3054.72
3054.58
3055.01
3055.05
3055.06
3055.06
3055.05
3055.03
3054.99
3054.93
3054.86
3054.76
3054.65
3054.51
3054.94
3054.98
3054.99
3054.99
3054.98
3054.96
3054.92
3054.86
3054.78
3054.69
3054.57
3054.44
3054.86
3054.9
3054.91
3054.92
3054.91
3054.89
3054.84
3054.79
3054.71
3054.61
3054.49
3054.36
3054.78
3054.82
3054.83
3054.84
3054.83
3054.81
3054.77
3054.71
3054.63
3054.53
3054.41
3054.28
3054.7
3054.74
3054.75
3054.76
3054.75
3054.72
3054.68
3054.62
3054.54
3054.44
3054.33
3054.19
3054.61
3054.65
3054.66
3054.67
3054.66
3054.64
3054.6
3054.54
3054.46
3054.35
3054.24
3054.1
3054.52
3054.56
3054.57
3054.58
3054.57
3054.55
3054.5
3054.44
3054.36
3054.26
3054.14
3054.01
3054.42
3054.46
3054.48
3054.49
3054.48
3054.45
3054.41
3054.35
3054.27
3054.17
3054.05
3053.91
3054.32
3054.37
3054.38
3054.39
3054.38
3054.36
3054.31
3054.25
3054.17
3054.07
3053.95
3053.81
3054.22
3054.26
3054.28
3054.29
3054.28
3054.26
3054.21
3054.15
3054.07
3053.96
3053.84
3053.71
3054.11
3054.16
3054.18
3054.19
3054.18
3054.15
3054.11
3054.05
3053.96
3053.86
3053.73
3053.6
3054.01
3054.05
3054.07
3054.08
3054.07
3054.05
3054
3053.94
3053.85
3053.75
3053.62
3053.49
3053.9
3053.94
3053.96
3053.97
3053.97
3053.94
3053.89
3053.83
3053.74
3053.64
3053.51
3053.38
3053.78
3053.83
3053.85
3053.86
3053.85
3053.83
3053.78
3053.72
3053.63
3053.52
3053.4
3053.26
3053.67
3053.72
3053.74
3053.75
3053.74
3053.72
3053.67
3053.6
3053.51
3053.4
3053.28
3053.14
3053.55
3053.6
3053.62
3053.63
3053.63
3053.6
3053.55
3053.48
3053.39
3053.29
3053.16
3053.02
3053.43
3053.48
3053.51
3053.52
3053.51
3053.48
3053.43
3053.36
3053.27
3053.16
3053.04
3052.9
3053.31
3053.36
3053.39
3053.4
3053.39
3053.36
3053.31
3053.24
3053.15
3053.04
3052.91
3052.78
3053.18
3053.24
3053.26
3053.28
3053.27
3053.24
3053.19
3053.12
3053.03
3052.92
3052.79
3052.65
3053.06
3053.11
3053.14
3053.15
3053.15
3053.12
3053.07
3053
3052.9
3052.79
3052.66
3052.53
3052.93
3052.99
3053.02
3053.03
3053.02
3053
3052.94
3052.87
3052.78
3052.66
3052.54
3052.4
3052.81
3052.86
3052.89
3052.91
3052.9
3052.87
3052.82
3052.75
3052.65
3052.54
3052.41
3052.27
3052.68
3052.74
3052.77
3052.78
3052.78
3052.75
3052.69
3052.62
3052.52
3052.41
3052.28
3052.14
3052.55
3052.61
3052.64
3052.66
3052.65
3052.62
3052.57
3052.49
3052.4
3052.28
3052.15
3052.01
3052.42
3052.48
3052.52
3052.53
3052.53
3052.5
3052.44
3052.36
3052.27
3052.15
3052.02
3051.88
3052.3
3052.36
3052.39
3052.41
3052.4
3052.37
3052.32
3052.24
3052.14
3052.02
3051.89
3051.75
3052.17
3052.23
3052.27
3052.28
3052.28
3052.25
3052.19
3052.11
3052.01
3051.89
3051.76
3051.63
3052.04
3052.11
3052.15
3052.16
3052.15
3052.12
3052.07
3051.99
3051.89
3051.77
3051.63
3051.5
3051.92
3051.98
3052.02
3052.04
3052.03
3052
3051.94
3051.86
3051.76
3051.64
3051.51
3051.37
3051.8
3051.86
3051.9
3051.92
3051.91
3051.88
3051.82
3051.74
3051.64
3051.51
3051.38
3051.25
3051.67
3051.74
3051.78
3051.8
3051.79
3051.76
3051.7
3051.62
3051.51
3051.39
3051.26
3051.12
3051.55
3051.62
3051.66
3051.68
3051.67
3051.64
3051.58
3051.5
3051.39
3051.27
3051.14
3051
3051.44
3051.5
3051.55
3051.57
3051.56
3051.52
3051.46
3051.38
3051.27
3051.15
3051.02
3050.88
3051.32
3051.39
3051.43
3051.45
3051.45
3051.41
3051.35
3051.26
3051.16
3051.03
3050.9
3050.77
3051.21
3051.28
3051.33
3051.34
3051.34
3051.3
3051.24
3051.15
3051.05
3050.92
3050.79
3050.65
3051.1
3051.17
3051.22
3051.24
3051.23
3051.2
3051.13
3051.04
3050.94
3050.81
3050.68
3050.55
3051
3051.07
3051.12
3051.14
3051.13
3051.09
3051.03
3050.94
3050.83
3050.71
3050.57
3050.44
3050.9
3050.97
3051.02
3051.04
3051.03
3051
3050.93
3050.84
3050.73
3050.61
3050.47
3050.34
3050.81
3050.88
3050.93
3050.95
3050.94
3050.9
3050.84
3050.75
3050.64
3050.51
3050.38
3050.25
3050.72
3050.79
3050.84
3050.86
3050.86
3050.82
3050.75
3050.66
3050.55
3050.42
3050.29
3050.16
3050.64
3050.71
3050.76
3050.78
3050.78
3050.74
3050.67
3050.58
3050.47
3050.34
3050.21
3050.08
3050.57
3050.64
3050.69
3050.71
3050.71
3050.67
3050.6
3050.51
3050.4
3050.27
3050.14
3050.01
3050.51
3050.58
3050.63
3050.66
3050.65
3050.61
3050.54
3050.45
3050.34
3050.21
3050.08
3049.95
3050.46
3050.53
3050.59
3050.61
3050.6
3050.56
3050.5
3050.4
3050.29
3050.16
3050.03
3049.9
3050.43
3050.5
3050.55
3050.58
3050.57
3050.53
3050.46
3050.37
3050.26
3050.13
3050
3049.87
3050.41
3050.48
3050.54
3050.56
3050.56
3050.52
3050.45
3050.35
3050.24
3050.11
3049.98
3049.85
3050.41
3050.49
3050.54
3050.57
3050.56
3050.52
3050.45
3050.36
3050.25
3050.12
3049.99
3049.86
3050.44
3050.51
3050.57
3050.59
3050.59
3050.55
3050.48
3050.39
3050.27
3050.15
3050.02
3049.89
3050.49
3050.56
3050.62
3050.65
3050.64
3050.6
3050.53
3050.44
3050.33
3050.2
3050.07
3049.94
3050.56
3050.64
3050.7
3050.72
3050.72
3050.68
3050.61
3050.52
3050.4
3050.28
3050.15
3050.02
3050.65
3050.73
3050.79
3050.82
3050.82
3050.78
3050.71
3050.61
3050.5
3050.37
3050.24
3050.12
3050.76
3050.84
3050.9
3050.93
3050.93
3050.89
3050.82
3050.73
3050.61
3050.49
3050.36
3050.23
3050.88
3050.96
3051.02
3051.05
3051.05
3051.01
3050.94
3050.85
3050.73
3050.61
3050.48
3050.35
3050.98
3051.07
3051.13
3051.16
3051.16
3051.12
3051.06
3050.96
3050.84
3050.72
3050.59
3050.46
3403.53
3403.6
3403.64
3403.65
3403.64
3403.61
3403.56
3403.49
3403.4
3403.28
3403.14
3402.96
3399.97
3400.03
3400.06
3400.08
3400.07
3400.04
3399.99
3399.93
3399.83
3399.72
3399.57
3399.4
3394.44
3394.51
3394.54
3394.55
3394.54
3394.51
3394.47
3394.4
3394.31
3394.2
3394.06
3393.89
3390.86
3390.93
3390.95
3390.96
3390.96
3390.93
3390.89
3390.82
3390.73
3390.62
3390.49
3390.32
3389.93
3389.99
3390.02
3390.03
3390.02
3389.99
3389.95
3389.88
3389.8
3389.69
3389.55
3389.39
3389.96
3390.02
3390.05
3390.06
3390.06
3390.03
3389.98
3389.92
3389.83
3389.72
3389.59
3389.42
3390
3390.06
3390.09
3390.1
3390.09
3390.07
3390.02
3389.95
3389.87
3389.76
3389.62
3389.46
3390.02
3390.09
3390.11
3390.12
3390.12
3390.09
3390.05
3389.98
3389.89
3389.78
3389.65
3389.48
3390.04
3390.11
3390.13
3390.15
3390.14
3390.11
3390.07
3390
3389.91
3389.8
3389.67
3389.5
3390.06
3390.12
3390.15
3390.16
3390.15
3390.13
3390.08
3390.02
3389.93
3389.82
3389.68
3389.51
3390.07
3390.13
3390.16
3390.17
3390.16
3390.14
3390.09
3390.02
3389.93
3389.82
3389.69
3389.52
3390.07
3390.13
3390.16
3390.17
3390.16
3390.14
3390.09
3390.03
3389.94
3389.82
3389.69
3389.52
3390.06
3390.13
3390.16
3390.17
3390.16
3390.14
3390.09
3390.02
3389.93
3389.82
3389.68
3389.51
3390.05
3390.12
3390.15
3390.16
3390.15
3390.13
3390.08
3390.01
3389.92
3389.81
3389.67
3389.5
3390.04
3390.1
3390.13
3390.14
3390.14
3390.11
3390.06
3390
3389.91
3389.79
3389.65
3389.49
3390.02
3390.08
3390.11
3390.12
3390.12
3390.09
3390.04
3389.98
3389.88
3389.77
3389.63
3389.46
3389.99
3390.05
3390.08
3390.1
3390.09
3390.07
3390.02
3389.95
3389.86
3389.74
3389.6
3389.44
3389.96
3390.02
3390.05
3390.07
3390.06
3390.03
3389.98
3389.92
3389.82
3389.71
3389.57
3389.4
3389.92
3389.99
3390.02
3390.03
3390.02
3390
3389.95
3389.88
3389.79
3389.67
3389.53
3389.36
3389.88
3389.94
3389.98
3389.99
3389.98
3389.96
3389.91
3389.84
3389.74
3389.63
3389.49
3389.32
3389.83
3389.9
3389.93
3389.94
3389.94
3389.91
3389.86
3389.79
3389.7
3389.58
3389.44
3389.27
3389.78
3389.84
3389.88
3389.89
3389.88
3389.86
3389.81
3389.74
3389.64
3389.52
3389.38
3389.22
3389.72
3389.79
3389.82
3389.83
3389.83
3389.8
3389.75
3389.68
3389.58
3389.47
3389.32
3389.16
3389.66
3389.72
3389.76
3389.77
3389.77
3389.74
3389.69
3389.62
3389.52
3389.4
3389.26
3389.09
3389.59
3389.66
3389.69
3389.71
3389.7
3389.67
3389.62
3389.55
3389.45
3389.33
3389.19
3389.02
3389.52
3389.59
3389.62
3389.64
3389.63
3389.6
3389.55
3389.48
3389.38
3389.26
3389.12
3388.95
3389.44
3389.51
3389.54
3389.56
3389.55
3389.53
3389.47
3389.4
3389.3
3389.18
3389.04
3388.87
3389.36
3389.43
3389.46
3389.48
3389.48
3389.45
3389.39
3389.32
3389.22
3389.1
3388.95
3388.79
3389.27
3389.34
3389.38
3389.4
3389.39
3389.36
3389.31
3389.24
3389.14
3389.01
3388.87
3388.7
3389.18
3389.25
3389.29
3389.31
3389.3
3389.28
3389.22
3389.15
3389.05
3388.92
3388.77
3388.61
3389.09
3389.16
3389.2
3389.22
3389.21
3389.18
3389.13
3389.05
3388.95
3388.83
3388.68
3388.51
3388.99
3389.06
3389.1
3389.12
3389.12
3389.09
3389.03
3388.96
3388.85
3388.73
3388.58
3388.41
3388.89
3388.96
3389
3389.02
3389.02
3388.99
3388.93
3388.85
3388.75
3388.63
3388.48
3388.31
3388.78
3388.86
3388.9
3388.92
3388.91
3388.88
3388.83
3388.75
3388.65
3388.52
3388.37
3388.2
3388.67
3388.75
3388.79
3388.81
3388.81
3388.78
3388.72
3388.64
3388.54
3388.41
3388.26
3388.09
3388.56
3388.64
3388.68
3388.7
3388.7
3388.67
3388.61
3388.53
3388.43
3388.3
3388.14
3387.98
3388.44
3388.52
3388.57
3388.59
3388.58
3388.55
3388.5
3388.42
3388.31
3388.18
3388.03
3387.86
3388.33
3388.41
3388.45
3388.47
3388.47
3388.44
3388.38
3388.3
3388.19
3388.06
3387.91
3387.74
3388.21
3388.29
3388.33
3388.36
3388.35
3388.32
3388.26
3388.18
3388.07
3387.94
3387.78
3387.62
3388.08
3388.17
3388.21
3388.24
3388.23
3388.2
3388.14
3388.06
3387.95
3387.81
3387.66
3387.49
3387.96
3388.04
3388.09
3388.11
3388.11
3388.08
3388.02
3387.93
3387.82
3387.69
3387.53
3387.36
3387.83
3387.92
3387.96
3387.99
3387.98
3387.95
3387.89
3387.81
3387.7
3387.56
3387.4
3387.23
3387.7
3387.79
3387.84
3387.86
3387.86
3387.82
3387.76
3387.68
3387.57
3387.43
3387.27
3387.1
3387.57
3387.66
3387.71
3387.73
3387.73
3387.7
3387.63
3387.55
3387.43
3387.3
3387.14
3386.97
3387.44
3387.53
3387.58
3387.6
3387.6
3387.57
3387.5
3387.42
3387.3
3387.16
3387.01
3386.84
3387.3
3387.39
3387.45
3387.47
3387.47
3387.44
3387.37
3387.28
3387.17
3387.03
3386.87
3386.7
3387.17
3387.26
3387.32
3387.34
3387.34
3387.3
3387.24
3387.15
3387.03
3386.89
3386.74
3386.57
3387.04
3387.13
3387.18
3387.21
3387.21
3387.17
3387.11
3387.02
3386.9
3386.76
3386.6
3386.43
3386.9
3386.99
3387.05
3387.08
3387.07
3387.04
3386.97
3386.88
3386.76
3386.62
3386.46
3386.29
3386.77
3386.86
3386.92
3386.95
3386.94
3386.91
3386.84
3386.75
3386.63
3386.49
3386.33
3386.16
3386.63
3386.73
3386.79
3386.81
3386.81
3386.78
3386.71
3386.61
3386.49
3386.35
3386.19
3386.02
3386.5
3386.59
3386.65
3386.68
3386.68
3386.64
3386.58
3386.48
3386.36
3386.22
3386.05
3385.89
3386.37
3386.46
3386.52
3386.55
3386.55
3386.51
3386.44
3386.35
3386.23
3386.08
3385.92
3385.75
3386.24
3386.33
3386.39
3386.42
3386.42
3386.38
3386.31
3386.22
3386.09
3385.95
3385.79
3385.62
3386.11
3386.2
3386.27
3386.3
3386.29
3386.26
3386.19
3386.09
3385.96
3385.82
3385.66
3385.49
3385.98
3386.08
3386.14
3386.17
3386.17
3386.13
3386.06
3385.96
3385.83
3385.69
3385.53
3385.36
3385.85
3385.95
3386.02
3386.05
3386.04
3386
3385.93
3385.83
3385.71
3385.56
3385.4
3385.23
3385.73
3385.83
3385.89
3385.92
3385.92
3385.88
3385.81
3385.71
3385.58
3385.43
3385.27
3385.11
3385.61
3385.71
3385.77
3385.81
3385.8
3385.76
3385.69
3385.59
3385.46
3385.31
3385.15
3384.98
3385.49
3385.59
3385.66
3385.69
3385.69
3385.65
3385.57
3385.47
3385.34
3385.19
3385.03
3384.87
3385.38
3385.48
3385.55
3385.58
3385.58
3385.54
3385.46
3385.36
3385.23
3385.08
3384.92
3384.75
3385.27
3385.37
3385.44
3385.47
3385.47
3385.43
3385.35
3385.25
3385.12
3384.97
3384.81
3384.64
3385.16
3385.27
3385.34
3385.37
3385.37
3385.32
3385.25
3385.14
3385.01
3384.86
3384.7
3384.54
3385.07
3385.17
3385.24
3385.27
3385.27
3385.23
3385.15
3385.04
3384.91
3384.76
3384.6
3384.44
3384.97
3385.08
3385.15
3385.18
3385.18
3385.14
3385.06
3384.95
3384.82
3384.67
3384.51
3384.35
3384.89
3384.99
3385.07
3385.1
3385.1
3385.05
3384.98
3384.87
3384.74
3384.58
3384.42
3384.26
3384.82
3384.92
3384.99
3385.03
3385.02
3384.98
3384.9
3384.79
3384.66
3384.51
3384.35
3384.19
3384.75
3384.86
3384.93
3384.96
3384.96
3384.92
3384.84
3384.73
3384.6
3384.44
3384.28
3384.13
3384.7
3384.8
3384.88
3384.91
3384.91
3384.87
3384.79
3384.68
3384.55
3384.39
3384.23
3384.08
3384.67
3384.77
3384.84
3384.88
3384.88
3384.83
3384.76
3384.65
3384.51
3384.36
3384.2
3384.04
3384.65
3384.75
3384.83
3384.86
3384.86
3384.82
3384.74
3384.63
3384.5
3384.34
3384.19
3384.03
3384.66
3384.76
3384.83
3384.87
3384.87
3384.83
3384.75
3384.64
3384.5
3384.35
3384.19
3384.04
3384.68
3384.79
3384.86
3384.9
3384.9
3384.86
3384.78
3384.67
3384.53
3384.38
3384.23
3384.07
3384.74
3384.84
3384.92
3384.96
3384.96
3384.91
3384.83
3384.72
3384.59
3384.44
3384.28
3384.13
3384.82
3384.92
3385
3385.04
3385.04
3385
3384.92
3384.81
3384.67
3384.52
3384.37
3384.22
3384.92
3385.03
3385.11
3385.14
3385.14
3385.1
3385.02
3384.91
3384.78
3384.63
3384.47
3384.32
3385.04
3385.15
3385.23
3385.27
3385.27
3385.22
3385.15
3385.04
3384.9
3384.75
3384.6
3384.44
3385.16
3385.27
3385.35
3385.39
3385.39
3385.35
3385.27
3385.16
3385.03
3384.88
3384.72
3384.57
3385.27
3385.38
3385.46
3385.51
3385.51
3385.47
3385.39
3385.28
3385.14
3384.99
3384.83
3384.68
3758.55
3758.55
3758.52
3758.49
3758.46
3758.41
3758.36
3758.29
3758.22
3758.13
3758.03
3757.9
3754.69
3754.68
3754.65
3754.63
3754.59
3754.55
3754.49
3754.43
3754.36
3754.27
3754.17
3754.05
3748.71
3748.7
3748.67
3748.64
3748.61
3748.57
3748.51
3748.45
3748.38
3748.3
3748.2
3748.08
3744.83
3744.82
3744.79
3744.77
3744.73
3744.69
3744.64
3744.58
3744.51
3744.43
3744.34
3744.22
3743.81
3743.81
3743.78
3743.75
3743.71
3743.67
3743.62
3743.56
3743.49
3743.41
3743.32
3743.2
3743.85
3743.85
3743.82
3743.79
3743.75
3743.71
3743.66
3743.6
3743.53
3743.45
3743.36
3743.24
3743.89
3743.88
3743.85
3743.82
3743.79
3743.75
3743.7
3743.64
3743.57
3743.49
3743.4
3743.28
3743.92
3743.91
3743.88
3743.85
3743.82
3743.78
3743.73
3743.67
3743.6
3743.52
3743.43
3743.3
3743.94
3743.93
3743.9
3743.88
3743.84
3743.8
3743.75
3743.69
3743.62
3743.54
3743.45
3743.32
3743.95
3743.95
3743.92
3743.89
3743.86
3743.82
3743.77
3743.71
3743.63
3743.55
3743.46
3743.34
3743.96
3743.96
3743.93
3743.9
3743.87
3743.83
3743.77
3743.71
3743.64
3743.56
3743.47
3743.34
3743.96
3743.96
3743.93
3743.9
3743.87
3743.83
3743.78
3743.71
3743.64
3743.56
3743.47
3743.34
3743.96
3743.95
3743.92
3743.9
3743.86
3743.82
3743.77
3743.71
3743.64
3743.55
3743.46
3743.34
3743.94
3743.94
3743.91
3743.89
3743.85
3743.81
3743.76
3743.7
3743.63
3743.54
3743.45
3743.32
3743.93
3743.92
3743.9
3743.87
3743.84
3743.8
3743.74
3743.68
3743.61
3743.52
3743.43
3743.3
3743.9
3743.9
3743.87
3743.85
3743.81
3743.77
3743.72
3743.66
3743.58
3743.5
3743.4
3743.28
3743.87
3743.87
3743.84
3743.82
3743.79
3743.74
3743.69
3743.63
3743.55
3743.47
3743.37
3743.25
3743.84
3743.83
3743.81
3743.78
3743.75
3743.71
3743.66
3743.59
3743.52
3743.43
3743.33
3743.21
3743.79
3743.79
3743.77
3743.74
3743.71
3743.67
3743.62
3743.55
3743.48
3743.39
3743.29
3743.17
3743.75
3743.75
3743.72
3743.7
3743.67
3743.62
3743.57
3743.5
3743.43
3743.34
3743.24
3743.12
3743.69
3743.69
3743.67
3743.65
3743.61
3743.57
3743.52
3743.45
3743.38
3743.29
3743.19
3743.06
3743.63
3743.63
3743.61
3743.59
3743.56
3743.52
3743.46
3743.39
3743.32
3743.23
3743.12
3743
3743.57
3743.57
3743.55
3743.53
3743.5
3743.45
3743.4
3743.33
3743.25
3743.16
3743.06
3742.94
3743.5
3743.5
3743.48
3743.46
3743.43
3743.39
3743.33
3743.26
3743.18
3743.09
3742.99
3742.86
3743.42
3743.43
3743.41
3743.39
3743.36
3743.31
3743.26
3743.19
3743.11
3743.02
3742.91
3742.79
3743.34
3743.35
3743.33
3743.31
3743.28
3743.24
3743.18
3743.11
3743.03
3742.93
3742.83
3742.7
3743.26
3743.26
3743.25
3743.23
3743.2
3743.15
3743.09
3743.03
3742.94
3742.85
3742.74
3742.62
3743.17
3743.17
3743.16
3743.14
3743.11
3743.07
3743.01
3742.94
3742.85
3742.76
3742.65
3742.53
3743.07
3743.08
3743.07
3743.05
3743.02
3742.97
3742.91
3742.84
3742.76
3742.66
3742.55
3742.43
3742.97
3742.98
3742.97
3742.95
3742.92
3742.88
3742.82
3742.75
3742.66
3742.56
3742.45
3742.33
3742.87
3742.88
3742.87
3742.85
3742.82
3742.78
3742.72
3742.64
3742.56
3742.46
3742.35
3742.22
3742.76
3742.77
3742.76
3742.74
3742.71
3742.67
3742.61
3742.54
3742.45
3742.35
3742.24
3742.11
3742.64
3742.66
3742.65
3742.63
3742.6
3742.56
3742.5
3742.43
3742.34
3742.24
3742.12
3742
3742.53
3742.54
3742.54
3742.52
3742.49
3742.45
3742.39
3742.31
3742.22
3742.12
3742.01
3741.88
3742.41
3742.43
3742.42
3742.4
3742.38
3742.33
3742.27
3742.19
3742.1
3742
3741.88
3741.76
3742.28
3742.3
3742.3
3742.28
3742.26
3742.21
3742.15
3742.07
3741.98
3741.88
3741.76
3741.63
3742.16
3742.18
3742.17
3742.16
3742.13
3742.09
3742.02
3741.95
3741.85
3741.75
3741.63
3741.5
3742.03
3742.05
3742.05
3742.03
3742.01
3741.96
3741.9
3741.82
3741.73
3741.62
3741.5
3741.37
3741.89
3741.92
3741.92
3741.9
3741.88
3741.83
3741.77
3741.69
3741.59
3741.48
3741.37
3741.24
3741.76
3741.78
3741.78
3741.77
3741.75
3741.7
3741.63
3741.55
3741.46
3741.35
3741.23
3741.1
3741.62
3741.65
3741.65
3741.64
3741.61
3741.56
3741.5
3741.42
3741.32
3741.21
3741.09
3740.96
3741.48
3741.51
3741.51
3741.5
3741.47
3741.43
3741.36
3741.28
3741.18
3741.07
3740.95
3740.82
3741.33
3741.37
3741.37
3741.36
3741.34
3741.29
3741.22
3741.14
3741.04
3740.93
3740.8
3740.67
3741.19
3741.22
3741.23
3741.22
3741.2
3741.15
3741.08
3741
3740.9
3740.78
3740.66
3740.53
3741.04
3741.08
3741.09
3741.08
3741.06
3741.01
3740.94
3740.85
3740.75
3740.64
3740.51
3740.38
3740.9
3740.93
3740.95
3740.94
3740.91
3740.87
3740.8
3740.71
3740.61
3740.49
3740.36
3740.23
3740.75
3740.79
3740.8
3740.8
3740.77
3740.72
3740.65
3740.56
3740.46
3740.34
3740.21
3740.08
3740.6
3740.64
3740.66
3740.65
3740.63
3740.58
3740.51
3740.42
3740.31
3740.19
3740.06
3739.93
3740.45
3740.49
3740.51
3740.51
3740.48
3740.43
3740.36
3740.27
3740.16
3740.04
3739.92
3739.78
3740.3
3740.35
3740.37
3740.36
3740.34
3740.29
3740.22
3740.13
3740.02
3739.9
3739.77
3739.63
3740.16
3740.2
3740.22
3740.22
3740.2
3740.15
3740.07
3739.98
3739.87
3739.75
3739.62
3739.49
3740.01
3740.06
3740.08
3740.08
3740.05
3740
3739.93
3739.84
3739.72
3739.6
3739.47
3739.34
3739.86
3739.91
3739.94
3739.94
3739.91
3739.86
3739.79
3739.69
3739.58
3739.45
3739.32
3739.19
3739.72
3739.77
3739.79
3739.8
3739.77
3739.72
3739.64
3739.55
3739.44
3739.31
3739.18
3739.05
3739.58
3739.63
3739.65
3739.66
3739.63
3739.58
3739.51
3739.41
3739.29
3739.17
3739.03
3738.9
3739.44
3739.49
3739.52
3739.52
3739.5
3739.44
3739.37
3739.27
3739.15
3739.03
3738.89
3738.76
3739.3
3739.35
3739.38
3739.38
3739.36
3739.31
3739.23
3739.13
3739.02
3738.89
3738.75
3738.62
3739.16
3739.22
3739.25
3739.25
3739.23
3739.18
3739.1
3739
3738.88
3738.75
3738.62
3738.49
3739.03
3739.09
3739.12
3739.12
3739.1
3739.05
3738.97
3738.87
3738.75
3738.62
3738.48
3738.35
3738.9
3738.96
3738.99
3739
3738.98
3738.92
3738.84
3738.74
3738.62
3738.49
3738.35
3738.22
3738.78
3738.84
3738.87
3738.88
3738.86
3738.8
3738.72
3738.62
3738.5
3738.36
3738.23
3738.1
3738.66
3738.72
3738.76
3738.76
3738.74
3738.69
3738.6
3738.5
3738.38
3738.24
3738.11
3737.98
3738.55
3738.61
3738.64
3738.65
3738.63
3738.58
3738.49
3738.39
3738.26
3738.13
3738
3737.87
3738.44
3738.5
3738.54
3738.55
3738.53
3738.47
3738.39
3738.28
3738.16
3738.02
3737.89
3737.76
3738.34
3738.4
3738.44
3738.45
3738.43
3738.37
3738.29
3738.18
3738.06
3737.92
3737.79
3737.66
3738.25
3738.31
3738.35
3738.36
3738.34
3738.29
3738.2
3738.09
3737.97
3737.83
3737.7
3737.57
3738.17
3738.23
3738.27
3738.28
3738.26
3738.21
3738.12
3738.01
3737.89
3737.75
3737.62
3737.49
3738.1
3738.16
3738.2
3738.22
3738.2
3738.14
3738.05
3737.94
3737.82
3737.68
3737.55
3737.42
3738.04
3738.11
3738.15
3738.16
3738.14
3738.09
3738
3737.89
3737.76
3737.63
3737.49
3737.37
3738
3738.07
3738.11
3738.13
3738.11
3738.05
3737.96
3737.85
3737.73
3737.59
3737.46
3737.33
3737.98
3738.05
3738.1
3738.11
3738.09
3738.03
3737.95
3737.84
3737.71
3737.57
3737.44
3737.32
3737.99
3738.06
3738.1
3738.12
3738.1
3738.04
3737.96
3737.84
3737.72
3737.58
3737.45
3737.33
3738.02
3738.09
3738.14
3738.15
3738.13
3738.08
3737.99
3737.88
3737.75
3737.62
3737.48
3737.36
3738.08
3738.15
3738.2
3738.22
3738.2
3738.14
3738.06
3737.94
3737.81
3737.68
3737.55
3737.43
3738.17
3738.24
3738.29
3738.31
3738.29
3738.23
3738.15
3738.03
3737.91
3737.77
3737.64
3737.52
3738.28
3738.35
3738.41
3738.42
3738.41
3738.35
3738.26
3738.15
3738.02
3737.89
3737.76
3737.64
3738.41
3738.48
3738.54
3738.56
3738.54
3738.48
3738.4
3738.28
3738.16
3738.02
3737.89
3737.77
3738.54
3738.62
3738.67
3738.69
3738.68
3738.62
3738.53
3738.42
3738.29
3738.16
3738.02
3737.9
3738.66
3738.74
3738.8
3738.82
3738.8
3738.75
3738.66
3738.55
3738.42
3738.28
3738.15
3738.03
4132.64
4132.53
4132.42
4132.34
4132.27
4132.21
4132.15
4132.11
4132.07
4132.03
4131.99
4131.94
4128.43
4128.32
4128.21
4128.13
4128.06
4128
4127.95
4127.91
4127.86
4127.83
4127.79
4127.74
4121.91
4121.81
4121.7
4121.62
4121.56
4121.5
4121.45
4121.4
4121.36
4121.33
4121.3
4121.25
4117.7
4117.59
4117.49
4117.41
4117.34
4117.29
4117.24
4117.2
4117.16
4117.12
4117.09
4117.04
4116.59
4116.49
4116.38
4116.3
4116.24
4116.18
4116.13
4116.09
4116.05
4116.02
4115.99
4115.94
4116.63
4116.53
4116.43
4116.34
4116.28
4116.23
4116.17
4116.13
4116.09
4116.06
4116.03
4115.98
4116.67
4116.57
4116.46
4116.38
4116.32
4116.26
4116.21
4116.17
4116.13
4116.1
4116.07
4116.01
4116.7
4116.6
4116.5
4116.41
4116.35
4116.3
4116.24
4116.2
4116.16
4116.13
4116.1
4116.04
4116.72
4116.62
4116.52
4116.44
4116.37
4116.32
4116.27
4116.22
4116.18
4116.15
4116.12
4116.06
4116.74
4116.64
4116.53
4116.45
4116.39
4116.33
4116.28
4116.24
4116.2
4116.16
4116.13
4116.08
4116.74
4116.64
4116.54
4116.46
4116.4
4116.34
4116.29
4116.25
4116.21
4116.17
4116.14
4116.08
4116.74
4116.64
4116.54
4116.46
4116.4
4116.34
4116.29
4116.25
4116.21
4116.17
4116.14
4116.08
4116.74
4116.64
4116.54
4116.46
4116.39
4116.34
4116.28
4116.24
4116.2
4116.16
4116.13
4116.07
4116.72
4116.62
4116.52
4116.44
4116.38
4116.32
4116.27
4116.23
4116.18
4116.15
4116.11
4116.06
4116.7
4116.6
4116.5
4116.42
4116.36
4116.3
4116.25
4116.21
4116.16
4116.12
4116.09
4116.03
4116.67
4116.57
4116.47
4116.4
4116.33
4116.28
4116.22
4116.18
4116.14
4116.1
4116.06
4116
4116.64
4116.54
4116.44
4116.36
4116.3
4116.25
4116.19
4116.15
4116.1
4116.06
4116.02
4115.97
4116.59
4116.5
4116.4
4116.33
4116.26
4116.21
4116.15
4116.1
4116.06
4116.02
4115.98
4115.93
4116.55
4116.45
4116.36
4116.28
4116.22
4116.16
4116.11
4116.06
4116.01
4115.97
4115.93
4115.88
4116.49
4116.4
4116.3
4116.23
4116.16
4116.11
4116.05
4116.01
4115.96
4115.92
4115.88
4115.82
4116.43
4116.34
4116.24
4116.17
4116.11
4116.05
4116
4115.95
4115.9
4115.86
4115.81
4115.76
4116.37
4116.27
4116.18
4116.11
4116.04
4115.99
4115.93
4115.88
4115.83
4115.79
4115.75
4115.69
4116.29
4116.2
4116.11
4116.04
4115.97
4115.92
4115.86
4115.81
4115.76
4115.72
4115.67
4115.62
4116.21
4116.13
4116.03
4115.96
4115.9
4115.84
4115.78
4115.73
4115.68
4115.64
4115.59
4115.54
4116.13
4116.04
4115.95
4115.88
4115.82
4115.76
4115.7
4115.65
4115.6
4115.55
4115.51
4115.45
4116.04
4115.95
4115.86
4115.79
4115.73
4115.67
4115.62
4115.56
4115.51
4115.46
4115.42
4115.36
4115.94
4115.86
4115.77
4115.7
4115.64
4115.58
4115.52
4115.47
4115.42
4115.37
4115.32
4115.26
4115.84
4115.76
4115.67
4115.6
4115.54
4115.48
4115.42
4115.37
4115.32
4115.26
4115.22
4115.16
4115.73
4115.65
4115.57
4115.5
4115.44
4115.38
4115.32
4115.26
4115.21
4115.16
4115.11
4115.05
4115.62
4115.54
4115.46
4115.39
4115.33
4115.27
4115.21
4115.16
4115.1
4115.05
4114.99
4114.94
4115.5
4115.43
4115.35
4115.28
4115.22
4115.16
4115.1
4115.04
4114.98
4114.93
4114.88
4114.82
4115.38
4115.31
4115.23
4115.16
4115.1
4115.04
4114.98
4114.92
4114.86
4114.81
4114.75
4114.69
4115.26
4115.18
4115.1
4115.04
4114.98
4114.92
4114.86
4114.8
4114.74
4114.68
4114.63
4114.57
4115.13
4115.05
4114.98
4114.91
4114.85
4114.79
4114.73
4114.67
4114.61
4114.55
4114.5
4114.43
4114.99
4114.92
4114.85
4114.78
4114.72
4114.66
4114.6
4114.54
4114.48
4114.42
4114.36
4114.3
4114.85
4114.78
4114.71
4114.65
4114.59
4114.53
4114.47
4114.4
4114.34
4114.28
4114.22
4114.16
4114.71
4114.64
4114.57
4114.51
4114.45
4114.39
4114.33
4114.26
4114.2
4114.14
4114.08
4114.01
4114.56
4114.5
4114.43
4114.37
4114.31
4114.25
4114.19
4114.12
4114.06
4113.99
4113.93
4113.87
4114.41
4114.35
4114.29
4114.22
4114.17
4114.11
4114.04
4113.98
4113.91
4113.84
4113.78
4113.71
4114.26
4114.2
4114.14
4114.08
4114.02
4113.96
4113.89
4113.83
4113.76
4113.69
4113.63
4113.56
4114.1
4114.05
4113.99
4113.93
4113.87
4113.81
4113.74
4113.67
4113.61
4113.54
4113.47
4113.4
4113.95
4113.89
4113.83
4113.78
4113.72
4113.66
4113.59
4113.52
4113.45
4113.38
4113.31
4113.24
4113.79
4113.74
4113.68
4113.62
4113.56
4113.5
4113.43
4113.36
4113.29
4113.22
4113.15
4113.08
4113.62
4113.58
4113.52
4113.46
4113.41
4113.35
4113.28
4113.21
4113.13
4113.06
4112.99
4112.92
4113.46
4113.42
4113.36
4113.31
4113.25
4113.19
4113.12
4113.05
4112.97
4112.9
4112.82
4112.76
4113.3
4113.25
4113.2
4113.15
4113.09
4113.03
4112.96
4112.88
4112.81
4112.73
4112.66
4112.59
4113.13
4113.09
4113.04
4112.99
4112.93
4112.87
4112.8
4112.72
4112.64
4112.57
4112.49
4112.42
4112.96
4112.93
4112.88
4112.83
4112.77
4112.71
4112.64
4112.56
4112.48
4112.4
4112.33
4112.26
4112.8
4112.76
4112.72
4112.67
4112.61
4112.55
4112.48
4112.4
4112.32
4112.23
4112.16
4112.09
4112.63
4112.6
4112.55
4112.51
4112.45
4112.39
4112.31
4112.23
4112.15
4112.07
4111.99
4111.92
4112.47
4112.44
4112.39
4112.35
4112.29
4112.23
4112.15
4112.07
4111.99
4111.9
4111.83
4111.75
4112.3
4112.27
4112.23
4112.19
4112.13
4112.07
4111.99
4111.91
4111.82
4111.74
4111.66
4111.59
4112.14
4112.11
4112.07
4112.03
4111.98
4111.91
4111.83
4111.75
4111.66
4111.58
4111.5
4111.42
4111.97
4111.95
4111.92
4111.87
4111.82
4111.75
4111.68
4111.59
4111.5
4111.41
4111.33
4111.26
4111.81
4111.79
4111.76
4111.72
4111.67
4111.6
4111.52
4111.43
4111.34
4111.25
4111.17
4111.1
4111.66
4111.64
4111.6
4111.56
4111.51
4111.45
4111.37
4111.28
4111.19
4111.1
4111.01
4110.94
4111.5
4111.48
4111.45
4111.41
4111.36
4111.3
4111.21
4111.13
4111.03
4110.94
4110.86
4110.78
4111.35
4111.33
4111.31
4111.27
4111.22
4111.15
4111.07
4110.98
4110.88
4110.79
4110.7
4110.63
4111.2
4111.19
4111.16
4111.12
4111.07
4111
4110.92
4110.83
4110.73
4110.64
4110.55
4110.48
4111.05
4111.04
4111.02
4110.98
4110.93
4110.87
4110.78
4110.69
4110.59
4110.5
4110.41
4110.34
4110.91
4110.9
4110.88
4110.85
4110.8
4110.73
4110.65
4110.55
4110.45
4110.36
4110.27
4110.2
4110.78
4110.77
4110.75
4110.72
4110.67
4110.6
4110.52
4110.42
4110.32
4110.22
4110.14
4110.06
4110.65
4110.65
4110.63
4110.6
4110.55
4110.48
4110.39
4110.29
4110.19
4110.09
4110.01
4109.93
4110.53
4110.53
4110.51
4110.48
4110.43
4110.36
4110.27
4110.17
4110.07
4109.97
4109.89
4109.81
4110.42
4110.42
4110.4
4110.37
4110.32
4110.25
4110.16
4110.06
4109.96
4109.86
4109.77
4109.7
4110.32
4110.32
4110.3
4110.27
4110.23
4110.15
4110.07
4109.96
4109.86
4109.76
4109.67
4109.6
4110.22
4110.23
4110.21
4110.19
4110.14
4110.07
4109.98
4109.88
4109.77
4109.67
4109.58
4109.51
4110.15
4110.15
4110.14
4110.11
4110.07
4109.99
4109.9
4109.8
4109.69
4109.59
4109.5
4109.43
4110.08
4110.09
4110.08
4110.05
4110.01
4109.94
4109.84
4109.74
4109.63
4109.53
4109.44
4109.37
4110.04
4110.05
4110.04
4110.01
4109.97
4109.9
4109.81
4109.7
4109.59
4109.49
4109.4
4109.33
4110.02
4110.03
4110.02
4110
4109.95
4109.88
4109.79
4109.68
4109.57