/*--------------------------------*- C++ -*----------------------------------*\
| =========                 |                                                 |
| \\      /  F ield         | OpenFOAM: The Open Source CFD Toolbox           |
|  \\    /   O peration     | Version:  v1912                                 |
|   \\  /    A nd           | Website:  www.openfoam.com                      |
|    \\/     M anipulation  |                                                 |
\*---------------------------------------------------------------------------*/
FoamFile
{
    version     2.0;
    format      ascii;
    class       volVectorField;
    location    "10.8";
    object      U;
}
// * * * * * * * * * * * * * * * * * * * * * * * * * * * * * * * * * * * * * //

dimensions      [0 1 -1 0 0 0 0];


internalField   nonuniform List<vector> 
34128
(
(-7.82301e-06 3.76644e-07 -0.0044138)
(-2.36608e-05 4.29074e-07 -0.00438721)
(-3.00209e-05 3.42089e-07 -0.00445208)
(-2.76676e-05 2.36358e-07 -0.00457685)
(-2.0454e-05 2.65466e-07 -0.00470375)
(-7.40279e-06 3.15003e-07 -0.00474493)
(-4.34131e-06 3.58104e-07 -0.00461028)
(-1.37083e-05 3.49908e-07 -0.00439641)
(-1.50011e-05 3.08697e-07 -0.0043915)
(-9.53e-06 3.45227e-07 -0.00458915)
(-3.66693e-06 2.99808e-07 -0.00467231)
(-2.26482e-06 2.64892e-07 -0.00462641)
(-2.43482e-05 4.74649e-06 -0.0134199)
(-6.90765e-05 4.95505e-06 -0.0133425)
(-8.48405e-05 4.31755e-06 -0.013536)
(-8.05525e-05 3.6003e-06 -0.0139035)
(-6.30889e-05 3.52779e-06 -0.0142734)
(-2.44065e-05 3.80233e-06 -0.0143921)
(-1.3107e-05 4.42751e-06 -0.0139994)
(-3.96113e-05 4.61286e-06 -0.0133761)
(-4.50123e-05 4.32921e-06 -0.0133667)
(-2.80242e-05 4.31383e-06 -0.0139484)
(-8.42127e-06 3.91596e-06 -0.0141856)
(-6.64631e-06 3.7162e-06 -0.0140451)
(-4.18245e-05 1.3626e-05 -0.0226292)
(-0.00011325 1.41392e-05 -0.0225058)
(-0.000135905 1.23966e-05 -0.022828)
(-0.000131799 1.03366e-05 -0.0234303)
(-0.000107193 9.98275e-06 -0.0240345)
(-4.37794e-05 1.07397e-05 -0.0242275)
(-2.30744e-05 1.25025e-05 -0.023586)
(-6.50422e-05 1.31681e-05 -0.0225704)
(-7.5251e-05 1.23898e-05 -0.0225643)
(-4.67062e-05 1.19908e-05 -0.0235207)
(-1.26263e-05 1.09923e-05 -0.0238964)
(-1.22088e-05 1.06915e-05 -0.0236561)
(-6.00706e-05 2.69357e-05 -0.0319847)
(-0.000156302 2.77339e-05 -0.0318226)
(-0.000184102 2.45066e-05 -0.0322736)
(-0.000181798 2.0744e-05 -0.0330984)
(-0.000152303 1.98191e-05 -0.0339274)
(-6.5766e-05 2.1042e-05 -0.0341929)
(-3.55041e-05 2.45498e-05 -0.0333122)
(-9.10276e-05 2.61251e-05 -0.0319248)
(-0.000105846 2.46909e-05 -0.0319322)
(-6.61671e-05 2.35817e-05 -0.033251)
(-1.80264e-05 2.17165e-05 -0.0337453)
(-2.00359e-05 2.1339e-05 -0.0333992)
(-7.88829e-05 4.45646e-05 -0.0414285)
(-0.00019829 4.56762e-05 -0.0412381)
(-0.000230228 4.0544e-05 -0.041817)
(-0.000230845 3.45711e-05 -0.0428465)
(-0.000197918 3.27833e-05 -0.04389)
(-9.05667e-05 3.45159e-05 -0.0442279)
(-5.15856e-05 4.03228e-05 -0.0431188)
(-0.00011861 4.32735e-05 -0.0413829)
(-0.000136959 4.10155e-05 -0.0414157)
(-8.68355e-05 3.8729e-05 -0.0430813)
(-2.59586e-05 3.57683e-05 -0.0436706)
(-3.09158e-05 3.54553e-05 -0.0432127)
(-9.80444e-05 6.62836e-05 -0.0509038)
(-0.000239216 6.76984e-05 -0.050698)
(-0.000274986 6.02847e-05 -0.0514022)
(-0.00027913 5.1675e-05 -0.0526132)
(-0.000243488 4.87089e-05 -0.0538601)
(-0.0001183 5.09091e-05 -0.0542724)
(-7.23574e-05 5.95467e-05 -0.0529463)
(-0.000148773 6.44058e-05 -0.0508885)
(-0.000168752 6.12008e-05 -0.050959)
(-0.000108987 5.72289e-05 -0.0529515)
(-3.73914e-05 5.29425e-05 -0.05361)
(-4.53559e-05 5.28561e-05 -0.0530357)
(-0.000117316 9.19423e-05 -0.0603573)
(-0.000279045 9.36518e-05 -0.0601512)
(-0.000319024 8.35615e-05 -0.0609757)
(-0.00032677 7.18596e-05 -0.0623396)
(-0.000288428 6.7402e-05 -0.063779)
(-0.000148988 7.00108e-05 -0.0642689)
(-9.86775e-05 8.19839e-05 -0.0627381)
(-0.000182406 8.93291e-05 -0.0603875)
(-0.000201379 8.50776e-05 -0.060508)
(-0.000132785 7.88443e-05 -0.0628031)
(-5.29865e-05 7.3004e-05 -0.0635042)
(-6.35971e-05 7.33497e-05 -0.0628108)
(-0.00013645 0.000121371 -0.0697415)
(-0.000317733 0.00012336 -0.0695511)
(-0.000362959 0.000110168 -0.070488)
(-0.000373833 9.49094e-05 -0.0719726)
(-0.000332117 8.86653e-05 -0.0735942)
(-0.000182519 9.15932e-05 -0.0741652)
(-0.00013117 0.000107382 -0.0724427)
(-0.000220258 0.000117826 -0.0698308)
(-0.00023497 0.000112449 -0.0700123)
(-0.000158294 0.000103327 -0.0725815)
(-7.31358e-05 9.57137e-05 -0.0732996)
(-8.56284e-05 9.67338e-05 -0.0724874)
(-0.000155211 0.000154393 -0.0790169)
(-0.000355259 0.000156638 -0.0788583)
(-0.000407397 0.000139877 -0.0798964)
(-0.000420342 0.000120594 -0.0814684)
(-0.000373895 0.000112296 -0.0832632)
(-0.000218618 0.00011542 -0.0839174)
(-0.000170184 0.000135483 -0.0820168)
(-0.0002629 0.000149663 -0.0791766)
(-0.000269612 0.000143097 -0.0794284)
(-0.000185495 0.000130409 -0.0822401)
(-9.80004e-05 0.000120822 -0.0829519)
(-0.000111211 0.0001228 -0.0820245)
(-0.000173388 0.000190829 -0.0881531)
(-0.000391653 0.000193294 -0.0880406)
(-0.000452948 0.000172455 -0.0891666)
(-0.000466292 0.000148691 -0.0907948)
(-0.000413065 0.000138101 -0.0927552)
(-0.000256827 0.000141266 -0.0934914)
(-0.000215771 0.000166045 -0.091427)
(-0.000310701 0.000184607 -0.0883927)
(-0.000305338 0.000176791 -0.0887222)
(-0.000214296 0.000159819 -0.0917422)
(-0.000127552 0.000148089 -0.0924281)
(-0.000139907 0.000151352 -0.0913926)
(-0.000190819 0.000230511 -0.0971292)
(-0.000427022 0.000233137 -0.0970743)
(-0.000500231 0.000207679 -0.098274)
(-0.000511645 0.000179004 -0.0999323)
(-0.000448882 0.000165903 -0.102051)
(-0.000296487 0.00016893 -0.102864)
(-0.000267672 0.000198858 -0.100651)
(-0.000363813 0.000222437 -0.0974572)
(-0.000342114 0.000213303 -0.0978694)
(-0.00024455 0.000191297 -0.101062)
(-0.000161614 0.000177294 -0.101707)
(-0.000171115 0.000182207 -0.100573)
(-0.000207397 0.00027328 -0.105933)
(-0.000461562 0.000275978 -0.105943)
(-0.000549878 0.000245337 -0.107203)
(-0.000556327 0.000211359 -0.108872)
(-0.000480542 0.000195541 -0.111142)
(-0.000336736 0.000198244 -0.112021)
(-0.000325317 0.000233754 -0.109675)
(-0.000422157 0.000262954 -0.106357)
(-0.000379828 0.000252407 -0.106855)
(-0.00027606 0.000224603 -0.110185)
(-0.000199892 0.000208242 -0.110777)
(-0.000204093 0.0002152 -0.109558)
(-0.000223086 0.000319005 -0.114559)
(-0.000495572 0.00032165 -0.114637)
(-0.000602528 0.000285246 -0.115946)
(-0.000600218 0.000245607 -0.117616)
(-0.000507184 0.000226874 -0.120026)
(-0.000376509 0.000229094 -0.120959)
(-0.000387833 0.000270627 -0.118498)
(-0.000485417 0.000305995 -0.115089)
(-0.000418285 0.000293889 -0.115674)
(-0.000308596 0.000259534 -0.119106)
(-0.000242006 0.000240777 -0.119638)
(-0.000237983 0.000250186 -0.118346)
(-0.000237929 0.000367575 -0.123007)
(-0.000529451 0.000370003 -0.123152)
(-0.000658794 0.000327237 -0.124503)
(-0.000643122 0.000281603 -0.126169)
(-0.00052787 0.000259771 -0.128706)
(-0.000414525 0.000261407 -0.129677)
(-0.000454022 0.000309424 -0.127118)
(-0.000553016 0.00035142 -0.123652)
(-0.000457187 0.000337549 -0.124322)
(-0.00034189 0.000295922 -0.127823)
(-0.000287488 0.000274764 -0.128292)
(-0.000271823 0.000287029 -0.126941)
(-0.000252047 0.000418894 -0.131277)
(-0.000563686 0.000420904 -0.131483)
(-0.00071923 0.000371147 -0.132871)
(-0.00068474 0.000319187 -0.134535)
(-0.000541605 0.000294099 -0.137183)
(-0.00044929 0.000295152 -0.138173)
(-0.000522346 0.000350129 -0.135537)
(-0.000624082 0.000399106 -0.132048)
(-0.000496119 0.000383184 -0.1328)
(-0.000375631 0.000333623 -0.136337)
(-0.000335779 0.000310086 -0.136742)
(-0.000304558 0.000325588 -0.135345)
(-0.000265651 0.000472879 -0.139369)
(-0.000598848 0.00047425 -0.139627)
(-0.000784291 0.000416825 -0.141049)
(-0.00072467 0.00035818 -0.142718)
(-0.000547372 0.000329727 -0.145457)
(-0.00047913 0.000330333 -0.146448)
(-0.000590937 0.000392765 -0.143756)
(-0.000697443 0.000448945 -0.140277)
(-0.000534557 0.000430598 -0.141106)
(-0.000409482 0.000372526 -0.144648)
(-0.000386234 0.000346636 -0.144989)
(-0.000335065 0.000365722 -0.143559)
(-0.000279042 0.000529453 -0.147283)
(-0.000635566 0.00052996 -0.14758)
(-0.000854285 0.00046412 -0.149036)
(-0.0007624 0.000398367 -0.150717)
(-0.000544183 0.000366508 -0.153524)
(-0.000502237 0.000366965 -0.154497)
(-0.000657615 0.000437368 -0.151773)
(-0.000771623 0.000500822 -0.148336)
(-0.000571869 0.000479591 -0.149236)
(-0.000443077 0.000412521 -0.152755)
(-0.000438112 0.000384297 -0.153033)
(-0.000362197 0.000407268 -0.151583)
(-0.000292612 0.000588522 -0.155015)
(-0.000674502 0.00058796 -0.155335)
(-0.000929317 0.000512865 -0.156826)
(-0.000797315 0.000439482 -0.158529)
(-0.000531145 0.000404266 -0.161378)
(-0.000516746 0.000405066 -0.162313)
(-0.00071994 0.000483968 -0.15958)
(-0.000844852 0.000554609 -0.156222)
(-0.000607339 0.000529944 -0.157185)
(-0.000476034 0.000453487 -0.160654)
(-0.000490585 0.000422925 -0.160871)
(-0.000384827 0.000450033 -0.159412)
(-0.000306837 0.000649971 -0.162557)
(-0.000716306 0.000648177 -0.162886)
(-0.00100923 0.000562873 -0.164413)
(-0.000828712 0.000481197 -0.166146)
(-0.000507541 0.000442783 -0.16901)
(-0.000520844 0.00044463 -0.169883)
(-0.0007753 0.00053258 -0.167168)
(-0.000915109 0.000610145 -0.163922)
(-0.000640184 0.00058141 -0.164943)
(-0.000507964 0.000495268 -0.168333)
(-0.000542744 0.000462332 -0.168492)
(-0.000401909 0.000493771 -0.167037)
(-0.000322257 0.000713646 -0.169899)
(-0.000761564 0.000710515 -0.17022)
(-0.00109357 0.000613912 -0.171784)
(-0.000855829 0.000523118 -0.173556)
(-0.000472917 0.000481793 -0.176404)
(-0.000512902 0.000485619 -0.177193)
(-0.000821053 0.000583184 -0.17452)
(-0.000980195 0.000667233 -0.171424)
(-0.000669597 0.000633701 -0.172496)
(-0.000538491 0.000537664 -0.17578)
(-0.000593623 0.000502271 -0.175883)
(-0.000412555 0.000538181 -0.174445)
(-0.000339459 0.000779351 -0.177025)
(-0.000810742 0.000774848 -0.177323)
(-0.0011815 0.000665704 -0.178926)
(-0.000877881 0.000564776 -0.180744)
(-0.00042716 0.000520969 -0.183544)
(-0.000491624 0.000527949 -0.184227)
(-0.000854685 0.000635724 -0.18162)
(-0.00103784 0.000725636 -0.178709)
(-0.000694797 0.000686493 -0.179825)
(-0.000567267 0.00058042 -0.182975)
(-0.000642224 0.00054243 -0.183029)
(-0.000416103 0.000582891 -0.18162)
(-0.000359035 0.000846841 -0.183919)
(-0.000864123 0.000841005 -0.184179)
(-0.00127185 0.000717906 -0.185823)
(-0.000894103 0.000605629 -0.187691)
(-0.000370564 0.000559928 -0.190411)
(-0.000456181 0.000571486 -0.190964)
(-0.000873996 0.000690099 -0.188447)
(-0.00108583 0.000785077 -0.185754)
(-0.00071508 0.000739411 -0.186907)
(-0.000593994 0.000623231 -0.189897)
(-0.000687559 0.000582433 -0.189908)
(-0.000412187 0.000627456 -0.188544)
(-0.000381551 0.000915822 -0.190562)
(-0.00092175 0.000908765 -0.19077)
(-0.00136304 0.000770115 -0.192458)
(-0.000903803 0.000645068 -0.194376)
(-0.00030387 0.00059823 -0.196984)
(-0.000406333 0.00061604 -0.197387)
(-0.000877282 0.000746159 -0.194981)
(-0.00112215 0.000845237 -0.192535)
(-0.000729877 0.000792047 -0.193719)
(-0.000618426 0.000665744 -0.196524)
(-0.000728678 0.00062184 -0.196502)
(-0.000400785 0.000671363 -0.195194)
(-0.000407495 0.000985948 -0.196934)
(-0.00098338 0.000977851 -0.197078)
(-0.00145322 0.000821862 -0.198809)
(-0.000906414 0.000682428 -0.200779)
(-0.000228274 0.000635387 -0.203242)
(-0.000342505 0.000661368 -0.203478)
(-0.000863485 0.000803703 -0.201202)
(-0.00114514 0.000905762 -0.199028)
(-0.000738801 0.000843958 -0.200232)
(-0.000640379 0.000707568 -0.202833)
(-0.000764703 0.000660157 -0.202787)
(-0.000382246 0.000714035 -0.201547)
(-0.000437238 0.00105683 -0.203015)
(-0.00104846 0.00104793 -0.203085)
(-0.00154022 0.000872626 -0.20486)
(-0.000901549 0.000716998 -0.206873)
(-0.000145403 0.00067087 -0.209165)
(-0.000265818 0.000707168 -0.209223)
(-0.000832311 0.000862475 -0.207091)
(-0.00115362 0.00096627 -0.205206)
(-0.00074168 0.000894687 -0.206421)
(-0.000659714 0.000748289 -0.208803)
(-0.00079485 0.000696845 -0.208743)
(-0.000357282 0.000754847 -0.207582)
(-0.00047099 0.00112803 -0.208786)
(-0.0011161 0.00111863 -0.208774)
(-0.00162177 0.000921839 -0.210589)
(-0.00088904 0.000748044 -0.212638)
(-5.72519e-05 0.000704128 -0.214735)
(-0.000178066 0.000753088 -0.214608)
(-0.000784289 0.000922167 -0.212632)
(-0.00114699 0.00102636 -0.211045)
(-0.000738576 0.000943775 -0.21226)
(-0.000676329 0.000787476 -0.214415)
(-0.000818447 0.000731336 -0.214352)
(-0.000326931 0.000793138 -0.213276)
(-0.000508773 0.00119908 -0.214229)
(-0.00118514 0.0011895 -0.214131)
(-0.00169554 0.000968899 -0.215981)
(-0.000868977 0.000774833 -0.21805)
(3.38942e-05 0.000734602 -0.219936)
(-8.16378e-05 0.000798727 -0.219624)
(-0.000720766 0.000982418 -0.217812)
(-0.00112528 0.00108561 -0.216525)
(-0.000729776 0.000990781 -0.217727)
(-0.000690129 0.000824694 -0.219651)
(-0.000834938 0.000763048 -0.219596)
(-0.00029249 0.000828238 -0.21861)
(-0.000550397 0.00126948 -0.219331)
(-0.00125414 0.00126006 -0.219144)
(-0.00175927 0.00101319 -0.22102)
(-0.000841721 0.000796658 -0.223089)
(0.000125568 0.00076174 -0.224754)
(2.06016e-05 0.000843639 -0.224264)
(-0.00064384 0.00104282 -0.222621)
(-0.00108918 0.00114362 -0.221626)
(-0.000715771 0.00103529 -0.222803)
(-0.00070101 0.000859514 -0.224501)
(-0.000843888 0.000791405 -0.22446)
(-0.000255421 0.000859492 -0.223566)
(-0.000595456 0.00133868 -0.224077)
(-0.00132147 0.00132978 -0.223804)
(-0.00181095 0.00105408 -0.225692)
(-0.000807906 0.000812877 -0.227739)
(0.000215232 0.000785021 -0.229179)
(0.000125468 0.000887346 -0.228524)
(-0.000556234 0.00110291 -0.227051)
(-0.00104 0.00119999 -0.226334)
(-0.000697211 0.00107695 -0.227473)
(-0.000708835 0.000891524 -0.228954)
(-0.000844983 0.000815854 -0.228934)
(-0.000217245 0.000886283 -0.22813)
(-0.000643333 0.00140616 -0.228459)
(-0.00138541 0.00139809 -0.228106)
(-0.00184887 0.00109098 -0.229988)
(-0.000768424 0.000822937 -0.231985)
(0.000300387 0.000803968 -0.233205)
(0.000229631 0.000929349 -0.232406)
(-0.000461126 0.0011622 -0.2311)
(-0.000979539 0.00125435 -0.230642)
(-0.000674853 0.00111543 -0.231729)
(-0.000713422 0.000920335 -0.233007)
(-0.000838022 0.000835894 -0.233012)
(-0.000179431 0.000908069 -0.232294)
(-0.000693217 0.00147134 -0.232473)
(-0.00144419 0.00146438 -0.232047)
(-0.00187174 0.00112332 -0.233902)
(-0.000724392 0.000826412 -0.235821)
(0.000378684 0.000818177 -0.236831)
(0.000329795 0.000969139 -0.235912)
(-0.000361947 0.00122019 -0.234771)
(-0.000910038 0.00130634 -0.234544)
(-0.000649493 0.00115049 -0.235566)
(-0.000714545 0.000945596 -0.23666)
(-0.000822919 0.000851091 -0.236692)
(-0.000143292 0.000924406 -0.236053)
(-0.000744131 0.00153367 -0.236116)
(-0.0014961 0.00152805 -0.235628)
(-0.00187876 0.00115062 -0.237431)
(-0.000677097 0.000823034 -0.239242)
(0.000448009 0.000827332 -0.24006)
(0.000422867 0.00100622 -0.239051)
(-0.000262169 0.00127635 -0.238068)
(-0.000833965 0.00135567 -0.238043)
(-0.000621914 0.00118195 -0.238988)
(-0.000711933 0.000966997 -0.239919)
(-0.000799699 0.0008611 -0.239975)
(-0.000109889 0.000934977 -0.239409)
(-0.000794965 0.0015926 -0.239392)
(-0.00153957 0.00158845 -0.238852)
(-0.00186961 0.00117248 -0.240578)
(-0.00062794 0.000812712 -0.242255)
(0.000506562 0.000831224 -0.242901)
(0.000506102 0.00104011 -0.241834)
(-0.000165102 0.00133016 -0.241003)
(-0.000753875 0.00140207 -0.241147)
(-0.000592823 0.0012097 -0.242004)
(-0.000705295 0.000984282 -0.242793)
(-0.000768499 0.000865689 -0.242872)
(-7.99657e-05 0.000939611 -0.242368)
(-0.000844514 0.0016476 -0.242308)
(-0.00157322 0.00164499 -0.241728)
(-0.00184451 0.00118859 -0.243349)
(-0.000578356 0.000795555 -0.244868)
(0.000552906 0.000829759 -0.245368)
(0.000577219 0.00107038 -0.244275)
(-7.37104e-05 0.00138112 -0.243588)
(-0.00067225 0.00144532 -0.243869)
(-0.000562814 0.00123368 -0.244628)
(-0.000694338 0.000997254 -0.245297)
(-0.000729573 0.000864743 -0.245394)
(-5.3908e-05 0.000938291 -0.244943)
(-0.000891522 0.00169819 -0.244875)
(-0.00159591 0.00169706 -0.244266)
(-0.00180414 0.0011988 -0.245756)
(-0.000529752 0.000771876 -0.247099)
(0.000586003 0.000822967 -0.24748)
(0.000634471 0.00109665 -0.246393)
(9.51812e-06 0.00142874 -0.24584)
(-0.00059136 0.00148525 -0.246226)
(-0.000532339 0.0012539 -0.24688)
(-0.000678803 0.00100578 -0.247451)
(-0.000683305 0.000858277 -0.247561)
(-3.17374e-05 0.000931165 -0.247153)
(-0.000934713 0.0017439 -0.247108)
(-0.00160674 0.00174412 -0.24648)
(-0.00174957 0.00120307 -0.247816)
(-0.000483426 0.000742173 -0.24897)
(0.000605235 0.000811003 -0.249259)
(0.000676689 0.00111861 -0.248206)
(8.26677e-05 0.00147259 -0.24778)
(-0.000513156 0.00152171 -0.24824)
(-0.000501703 0.00127043 -0.248786)
(-0.000658496 0.00100979 -0.249275)
(-0.000630213 0.000846424 -0.249393)
(-1.31349e-05 0.000918548 -0.24902)
(-0.000972842 0.00178432 -0.249024)
(-0.00160512 0.0017857 -0.248387)
(-0.00168225 0.00120152 -0.249549)
(-0.000440508 0.000707115 -0.250511)
(0.00061042 0.000794145 -0.250732)
(0.000703289 0.00113601 -0.24974)
(0.000144436 0.00151226 -0.249429)
(-0.000439203 0.00155459 -0.249937)
(-0.00047107 0.00128335 -0.250372)
(-0.000633325 0.00100927 -0.250797)
(-0.000570977 0.000829427 -0.250918)
(2.50706e-06 0.000900894 -0.250573)
(-0.00100473 0.00181913 -0.250646)
(-0.00159073 0.00182142 -0.250006)
(-0.00160394 0.00119442 -0.250981)
(-0.000401905 0.000667555 -0.251754)
(0.000601826 0.00077281 -0.251929)
(0.000714261 0.00114872 -0.251017)
(0.000194127 0.00154745 -0.250812)
(-0.000370657 0.00158386 -0.251345)
(-0.00044049 0.00129285 -0.25167)
(-0.000603338 0.00100434 -0.252043)
(-0.000506458 0.000807669 -0.252163)
(1.60039e-05 0.000878799 -0.25184)
(-0.00102933 0.00184809 -0.251996)
(-0.00156355 0.00185099 -0.25136)
(-0.00151663 0.00118225 -0.252139)
(-0.000368282 0.000624547 -0.252734)
(0.000580192 0.000747597 -0.252882)
(0.000710135 0.00115667 -0.252064)
(0.000231593 0.00157786 -0.251954)
(-0.00030829 0.00160947 -0.252493)
(-0.000409932 0.00129912 -0.25271)
(-0.000568713 0.000995182 -0.253045)
(-0.000437718 0.000781718 -0.253159)
(2.8269e-05 0.000853019 -0.252856)
(-0.00104577 0.00187105 -0.2531)
(-0.00152387 0.0018743 -0.252473)
(-0.00142247 0.00116565 -0.253056)
(-0.000339987 0.0005793 -0.253488)
(0.000546697 0.0007191 -0.253624)
(0.000692031 0.00115991 -0.252908)
(0.000257366 0.00160336 -0.252882)
(-0.000252421 0.00163147 -0.253411)
(-0.000379267 0.00130242 -0.25353)
(-0.00052975 0.000982004 -0.253837)
(-0.000365725 0.000752102 -0.253942)
(4.02662e-05 0.000824364 -0.253652)
(-0.00105345 0.00188795 -0.253987)
(-0.00147219 0.00189137 -0.253374)
(-0.00132349 0.00114529 -0.253766)
(-0.000317017 0.000532877 -0.254055)
(0.000502754 0.000687917 -0.254193)
(0.000661385 0.00115855 -0.25358)
(0.000272415 0.00162385 -0.253625)
(-0.000202894 0.00164993 -0.254133)
(-0.000348338 0.00130299 -0.254163)
(-0.000486906 0.000965075 -0.254447)
(-0.00029149 0.000719378 -0.254543)
(5.29198e-05 0.000793614 -0.254266)
(-0.00105197 0.00189879 -0.254686)
(-0.00140935 0.00190227 -0.254086)
(-0.00122177 0.00112193 -0.254302)
(-0.000299164 0.000486316 -0.254473)
(0.000450034 0.000654745 -0.254616)
(0.000619902 0.00115271 -0.254103)
(0.000277924 0.00163924 -0.254208)
(-0.000159313 0.00166489 -0.254688)
(-0.000317015 0.00130102 -0.254641)
(-0.000440784 0.000944691 -0.254906)
(-0.000216227 0.000684172 -0.254994)
(6.69827e-05 0.000761544 -0.25473)
(-0.00104132 0.00190357 -0.255221)
(-0.0013365 0.0019072 -0.254637)
(-0.00111932 0.00109639 -0.254696)
(-0.000286053 0.000440664 -0.254774)
(0.000390331 0.000620216 -0.254924)
(0.00056949 0.00114261 -0.254502)
(0.000275323 0.00164951 -0.254655)
(-0.000121115 0.00167641 -0.255106)
(-0.000285172 0.00129672 -0.254993)
(-0.000392039 0.000921165 -0.25524)
(-0.000141049 0.000647028 -0.255322)
(8.29766e-05 0.000728886 -0.25507)
(-0.00102179 0.00190239 -0.25562)
(-0.00125512 0.00190649 -0.255051)
(-0.00101792 0.00106947 -0.254976)
(-0.000277182 0.000396793 -0.254984)
(0.000325448 0.00058493 -0.255141)
(0.000512118 0.00112848 -0.2548)
(0.000266161 0.00165473 -0.254991)
(-8.757e-05 0.00168455 -0.255412)
(-0.000252696 0.0012903 -0.255246)
(-0.000341353 0.000894842 -0.255475)
(-6.69501e-05 0.000608482 -0.255553)
(0.000101188 0.000696265 -0.255315)
(-0.000993969 0.00189541 -0.255906)
(-0.00116685 0.00190056 -0.255353)
(-0.000919107 0.00104193 -0.255168)
(-0.000271999 0.000355422 -0.255127)
(0.000257066 0.000549421 -0.255288)
(0.000449698 0.00111056 -0.255016)
(0.000251984 0.001655 -0.255236)
(-5.78654e-05 0.00168942 -0.255628)
(-0.000219489 0.00128195 -0.25542)
(-0.00028938 0.000866078 -0.255632)
(5.2599e-06 0.000569013 -0.255706)
(0.000121684 0.000664209 -0.255484)
(-0.000958732 0.00188282 -0.256102)
(-0.00107353 0.00188986 -0.255564)
(-0.000824096 0.00101448 -0.255295)
(-0.000269965 0.000317107 -0.255221)
(0.000186631 0.000514132 -0.255383)
(0.00038397 0.0010891 -0.255167)
(0.000234242 0.00165043 -0.255408)
(-3.11651e-05 0.00169111 -0.255775)
(-0.00018546 0.00127184 -0.255536)
(-0.000236694 0.000835223 -0.255728)
(7.50096e-05 0.000529029 -0.255801)
(0.000144363 0.000633141 -0.255595)
(-0.000917132 0.00186484 -0.256226)
(-0.000977023 0.00187491 -0.255705)
(-0.000733771 0.000987732 -0.255374)
(-0.000270608 0.000282238 -0.255281)
(0.000115288 0.000479404 -0.255439)
(0.000316417 0.00106431 -0.255267)
(0.000214214 0.00164114 -0.255523)
(-6.65981e-06 0.00168971 -0.255869)
(-0.000150526 0.00126013 -0.255607)
(-0.000183749 0.000802591 -0.255778)
(0.000141984 0.000488862 -0.255851)
(0.000169033 0.000603369 -0.255663)
(-0.000870312 0.00184172 -0.256294)
(-0.000879109 0.0018562 -0.255792)
(-0.000648695 0.000962178 -0.255419)
(-0.000273555 0.000251057 -0.255316)
(4.38768e-05 0.000445474 -0.255467)
(0.00024822 0.00103636 -0.255329)
(0.000192969 0.00162725 -0.255594)
(1.63912e-05 0.0016853 -0.255923)
(-0.00011461 0.00124695 -0.255646)
(-0.000130877 0.000768471 -0.255793)
(0.000206098 0.000448776 -0.255867)
(0.000195478 0.000575097 -0.255697)
(-0.000819375 0.0018137 -0.25632)
(-0.000781392 0.0018342 -0.255837)
(-0.000569175 0.000938202 -0.255441)
(-0.000278527 0.000223696 -0.255334)
(-2.70338e-05 0.000412492 -0.255474)
(0.000180248 0.00100536 -0.25536)
(0.000171346 0.00160887 -0.255631)
(3.86334e-05 0.00167793 -0.255948)
(-7.76517e-05 0.00123241 -0.25566)
(-7.8307e-05 0.000733118 -0.255782)
(0.00026743 0.000408962 -0.255855)
(0.000223524 0.000548438 -0.255705)
(-0.000765263 0.00178105 -0.256312)
(-0.000685231 0.00180935 -0.255853)
(-0.000495341 0.000916083 -0.255446)
(-0.000285347 0.000200193 -0.255341)
(-9.71025e-05 0.000380521 -0.255465)
(0.000113097 0.000971388 -0.255368)
(0.000149965 0.00158606 -0.255641)
(6.06048e-05 0.00166764 -0.25595)
(-3.96077e-05 0.00121661 -0.255657)
(-2.62035e-05 0.000696729 -0.25575)
(0.000326121 0.000369545 -0.255821)
(0.000253069 0.000523441 -0.255694)
(-0.000708705 0.001744 -0.256278)
(-0.00059174 0.00178205 -0.255846)
(-0.000427228 0.000896009 -0.255441)
(-0.000293927 0.000180505 -0.25534)
(-0.000166154 0.000349574 -0.255445)
(4.71381e-05 0.000934446 -0.255357)
(0.000129251 0.00155886 -0.255632)
(8.27407e-05 0.00165446 -0.255935)
(-4.63796e-07 0.00119962 -0.255639)
(2.52876e-05 0.000659413 -0.255701)
(0.000382249 0.000330548 -0.25577)
(0.000284093 0.000500107 -0.255666)
(-0.000650243 0.00170274 -0.256222)
(-0.000501839 0.00175265 -0.255823)
(-0.000364846 0.000878094 -0.255429)
(-0.00030423 0.000164549 -0.255334)
(-0.000234139 0.000319579 -0.255416)
(-1.74097e-05 0.000894526 -0.255332)
(0.000109481 0.00152726 -0.255608)
(0.000105387 0.00163839 -0.255907)
(3.97542e-05 0.00118151 -0.255611)
(7.59759e-05 0.000621411 -0.255639)
(0.000435692 0.000291914 -0.255703)
(0.000316641 0.000478354 -0.255624)
(-0.000590442 0.00165759 -0.256149)
(-0.000416325 0.00172146 -0.255788)
(-0.000308231 0.000862386 -0.255413)
(-0.000316252 0.000152202 -0.255324)
(-0.000301029 0.000290418 -0.25538)
(-8.04103e-05 0.000851599 -0.255294)
(9.08416e-05 0.00149123 -0.255571)
(0.000128809 0.00161942 -0.25587)
(8.09832e-05 0.00116234 -0.255574)
(0.000125692 0.000582957 -0.255567)
(0.000486182 0.000253949 -0.255624)
(0.00035069 0.000457998 -0.255571)
(-0.000529614 0.00160942 -0.25606)
(-0.000335939 0.00168884 -0.255744)
(-0.000257477 0.000848882 -0.255394)
(-0.000330026 0.000143298 -0.255311)
(-0.00036672 0.000261921 -0.255337)
(-0.000141723 0.000805456 -0.255246)
(7.34978e-05 0.00145071 -0.255524)
(0.000153206 0.00159752 -0.255825)
(0.000123161 0.0011422 -0.255529)
(0.000174314 0.000544539 -0.255486)
(0.000534101 0.000216563 -0.255534)
(0.000385899 0.000438869 -0.255507)
(-0.000466635 0.00155763 -0.255955)
(-0.000261483 0.00165513 -0.255693)
(-0.000212747 0.000837538 -0.255374)
(-0.000345603 0.000137648 -0.255297)
(-0.000431 0.000233889 -0.25529)
(-0.000201139 0.000755767 -0.255188)
(5.76721e-05 0.0014054 -0.255468)
(0.000178703 0.00157266 -0.255773)
(0.000166264 0.00112117 -0.255478)
(0.000221909 0.000505985 -0.255395)
(0.000579981 0.000179183 -0.255432)
(0.000421533 0.000420963 -0.255434)
(-0.000402496 0.00150206 -0.255834)
(-0.000193994 0.00162062 -0.255638)
(-0.000174296 0.000828255 -0.255354)
(-0.000362995 0.000135028 -0.255282)
(-0.000493619 0.000206087 -0.255238)
(-0.000258406 0.000702818 -0.255121)
(4.34956e-05 0.00135552 -0.255404)
(0.000205374 0.00154482 -0.255715)
(0.00021033 0.00109938 -0.255422)
(0.00026843 0.00046702 -0.255294)
(0.000622854 0.000142047 -0.255319)
(0.000457987 0.00040387 -0.255354)
(-0.00034171 0.0014443 -0.255702)
(-0.000134535 0.00158557 -0.255578)
(-0.000142471 0.000820875 -0.255334)
(-0.000382155 0.000135171 -0.255267)
(-0.000554262 0.000178275 -0.255182)
(-0.000313321 0.000646384 -0.255045)
(3.12992e-05 0.00130133 -0.255333)
(0.000233271 0.00151402 -0.255652)
(0.000255319 0.00107693 -0.255361)
(0.000313534 0.000428299 -0.255187)
(0.000661154 0.000105543 -0.255198)
(0.000495163 0.000387292 -0.255267)
(-0.000288161 0.00138477 -0.255564)
(-8.40718e-05 0.00155003 -0.255516)
(-0.000117641 0.000815183 -0.255314)
(-0.000402972 0.000137755 -0.255252)
(-0.000612369 0.000150225 -0.255122)
(-0.000365447 0.000585493 -0.254959)
(2.18656e-05 0.00124185 -0.255253)
(0.000262327 0.00148027 -0.255585)
(0.000301022 0.00105394 -0.255295)
(0.000356921 0.000390113 -0.255075)
(0.000694071 6.94554e-05 -0.255072)
(0.000531141 0.000371257 -0.255174)
(-0.000244604 0.00132372 -0.255422)
(-4.34674e-05 0.0015139 -0.255452)
(-0.00010012 0.000810899 -0.255295)
(-0.000425271 0.000142393 -0.255237)
(-0.000667209 0.000121685 -0.25506)
(-0.000414057 0.000520113 -0.254863)
(1.53782e-05 0.00117673 -0.255163)
(0.000292174 0.0014436 -0.255514)
(0.000347064 0.00103051 -0.255226)
(0.000398408 0.000352512 -0.254962)
(0.000721313 3.36884e-05 -0.254942)
(0.000564373 0.000355458 -0.255079)
(-0.000212808 0.0012615 -0.255281)
(-1.3463e-05 0.00147704 -0.255387)
(-9.01392e-05 0.000807676 -0.255277)
(-0.000448818 0.000148633 -0.255222)
(-0.000718057 9.23686e-05 -0.254994)
(-0.00045855 0.000450472 -0.254758)
(1.09489e-05 0.00110673 -0.255064)
(0.000322157 0.00140429 -0.255438)
(0.000392921 0.00100674 -0.255154)
(0.000437876 0.000315664 -0.254849)
(0.000742906 -1.7473e-06 -0.254811)
(0.00059384 0.000339603 -0.254982)
(-0.00019371 0.00119847 -0.255142)
(5.36954e-06 0.0014392 -0.255321)
(-8.78197e-05 0.000805099 -0.25526)
(-0.000473308 0.000155961 -0.255208)
(-0.000764258 6.19785e-05 -0.254926)
(-0.00049856 0.000376465 -0.254645)
(7.46318e-06 0.00103186 -0.254957)
(0.000351606 0.00136218 -0.255357)
(0.000437905 0.00098267 -0.255079)
(0.000475227 0.000279738 -0.254738)
(0.000759101 -3.68148e-05 -0.25468)
(0.000618896 0.000323462 -0.254884)
(-0.00018752 0.00113494 -0.255007)
(1.26699e-05 0.00140012 -0.255256)
(-9.31329e-05 0.000802693 -0.255244)
(-0.000498357 0.000163806 -0.255194)
(-0.000805219 3.02241e-05 -0.254857)
(-0.000533916 0.000298063 -0.254527)
(3.80322e-06 0.000952136 -0.254846)
(0.000379552 0.00131693 -0.255272)
(0.000481124 0.000958325 -0.255002)
(0.000510347 0.000244858 -0.254629)
(0.000770306 -7.14788e-05 -0.254552)
(0.000639134 0.000306857 -0.254786)
(-0.000193813 0.00107123 -0.254877)
(8.32933e-06 0.00135953 -0.255191)
(-0.000105856 0.000799928 -0.255229)
(-0.000523492 0.000171552 -0.255179)
(-0.00084041 -3.16384e-06 -0.254787)
(-0.000564617 0.000215434 -0.254404)
(-1.3026e-06 0.000867774 -0.254731)
(0.000404368 0.00126881 -0.255183)
(0.000521559 0.000933658 -0.254924)
(0.000543082 0.000211089 -0.254523)
(0.000777029 -0.000105736 -0.254429)
(0.000654317 0.00028964 -0.25469)
(-0.000211586 0.00100766 -0.254753)
(-7.46461e-06 0.00131719 -0.255126)
(-0.000125529 0.000796226 -0.255214)
(-0.000548136 0.000178553 -0.255165)
(-0.000869373 -3.84154e-05 -0.254717)
(-0.000590846 0.000128916 -0.25428)
(-9.40166e-06 0.000779138 -0.254615)
(0.000424109 0.00121787 -0.255093)
(0.000558147 0.000908531 -0.254845)
(0.000573213 0.00017843 -0.254421)
(0.000779829 -0.000139582 -0.254314)
(0.000664322 0.000271702 -0.254596)
(-0.000239293 0.000944564 -0.254637)
(-3.41764e-05 0.00127284 -0.255063)
(-0.000151407 0.000790974 -0.2552)
(-0.000571611 0.000184152 -0.255151)
(-0.000891738 -7.57011e-05 -0.254647)
(-0.000613004 3.90292e-05 -0.254158)
(-2.22925e-05 0.000686733 -0.254501)
(0.000436706 0.00116397 -0.255002)
(0.000589794 0.000882702 -0.254767)
(0.000600446 0.000146813 -0.254324)
(0.000779277 -0.000172698 -0.254208)
(0.00066907 0.000253184 -0.254506)
(-0.000274893 0.000882305 -0.25453)
(-7.08508e-05 0.00122629 -0.255001)
(-0.000182405 0.000783539 -0.255187)
(-0.000593139 0.000187705 -0.255136)
(-0.000907252 -0.000115109 -0.254579)
(-0.000631732 -5.34923e-05 -0.254039)
(-4.19362e-05 0.000591206 -0.25439)
(0.000440024 0.00110701 -0.254914)
(0.000615385 0.00085581 -0.254689)
(0.000624453 0.000116108 -0.254232)
(0.000776072 -0.00020494 -0.254113)
(0.000669235 0.000234116 -0.254422)
(-0.000316041 0.000821232 -0.254433)
(-0.000116004 0.00117753 -0.254941)
(-0.00021707 0.000773298 -0.255174)
(-0.000611865 0.000188613 -0.255122)
(-0.000915805 -0.0001566 -0.254514)
(-0.000647895 -0.000147683 -0.253929)
(-7.03105e-05 0.000493353 -0.254287)
(0.000431969 0.00104688 -0.254828)
(0.000633822 0.000827378 -0.254613)
(0.000644992 8.60963e-05 -0.254145)
(0.000770865 -0.000236668 -0.254027)