-0.0075 	0 	0 	0
-0.0075 	-1.20033e-35 	-1.61193e-36 	1.8607e-31
-0.00745622 	-9.85999e-07 	-1.3241e-07 	0.0152845
-0.00745622 	-9.85999e-07 	-1.3241e-07 	0.0152845
-0.00741165 	-1.53771e-06 	-5.82825e-07 	0.0297455
-0.00741165 	-1.53771e-06 	-5.82825e-07 	0.0297455
-0.00736628 	-1.99142e-06 	-1.39508e-06 	0.0434818
-0.00736628 	-1.99142e-06 	-1.39508e-06 	0.0434818
-0.0073201 	-2.48646e-06 	-2.60526e-06 	0.0565208
-0.0073201 	-2.48646e-06 	-2.60526e-06 	0.0565208
-0.00727309 	-2.98856e-06 	-4.20954e-06 	0.06889
-0.00727309 	-2.98856e-06 	-4.20954e-06 	0.06889
-0.00722524 	-3.45264e-06 	-6.22158e-06 	0.0806147
-0.00722524 	-3.45264e-06 	-6.22158e-06 	0.0806147
-0.00717653 	-3.86157e-06 	-8.6515e-06 	0.0917096
-0.00717653 	-3.86157e-06 	-8.6515e-06 	0.0917096
-0.00712695 	-4.20958e-06 	-1.15187e-05 	0.102168
-0.00712695 	-4.20958e-06 	-1.15187e-05 	0.102168
-0.00707647 	-4.49572e-06 	-1.48591e-05 	0.111965
-0.00707647 	-4.49572e-06 	-1.48591e-05 	0.111965
-0.0070251 	-4.72143e-06 	-1.87303e-05 	0.121076
-0.0070251 	-4.72143e-06 	-1.87303e-05 	0.121076
-0.0069728 	-4.88944e-06 	-2.32062e-05 	0.129494
-0.0069728 	-4.88944e-06 	-2.32062e-05 	0.129494
-0.00691956 	-5.00323e-06 	-2.83621e-05 	0.137238
-0.00691956 	-5.00323e-06 	-2.83621e-05 	0.137238
-0.00686537 	-5.06665e-06 	-3.42647e-05 	0.144345
-0.00686537 	-5.06665e-06 	-3.42647e-05 	0.144345
-0.00681021 	-5.08378e-06 	-4.09771e-05 	0.150868
-0.00681021 	-5.08378e-06 	-4.09771e-05 	0.150868
-0.00675406 	-5.05866e-06 	-4.85697e-05 	0.156868
-0.00675406 	-5.05866e-06 	-4.85697e-05 	0.156868
-0.0066969 	-4.99482e-06 	-5.71081e-05 	0.162399
-0.0066969 	-4.99482e-06 	-5.71081e-05 	0.162399
-0.00663871 	-4.89546e-06 	-6.66386e-05 	0.167507
-0.00663871 	-4.89546e-06 	-6.66386e-05 	0.167507
-0.00657949 	-4.76389e-06 	-7.71707e-05 	0.172235
-0.00657949 	-4.76389e-06 	-7.71707e-05 	0.172235
-0.0065192 	-4.60354e-06 	-8.86715e-05 	0.176623
-0.0065192 	-4.60354e-06 	-8.86715e-05 	0.176623
-0.00645783 	-4.4176e-06 	-0.000101092 	0.180715
-0.00645783 	-4.4176e-06 	-0.000101092 	0.180715
-0.00639535 	-4.20884e-06 	-0.000114379 	0.184548
-0.00639535 	-4.20884e-06 	-0.000114379 	0.184548
-0.00633176 	-3.97954e-06 	-0.000128479 	0.188155
-0.00633176 	-3.97954e-06 	-0.000128479 	0.188155
-0.00626703 	-3.73173e-06 	-0.00014334 	0.191561
-0.00626703 	-3.73173e-06 	-0.00014334 	0.191561
-0.00620114 	-3.46719e-06 	-0.000158902 	0.194791
-0.00620114 	-3.46719e-06 	-0.000158902 	0.194791
-0.00613406 	-3.1875e-06 	-0.000175107 	0.197865
-0.00613406 	-3.1875e-06 	-0.000175107 	0.197865
-0.00606579 	-2.89408e-06 	-0.000191893 	0.2008
-0.00606579 	-2.89408e-06 	-0.000191893 	0.2008
-0.00599629 	-2.58833e-06 	-0.000209194 	0.203614
-0.00599629 	-2.58833e-06 	-0.000209194 	0.203614
-0.00592554 	-2.27135e-06 	-0.000226941 	0.206322
-0.00592554 	-2.27135e-06 	-0.000226941 	0.206322
-0.00585352 	-1.94379e-06 	-0.00024506 	0.208938
-0.00585352 	-1.94379e-06 	-0.00024506 	0.208938
-0.00578022 	-1.60595e-06 	-0.000263463 	0.211476
-0.00578022 	-1.60595e-06 	-0.000263463 	0.211476
-0.00570559 	-1.25815e-06 	-0.00028205 	0.213944
-0.00570559 	-1.25815e-06 	-0.00028205 	0.213944
-0.00562963 	-9.00755e-07 	-0.000300722 	0.216352
-0.00562963 	-9.00755e-07 	-0.000300722 	0.216352
-0.00555231 	-5.34201e-07 	-0.000319376 	0.218706
-0.00555231 	-5.34201e-07 	-0.000319376 	0.218706
-0.0054736 	-1.58886e-07 	-0.000337909 	0.221012
-0.0054736 	-1.58886e-07 	-0.000337909 	0.221012
-0.00539348 	2.2482e-07 	-0.000356216 	0.223275
-0.00539348 	2.2482e-07 	-0.000356216 	0.223275
-0.00531193 	6.16581e-07 	-0.000374192 	0.225498
-0.00531193 	6.16581e-07 	-0.000374192 	0.225498
-0.00522891 	1.01609e-06 	-0.00039173 	0.227685
-0.00522891 	1.01609e-06 	-0.00039173 	0.227685
-0.0051444 	1.42308e-06 	-0.000408729 	0.229837
-0.0051444 	1.42308e-06 	-0.000408729 	0.229837
-0.00505838 	1.83732e-06 	-0.000425089 	0.231956
-0.00505838 	1.83732e-06 	-0.000425089 	0.231956
-0.00497081 	2.25864e-06 	-0.000440713 	0.234043
-0.00497081 	2.25864e-06 	-0.000440713 	0.234043
-0.00488168 	2.68691e-06 	-0.000455512 	0.236097
-0.00488168 	2.68691e-06 	-0.000455512 	0.236097
-0.00479094 	3.12205e-06 	-0.0004694 	0.238119
-0.00479094 	3.12205e-06 	-0.0004694 	0.238119
-0.00469858 	3.564e-06 	-0.000482293 	0.240106
-0.00469858 	3.564e-06 	-0.000482293 	0.240106
-0.00460456 	4.01275e-06 	-0.000494116 	0.242057
-0.00460456 	4.01275e-06 	-0.000494116 	0.242057
-0.00450886 	4.46842e-06 	-0.000504814 	0.243971
-0.00450886 	4.46842e-06 	-0.000504814 	0.243971
-0.00441144 	4.93133e-06 	-0.000514364 	0.245845
-0.00441144 	4.93133e-06 	-0.000514364 	0.245845
-0.00431227 	5.40202e-06 	-0.000522773 	0.247679
-0.00431227 	5.40202e-06 	-0.000522773 	0.247679
-0.00421133 	5.88124e-06 	-0.000530083 	0.249469
-0.00421133 	5.88124e-06 	-0.000530083 	0.249469
-0.00410857 	6.36965e-06 	-0.000536355 	0.251214
-0.00410857 	6.36965e-06 	-0.000536355 	0.251214
-0.00400397 	6.86732e-06 	-0.000541669 	0.252912
-0.00400397 	6.86732e-06 	-0.000541669 	0.252912
-0.0038975 	7.37357e-06 	-0.000546115 	0.254561
-0.0038975 	7.37357e-06 	-0.000546115 	0.254561
-0.00378912 	7.8878e-06 	-0.000549777 	0.256165
-0.00378912 	7.8878e-06 	-0.000549777 	0.256165
-0.00367879 	8.41008e-06 	-0.000552727 	0.257725
-0.00367879 	8.41008e-06 	-0.000552727 	0.257725
-0.00356649 	8.94081e-06 	-0.000555026 	0.259241
-0.00356649 	8.94081e-06 	-0.000555026 	0.259241
-0.00345217 	9.47966e-06 	-0.000556733 	0.260711
-0.00345217 	9.47966e-06 	-0.000556733 	0.260711
-0.0033358 	1.00254e-05 	-0.000557907 	0.262133
-0.0033358 	1.00254e-05 	-0.000557907 	0.262133
-0.00321735 	1.05765e-05 	-0.000558616 	0.263504
-0.00321735 	1.05765e-05 	-0.000558616 	0.263504
-0.00309677 	1.11312e-05 	-0.000558931 	0.264821
-0.00309677 	1.11312e-05 	-0.000558931 	0.264821
-0.00297403 	1.16874e-05 	-0.00055893 	0.266082
-0.00297403 	1.16874e-05 	-0.00055893 	0.266082
-0.00284909 	1.22429e-05 	-0.000558694 	0.267285
-0.00284909 	1.22429e-05 	-0.000558694 	0.267285
-0.0027219 	1.27951e-05 	-0.000558303 	0.268426
-0.0027219 	1.27951e-05 	-0.000558303 	0.268426
-0.00259244 	1.33416e-05 	-0.000557838 	0.269503
-0.00259244 	1.33416e-05 	-0.000557838 	0.269503
-0.00246065 	1.38796e-05 	-0.000557375 	0.270513
-0.00246065 	1.38796e-05 	-0.000557375 	0.270513
-0.00232651 	1.44065e-05 	-0.00055698 	0.271455
-0.00232651 	1.44065e-05 	-0.00055698 	0.271455
-0.00218995 	1.49192e-05 	-0.000556708 	0.272325
-0.00218995 	1.49192e-05 	-0.000556708 	0.272325
-0.00205095 	1.54146e-05 	-0.000556604 	0.273122
-0.00205095 	1.54146e-05 	-0.000556604 	0.273122
-0.00190946 	1.58893e-05 	-0.000556695 	0.273844
-0.00190946 	1.58893e-05 	-0.000556695 	0.273844
-0.00176543 	1.63392e-05 	-0.000556991 	0.274491
-0.00176543 	1.63392e-05 	-0.000556991 	0.274491
-0.00161881 	1.67595e-05 	-0.000557487 	0.275061
-0.00161881 	1.67595e-05 	-0.000557487 	0.275061
-0.00146957 	1.71449e-05 	-0.000558154 	0.275554
-0.00146957 	1.71449e-05 	-0.000558154 	0.275554
-0.00131765 	1.74896e-05 	-0.000558949 	0.275972
-0.00131765 	1.74896e-05 	-0.000558949 	0.275972
-0.001163 	1.77875e-05 	-0.000559816 	0.276313
-0.001163 	1.77875e-05 	-0.000559816 	0.276313
-0.00100559 	1.80319e-05 	-0.000560691 	0.276578
-0.00100559 	1.80319e-05 	-0.000560691 	0.276578
-0.000845345 	1.82144e-05 	-0.000561542 	0.276766
-0.000845345 	1.82144e-05 	-0.000561542 	0.276766
-0.000682232 	1.83243e-05 	-0.000562283 	0.276876
-0.000682232 	1.83243e-05 	-0.000562283 	0.276876
-0.000516194 	1.83495e-05 	-0.000562815 	0.276907
-0.000516194 	1.83495e-05 	-0.000562815 	0.276907
-0.000347178 	1.82762e-05 	-0.00056313 	0.276856
-0.000347178 	1.82762e-05 	-0.00056313 	0.276856
-0.000175132 	1.8093e-05 	-0.000563077 	0.276722
-0.000175132 	1.8093e-05 	-0.000563077 	0.276722
0 	1.77934e-05 	-0.000562654 	0.276501
0 	1.77934e-05 	-0.000562654 	0.276501
0 	1.77934e-05 	-0.000562654 	0.276501
0 	1.77934e-05 	-0.000562654 	0.276501
0.000175132 	1.73785e-05 	-0.000561925 	0.276197
0.000175132 	2.08999e-05 	-0.000469207 	0.272481
0.000347178 	1.68615e-05 	-0.000560776 	0.275815
0.000347178 	2.20193e-05 	-0.000469979 	0.272173
0.000516194 	1.62572e-05 	-0.000559302 	0.27536
0.000516194 	2.29636e-05 	-0.000470515 	0.271786
0.000682232 	1.5579e-05 	-0.000557502 	0.274838
0.000682232 	2.37477e-05 	-0.000470788 	0.271324
0.000845345 	1.48432e-05 	-0.00055531 	0.27425
0.000845345 	2.43893e-05 	-0.000470612 	0.270791
0.00100559 	1.40638e-05 	-0.000552789 	0.2736
0.00100559 	2.49041e-05 	-0.000470086 	0.270191
0.001163 	1.3253e-05 	-0.000549954 	0.272891
0.001163 	2.53068e-05 	-0.000469213 	0.269528
0.00131765 	1.24207e-05 	-0.000546822 	0.272124
0.00131765 	2.56107e-05 	-0.000467998 	0.268804
0.00146957 	1.15758e-05 	-0.000543412 	0.271303
0.00146957 	2.58275e-05 	-0.000466456 	0.268022
0.00161881 	1.07256e-05 	-0.000539738 	0.270428
0.00161881 	2.59673e-05 	-0.000464597 	0.267184
0.00176543 	9.87622e-06 	-0.000535811 	0.269502
0.00176543 	2.60388e-05 	-0.000462428 	0.266293
0.00190946 	9.03293e-06 	-0.000531642 	0.268526
0.00190946 	2.60496e-05 	-0.000459958 	0.265349
0.00205095 	8.19995e-06 	-0.000527237 	0.267501
0.00205095 	2.60064e-05 	-0.000457192 	0.264354
0.00218995 	7.38079e-06 	-0.000522602 	0.266429
0.00218995 	2.59148e-05 	-0.000454132 	0.263311
0.00232651 	6.57831e-06 	-0.00051774 	0.265311
0.00232651 	2.57797e-05 	-0.00045078 	0.262219
0.00246065 	5.79481e-06 	-0.000512652 	0.264146
0.00246065 	2.56053e-05 	-0.000447134 	0.26108
0.00259244 	5.03215e-06 	-0.000507335 	0.262936
0.00259244 	2.53948e-05 	-0.000443191 	0.259894
0.0027219 	4.29187e-06 	-0.000501787 	0.261682
0.0027219 	2.5151e-05 	-0.000438947 	0.258663
0.00284909 	3.57521e-06 	-0.000496004 	0.260383
0.00284909 	2.48764e-05 	-0.000434394 	0.257386
0.00297403 	2.8831e-06 	-0.000489978 	0.259039
0.00297403 	2.45728e-05 	-0.000429521 	0.256065
0.00309677 	2.21624e-06 	-0.000483702 	0.257651
0.00309677 	2.4242e-05 	-0.000424317 	0.254698
0.00321735 	1.57514e-06 	-0.000477168 	0.256219
0.00321735 	2.38852e-05 	-0.000418772 	0.253286
0.0033358 	9.60196e-07 	-0.000470367 	0.254741
0.0033358 	2.35038e-05 	-0.000412873 	0.251829
0.00345217 	2.30987e-05 	-0.000406617 	0.250325
0.00345217 	3.71719e-07 	-0.000463294 	0.253218
0.00356649 	-1.90034e-07 	-0.000455939 	0.251648
0.00356649 	2.26708e-05 	-0.000400001 	0.248774
0.00367879 	-7.24848e-07 	-0.000448289 	0.250031
0.00367879 	2.22223e-05 	-0.000393013 	0.247176
0.00378912 	-1.23254e-06 	-0.000440323 	0.248366
0.00378912 	2.17564e-05 	-0.000385633 	0.245532
0.0038975 	-1.71291e-06 	-0.000432012 	0.24665
0.0038975 	2.12758e-05 	-0.000377832 	0.24384
0.00400397 	-2.16597e-06 	-0.000423309 	0.244879
0.00400397 	2.07824e-05 	-0.000369543 	0.242092
0.00410857 	2.02768e-05 	-0.000360657 	0.240276
0.00410857 	-2.59224e-06 	-0.000414143 	0.243049
0.00421133 	-2.99294e-06 	-0.000404433 	0.241152
0.00421133 	1.97575e-05 	-0.000351072 	0.23838
0.00431227 	-3.36962e-06 	-0.0003941 	0.239182
0.00431227 	1.92222e-05 	-0.000340723 	0.2364
0.00441144 	-3.72312e-06 	-0.000383082 	0.237132
0.00441144 	1.86687e-05 	-0.000329578 	0.234332
0.00450886 	-4.05356e-06 	-0.000371357 	0.234995
0.00450886 	1.80949e-05 	-0.000317656 	0.232171
0.00460456 	-4.36088e-06 	-0.000358927 	0.232768
0.00460456 	1.74992e-05 	-0.000304997 	0.229914
0.00469858 	-4.64519e-06 	-0.000345808 	0.230445
0.00469858 	1.68803e-05 	-0.00029165 	0.227557
0.00479094 	-4.90667e-06 	-0.000332026 	0.228022
0.00479094 	1.62371e-05 	-0.000277671 	0.225096
0.00488168 	-5.14549e-06 	-0.00031761 	0.225494
0.00488168 	1.55686e-05 	-0.000263115 	0.222528
0.00497081 	-5.3618e-06 	-0.000302601 	0.222857
0.00497081 	1.4874e-05 	-0.000248051 	0.219847
0.00505838 	-5.5557e-06 	-0.000287052 	0.220108
0.00505838 	1.41528e-05 	-0.000232554 	0.21705
0.0051444 	-5.7273e-06 	-0.000271033 	0.217241
0.0051444 	1.34044e-05 	-0.000216716 	0.214134
0.00522891 	-5.87665e-06 	-0.000254628 	0.214254
0.00522891 	1.2629e-05 	-0.000200644 	0.211096
0.00531193 	-6.00383e-06 	-0.000237938 	0.211143
0.00531193 	1.18267e-05 	-0.000184461 	0.207933
0.00539348 	-6.10886e-06 	-0.000221078 	0.207906
0.00539348 	1.09982e-05 	-0.000168305 	0.204645
0.0054736 	-6.19179e-06 	-0.000204176 	0.204539
0.0054736 	1.01444e-05 	-0.000152318 	0.201229
0.00555231 	-6.25264e-06 	-0.000187364 	0.201039
0.00555231 	9.26659e-06 	-0.000136648 	0.197683
0.00562963 	-6.29143e-06 	-0.000170776 	0.197401
0.00562963 	8.36615e-06 	-0.000121436 	0.194004
0.00570559 	-6.30815e-06 	-0.000154542 	0.193622
0.00570559 	7.44477e-06 	-0.000106813 	0.19019
0.00578022 	-6.30282e-06 	-0.000138787 	0.189697
0.00578022 	6.50436e-06 	-9.2899e-05 	0.186237
0.00585352 	-6.27546e-06 	-0.000123625 	0.185619
0.00585352 	5.54705e-06 	-7.97935e-05 	0.18214
0.00592554 	-6.22607e-06 	-0.000109156 	0.181383
0.00592554 	4.57526e-06 	-6.75781e-05 	0.177894
0.00599629 	-6.15478e-06 	-9.54661e-05 	0.17698
0.00599629 	3.5917e-06 	-5.63133e-05 	0.173492
0.00606579 	-6.06182e-06 	-8.26265e-05 	0.172403
0.00606579 	2.59938e-06 	-4.604e-05 	0.168924
0.00613406 	-5.94753e-06 	-7.06974e-05 	0.167638
0.00613406 	1.60158e-06 	-3.67803e-05 	0.16418
0.00620114 	6.01814e-07 	-2.85393e-05 	0.159241
0.00620114 	-5.81216e-06 	-5.97247e-05 	0.16267
0.00626703 	-5.65587e-06 	-4.97441e-05 	0.157481
0.00626703 	-3.95741e-07 	-2.13127e-05 	0.154093
0.00633176 	-1.38552e-06 	-1.50856e-05 	0.14872
0.00633176 	-5.47897e-06 	-4.07825e-05 	0.152057
0.00639535 	-2.36063e-06 	-9.82623e-06 	0.143108
0.00639535 	-5.28217e-06 	-3.28486e-05 	0.146382
0.00645783 	-5.06654e-06 	-2.59311e-05 	0.140441
0.00645783 	-3.31304e-06 	-5.48667e-06 	0.13724
0.0065192 	-4.83336e-06 	-2.00032e-05 	0.134216
0.0065192 	-4.23332e-06 	-2.0069e-06 	0.131099
0.00657949 	-4.5843e-06 	-1.50257e-05 	0.127692
0.00657949 	-5.11047e-06 	6.81987e-07 	0.12467
0.00663871 	-4.3217e-06 	-1.0946e-05 	0.120853
0.00663871 	-5.93191e-06 	2.65543e-06 	0.117936
0.0066969 	-4.0487e-06 	-7.68578e-06 	0.113679
0.0066969 	-6.68375e-06 	3.99848e-06 	0.110874
0.00675406 	-7.35118e-06 	4.80107e-06 	0.10345
0.00675406 	-3.76802e-06 	-5.15187e-06 	0.106139
0.00681021 	-7.9168e-06 	5.15337e-06 	0.0956412
0.00681021 	-3.48169e-06 	-3.2445e-06 	0.0982016
0.00686537 	-8.35851e-06 	5.14457e-06 	0.0874683
0.00686537 	-3.19236e-06 	-1.86907e-06 	0.0898806
0.00691956 	-8.6517e-06 	4.86171e-06 	0.0790004
0.00691956 	-2.90363e-06 	-9.42313e-07 	0.0812424
0.0069728 	-8.77382e-06 	4.38989e-06 	0.0703559
0.0069728 	-2.61907e-06 	-3.7345e-07 	0.0724047
0.0070251 	-2.34093e-06 	-6.92601e-08 	0.0635341
0.0070251 	-8.70836e-06 	3.80823e-06 	0.0616974
0.00707647 	-2.06944e-06 	5.89176e-08 	0.0548261
0.00707647 	-8.44895e-06 	3.18514e-06 	0.0532126
0.00712695 	-1.80322e-06 	8.60194e-08 	0.0464711
0.00712695 	-8.00143e-06 	2.57328e-06 	0.0450821
0.00717653 	-1.54064e-06 	6.68936e-08 	0.0386185
0.00717653 	-7.38253e-06 	2.00736e-06 	0.0374464
0.00722524 	-1.28157e-06 	3.48701e-08 	0.0313563
0.00722524 	-6.61576e-06 	1.50557e-06 	0.0303875
0.00727309 	-5.72732e-06 	1.07425e-06 	0.0239335
0.00727309 	-1.02955e-06 	6.08177e-09 	0.0247142
0.0073201 	-4.74483e-06 	7.15256e-07 	0.0180763
0.0073201 	-7.95294e-07 	-1.30413e-08 	0.0186835
0.00736628 	-3.70064e-06 	4.22133e-07 	0.0127883
0.00736628 	-6.04282e-07 	-2.65398e-08 	0.0132354
0.00741165 	-4.6196e-07 	-2.40261e-08 	0.00833341
0.00741165 	-2.59544e-06 	2.07075e-07 	0.0080348
0.00745622 	-2.93102e-07 	-1.52414e-08 	0.00393987
0.00745622 	-1.36969e-06 	6.92158e-08 	0.00377907
0.0075 	0 	0 	0
0.0075 	0 	0 	0
