/*--------------------------------*- C++ -*----------------------------------*\
| =========                 |                                                 |
| \\      /  F ield         | OpenFOAM: The Open Source CFD Toolbox           |
|  \\    /   O peration     | Version:  v1906                                 |
|   \\  /    A nd           | Web:      www.OpenFOAM.com                      |
|    \\/     M anipulation  |                                                 |
\*---------------------------------------------------------------------------*/
FoamFile
{
    version     2.0;
    format      ascii;
    class       volScalarField;
    location    "99.2";
    object      k;
}
// * * * * * * * * * * * * * * * * * * * * * * * * * * * * * * * * * * * * * //

dimensions      [0 2 -2 0 0 0 0];


internalField   nonuniform List<scalar> 
630
(
0.000480812
0.000243477
0.000110424
0.000390187
0.000499494
0.000244174
0.000111329
0.000405734
0.000518805
0.000246964
0.000112132
0.000407815
0.000538713
0.000251752
0.000112912
0.000404995
0.000559238
0.00025849
0.00011379
0.000403699
0.000580382
0.000267063
0.000114886
0.00040476
0.000602144
0.000277232
0.000116323
0.000407752
0.000624521
0.000288791
0.000118216
0.00041232
0.000647453
0.00030162
0.000120667
0.00041833
0.000670752
0.000315729
0.000123755
0.000425723
0.000694299
0.000333681
0.000127521
0.000434467
0.000719095
0.000359857
0.000131976
0.000444544
0.000748859
0.000384487
0.000137066
0.000455938
0.000787256
0.000393104
0.000142737
0.000468615
0.000825936
0.000394212
0.00014804
0.000482345
0.000842745
0.000396417
0.000152029
0.000496695
0.000837462
0.000400719
0.000155431
0.000511721
0.000824545
0.00040662
0.000158805
0.000529657
0.000813102
0.000413592
0.000162424
0.000554039
0.000804992
0.000421349
0.000166394
0.00058141
0.000799654
0.000429705
0.000170816
0.000598193
0.000796069
0.000438508
0.000175783
0.000602664
0.000793558
0.000447626
0.00018136
0.000603135
0.000791707
0.000456947
0.000187609
0.00060416
0.00079032
0.000466384
0.000194572
0.0006062
0.000789504
0.000475841
0.000202281
0.000608807
0.000789413
0.000485234
0.000210743
0.000611553
0.000789612
0.000494721
0.000219907
0.000614222
0.000788087
0.000505149
0.000229715
0.000616762
0.000782038
0.000517379
0.000240143
0.000619132
0.000771305
0.000529461
0.000251164
0.000621128
0.000758475
0.000537425
0.000262743
0.00062224
0.000745467
0.000540915
0.000274841
0.000622271
0.000733188
0.000542596
0.000287411
0.000621513
0.000721688
0.000544301
0.000300408
0.000620361
0.000710609
0.000546281
0.000313778
0.000618913
0.000699619
0.000548356
0.000327464
0.000617137
0.000688524
0.000550335
0.000341404
0.000614982
0.000677183
0.000552104
0.000355529
0.00061241
0.000665453
0.000553582
0.000369766
0.000609387
0.000653226
0.000554702
0.000384033
0.000605882
0.000640446
0.0005554
0.00039824
0.000601865
0.000627071
0.000555617
0.0004123
0.000597302
0.000613059
0.000555295
0.000426136
0.000592158
0.000598371
0.000554371
0.000439679
0.000586394
0.000582963
0.000552784
0.000452866
0.000579967
0.000566792
0.00055047
0.000465629
0.000572828
0.00054982
0.000547365
0.000477898
0.000564928
0.000532006
0.000543401
0.000489603
0.000556206
0.000513313
0.000538509
0.000500689
0.000546599
0.000493705
0.000532607
0.000511106
0.000536032
0.000473142
0.000525603
0.000520755
0.000524421
0.000451584
0.000517391
0.000529501
0.000511667
0.000428988
0.000507849
0.000537143
0.000497661
0.000405316
0.000496835
0.000543392
0.000482279
0.000380533
0.00048418
0.000547868
0.00046537
0.000354622
0.000469685
0.000550121
0.000446769
0.000327591
0.000453113
0.000549652
0.000426294
0.000299463
0.00043419
0.000545901
0.000403737
0.000270338
0.000412617
0.000538257
0.000378883
0.000240416
0.000388101
0.000526064
0.000351539
0.000210011
0.000360383
0.000508645
0.000321594
0.000179589
0.000329294
0.000485339
0.000289028
0.000149778
0.000294862
0.000455566
0.000254029
0.000121348
0.000257347
0.000418922
0.00021716
9.51355e-05
0.000217418
0.00037532
0.000179429
7.19153e-05
0.000176455
0.000325176
0.000142307
5.22513e-05
0.000136444
0.000269476
0.000107595
3.63841e-05
9.97012e-05
0.00021068
7.70795e-05
2.42018e-05
6.83617e-05
0.000153237
5.2067e-05
1.53051e-05
4.37418e-05
0.000102327
3.3031e-05
9.12988e-06
2.59861e-05
6.20676e-05
1.95805e-05
5.06987e-06
1.42193e-05
3.39011e-05
1.07434e-05
2.56398e-06
7.0508e-06
1.64628e-05
5.35506e-06
1.13835e-06
3.06726e-06
6.90968e-06
2.34198e-06
4.16901e-07
1.10082e-06
2.35974e-06
8.43936e-07
1.16781e-07
2.95992e-07
5.88555e-07
2.28629e-07
4.58993e-08
8.94278e-08
1.43853e-07
7.41997e-08
2.07623e-07
3.43011e-07
5.11833e-07
3.02724e-07
0.000202635
7.44082e-05
6.09156e-05
9.73923e-05
0.000200405
6.871e-05
5.50298e-05
9.59699e-05
0.000198708
6.53959e-05
4.88798e-05
9.52278e-05
0.000197543
6.47178e-05
4.25781e-05
9.51409e-05
0.000196912
6.64628e-05
3.62693e-05
9.57397e-05
0.000196822
7.01619e-05
3.01178e-05
9.71056e-05
0.000197289
7.52875e-05
2.42984e-05
9.93624e-05
0.000198333
8.13698e-05
1.90033e-05
0.000102668
0.000199981
8.80634e-05
1.44834e-05
0.000107183
0.000202271
9.51653e-05
1.11359e-05
0.000113074
0.000205247
0.000102583
9.62558e-06
0.000120575
0.000208961
0.000110302
1.09364e-05
0.00012997
0.000213472
0.000118356
1.61339e-05
0.000141377
0.000218839
0.000126814
2.58272e-05
0.000154546
0.000225118
0.000135757
3.95696e-05
0.000169084
0.000232339
0.000145271
5.58422e-05
0.000184623
0.000240491
0.000155433
7.31218e-05
0.000200836
0.000249491
0.000166306
9.04702e-05
0.000217427
0.00025924
0.000177951
0.000107441
0.000234127
0.00026968
0.000190406
0.000123852
0.000250684
0.000280752
0.000203593
0.000139641
0.000266867
0.000292402
0.000217234
0.000154778
0.000282312
0.000304574
0.00023095
0.000169219
0.000296607
0.000317216
0.000244351
0.000182985
0.000309759
0.000330269
0.000257133
0.000196233
0.000322131
0.000343675
0.000269055
0.000209218
0.00033407
0.000357388
0.000279986
0.000222193
0.000345836
0.000371374
0.000290079
0.000235323
0.000357608
0.000385598
0.000299656
0.000248667
0.000369503
0.000400028
0.000308989
0.000262179
0.0003816
0.000414635
0.000318255
0.000275792
0.000393929
0.000429386
0.000327537
0.000289486
0.000406465
0.000444246
0.000336847
0.000303229
0.000419155
0.000459233
0.00034616
0.0003169
0.000431976
0.000474458
0.000355452
0.000330347
0.000444997
0.00048998
0.000364736
0.000343432
0.000458319
0.000505689
0.000374056
0.000356029
0.000471861
0.000521398
0.000383364
0.000368016
0.000485421
0.000536893
0.000392519
0.000379268
0.000498766
0.000551956
0.000401354
0.000389658
0.000511696
0.000566378
0.000409726
0.000399054
0.000524058
0.000579969
0.000417516
0.000407326
0.000535727
0.000592575
0.000424612
0.00041436
0.000546589
0.000604088
0.000430903
0.00042006
0.000556524
0.00061444
0.000436272
0.000424344
0.000565404
0.000623568
0.000440591
0.000427137
0.000573089
0.000631389
0.000443725
0.000428366
0.00057943
0.000637798
0.000445532
0.000427952
0.000584265
0.000642667
0.000445855
0.000425811
0.000587417
0.000645843
0.000444531
0.000421842
0.000588693
0.000647158
0.000441391
0.000415912
0.000587886
0.000646425
0.00043626
0.000407861
0.000584774
0.000643449
0.000428981
0.000397578
0.000579134
0.000638015
0.000419419
0.000384973
0.000570734
0.000629895
0.000407457
0.000369998
0.000559326
0.000618832
0.000393002
0.000352631
0.000544673
0.000604552
0.000375987
0.000332878
0.000526542
0.000586768
0.00035638
0.000310787
0.000504715
0.000565185
0.000334187
0.00028646
0.000479007
0.000539514
0.00030947
0.000260074
0.000449286
0.000509496
0.000282359
0.00023184
0.000415501
0.000474934
0.000253075
0.000201976
0.000377722
0.000435746
0.000221876
0.000171139
0.000336194
0.000392017
0.000189401
0.000140345
0.000291309
0.000343946
0.000156664
0.000110861
0.000243999
0.000292269
0.000124954
8.4007e-05
0.000196087
0.000238691
9.56669e-05
6.08813e-05
0.000150044
0.0001858
7.00536e-05
4.21091e-05
0.000108562
0.000136745
4.89323e-05
2.77415e-05
7.3868e-05
9.45064e-05
3.25272e-05
1.73481e-05
4.70726e-05
6.10081e-05
2.05069e-05
1.0227e-05
2.79609e-05
3.65958e-05
1.21808e-05
5.61115e-06
1.53403e-05
2.02213e-05
6.73223e-06
2.80233e-06
7.62914e-06
1.01107e-05
3.38709e-06
1.22618e-06
3.31856e-06
4.41785e-06
1.49342e-06
4.38617e-07
1.18078e-06
1.579e-06
5.38876e-07
1.11695e-07
3.0319e-07
4.08902e-07
1.39738e-07
1.5063e-08
5.75506e-08
8.4503e-08
2.42399e-08
3.23267e-09
1.30409e-07
2.23257e-07
4.16402e-08
)
;

boundaryField
{
    leftWall
    {
        type            kqRWallFunction;
        value           nonuniform 0();
    }
    rightWall
    {
        type            kqRWallFunction;
        value           nonuniform List<scalar> 8(2.07623e-07 3.23267e-09 3.43011e-07 1.30409e-07 5.11833e-07 2.23257e-07 3.02724e-07 4.16402e-08);
    }
    leftSides_periodic0
    {
        type            cyclic;
    }
    leftSides_periodic1
    {
        type            cyclic;
    }
    rightSides_periodic0
    {
        type            cyclic;
    }
    rightSides_periodic1
    {
        type            cyclic;
    }
    leftInOut_periodic0
    {
        type            cyclic;
    }
    leftInOut_periodic1
    {
        type            cyclic;
    }
    rightInOut_periodic0
    {
        type            cyclic;
    }
    rightInOut_periodic1
    {
        type            cyclic;
    }
    procBoundary3to1
    {
        type            processor;
        value           nonuniform List<scalar> 
316
(
7.5357e-05
0.000221323
0.000191112
0.000135735
7.82468e-05
0.000214734
0.000197368
0.000149458
8.39133e-05
0.000209549
0.000205322
0.000163122
9.23703e-05
0.000205948
0.000214694
0.000176787
0.000103535
0.000204044
0.000225297
0.000190562
0.000117209
0.000203873
0.000237006
0.000204487
0.000133096
0.000205402
0.00024965
0.000218542
0.000150813
0.000208528
0.000263061
0.000232669
0.000169912
0.00021308
0.00027711
0.000246787
0.000189909
0.000218824
0.000291596
0.00026078
0.000210304
0.000225471
0.0003066
0.000274472
0.000230602
0.000232666
0.000322467
0.000287763
0.000250342
0.000239992
0.000338115
0.000300547
0.000269019
0.000247172
0.000351099
0.000312618
0.000285978
0.000254228
0.000361761
0.000323873
0.000300745
0.000261292
0.000371476
0.000334261
0.00031327
0.000268474
0.000380955
0.000343749
0.000323745
0.00027587
0.000390337
0.000352311
0.000332556
0.000283569
0.000399579
0.000359916
0.000340062
0.000291656
0.000408693
0.000366524
0.000346516
0.000300227
0.000417701
0.000372139
0.000352137
0.00030942
0.000426617
0.000376895
0.000357109
0.000319399
0.000435449
0.000380992
0.000361581
0.000330252
0.000444196
0.00038462
0.00036564
0.000341868
0.000452853
0.00038797
0.000369291
0.000353938
0.00046141
0.000391274
0.000372455
0.000366125
0.000469853
0.000394711
0.000375023
0.000378158
0.000478166
0.000398278
0.00037691
0.000389843
0.00048633
0.000401835
0.000378075
0.00040104
0.000494327
0.000405227
0.000378524
0.000411642
0.000502136
0.000408312
0.000378297
0.000421584
0.000509739
0.000410987
0.00037745
0.000430853
0.000517119
0.000413189
0.000376041
0.000439473
0.000524258
0.000414883
0.000374123
0.000447471
0.00053114
0.000416044
0.00037175
0.000454868
0.000537746
0.000416651
0.000368967
0.000461671
0.000544056
0.00041669
0.000365817
0.000467876
0.000550054
0.000416156
0.000362338
0.000473481
0.000555725
0.000415044
0.000358569
0.000478481
0.000561057
0.000413355
0.000354547
0.000482867
0.000566041
0.000411087
0.000350307
0.000486631
0.000570655
0.000408242
0.000345879
0.000489759
0.000574853
0.000404818
0.000341281
0.000492237
0.000578549
0.000400813
0.000336517
0.000494046
0.000581625
0.000396222
0.000331577
0.000495165
0.000583957
0.00039104
0.000326438
0.000495574
0.00058542
0.000385258
0.000321064
0.00049525
0.000585893
0.000378866
0.00031541
0.000494158
0.000585251
0.000371853
0.000309417
0.000492207
0.000583362
0.000364213
0.000303011
0.000489254
0.000580081
0.000355937
0.000296104
0.000485134
0.000575249
0.000347
0.000288588
0.000479668
0.000568683
0.000337338
0.00028034
0.000472661
0.000560178
0.000326826
0.000271216
0.000463893
0.000549493
0.000315233
0.000261064
0.000453123
0.000536374
0.000302308
0.000249692
0.000440093
0.000520558
0.000287878
0.000236922
0.000424541
0.000501779
0.000271839
0.000222621
0.000406211
0.000479787
0.000254139
0.000206705
0.000384875
0.000454358
0.000234777
0.00018916
0.000360361
0.00042533
0.00021382
0.000170062
0.000332592
0.000392635
0.000191416
0.000149565
0.000301631
0.000356354
0.000167754
0.000128093
0.000267719
0.000316764
0.000143239
0.000106314
0.000231186
0.000274297
0.00011859
8.50883e-05
0.000192877
0.000229721
9.47457e-05
6.53637e-05
0.000154352
0.000184717
7.27186e-05
4.80026e-05
0.000117651
0.000141572
5.34118e-05
3.35965e-05
8.48792e-05
0.000102738
3.74267e-05
2.23478e-05
5.76757e-05
7.02125e-05
2.4948e-05
1.40772e-05
3.67643e-05
4.49894e-05
1.57592e-05
8.34288e-06
2.18728e-05
2.68841e-05
9.37034e-06
4.59652e-06
1.20296e-05
1.4836e-05
5.18107e-06
2.30538e-06
6.00142e-06
7.41765e-06
2.60833e-06
1.01551e-06
2.62245e-06
3.24286e-06
1.15331e-06
3.70261e-07
9.4277e-07
1.16289e-06
4.21729e-07
1.06888e-07
2.55375e-07
3.11258e-07
1.20689e-07
5.61212e-08
8.65279e-08
9.87988e-08
5.77775e-08
2.91353e-07
3.65962e-07
4.10089e-07
2.87738e-07
)
;
    }
    procBoundary3to1throughrightSides_periodic1
    {
        type            processorCyclic;
        value           nonuniform List<scalar> 
314
(
0.000551619
0.000571219
0.000591085
0.000611019
0.000630821
0.000650232
0.000668948
0.000686748
0.000703477
0.000719007
0.000733239
0.000746097
0.000757533
0.000767534
0.000776123
0.000783368
0.000789371
0.000794268
0.000798228
0.000801541
0.000804511
0.000807012
0.000807408
0.00080222
0.000789716
0.000774932
0.000762105
0.000751517
0.000741756
0.000731853
0.000721857
0.000711979
0.000702278
0.000692753
0.000683401
0.00067422
0.000665211
0.000656388
0.000647751
0.000639218
0.000630367
0.000620479
0.000609073
0.000596215
0.000582317
0.000567714
0.000552479
0.000536488
0.000519565
0.000501572
0.00048236
0.000461681
0.000439389
0.000415463
0.000389959
0.000362959
0.000334568
0.000304932
0.000274259
0.000242824
0.000210871
0.000178857
0.000147598
0.000118086
9.13132e-05
6.80882e-05
4.88763e-05
3.37261e-05
2.23177e-05
1.40974e-05
8.42896e-06
4.70307e-06
2.39266e-06
1.06781e-06
3.90695e-07
1.043e-07
2.44519e-08
7.53788e-08
0.000310761
0.000311315
0.000312513
0.000314445
0.000317176
0.000320744
0.000325173
0.000330469
0.000336633
0.000343665
0.000351579
0.000360413
0.000370249
0.000381103
0.000393034
0.000406304
0.000421327
0.000438838
0.000460103
0.000486476
0.00051601
0.000536419
0.000538014
0.000524237
0.000511319
0.000499872
0.000489971
0.000481828
0.000475372
0.000470437
0.000466829
0.000464357
0.000462855
0.000462184
0.000462228
0.000462889
0.000464088
0.000465758
0.000467839
0.000470276
0.000473015
0.000476009
0.000479224
0.000482637
0.000486237
0.000490017
0.000493961
0.000498022
0.000502034
0.000505561
0.00050791
0.000508465
0.000506808
0.000502727
0.000496032
0.000486458
0.000473683
0.00045738
0.000437253
0.000413066
0.000384675
0.000352077
0.000315447
0.000275049
0.000231649
0.00018693
0.000143362
0.000103743
7.04524e-05
4.47339e-05
2.64486e-05
1.44376e-05
7.14453e-06
3.09352e-06
1.09738e-06
2.85479e-07
7.28145e-08
2.59262e-07
0.000219634
0.000222741
0.000226586
0.000231074
0.000236119
0.000241622
0.000247469
0.000253536
0.000259685
0.000265772
0.000271647
0.000277159
0.000282162
0.000286549
0.000290276
0.000293346
0.000295788
0.00029764
0.000298954
0.000299784
0.000300189
0.000300236
0.000300004
0.000299588
0.000299091
0.000298626
0.000298283
0.000298142
0.000298287
0.000298785
0.000299697
0.000301079
0.000302993
0.000305502
0.000308671
0.000312579
0.000317333
0.000323112
0.000330102
0.000338184
0.000346752
0.000355151
0.000362737
0.00037
0.000377743
0.000386408
0.000395989
0.000406282
0.000417038
0.000427932
0.000438629
0.000448847
0.000458324
0.000466771
0.000473829
0.000479067
0.000481992
0.000482067
0.000478719
0.000471357
0.000459377
0.000442195
0.000419295
0.000390311
0.000355123
0.000313991
0.000267581
0.000217022
0.000165484
0.000117252
7.64645e-05
4.55876e-05
2.46801e-05
1.1967e-05
5.03874e-06
1.72865e-06
4.27593e-07
8.09975e-08
1.9958e-07
0.00040144
0.0004026
0.000404399
0.000406655
0.000409258
0.000412168
0.000415375
0.000418886
0.000422708
0.000426849
0.000431314
0.000436113
0.000441258
0.000446768
0.000452676
0.000459036
0.000465924
0.000473452
0.000481784
0.000491172
0.000502026
0.000515056
0.000531559
0.000552821
0.000576173
0.000589507
0.000581672
0.00056033
0.000541742
0.000526136
0.000512563
0.00050053
0.000489916
0.000480664
0.000472674
0.000465808
0.000459947
0.000455001
0.000450894
0.000447561
0.000444944
0.00044299
0.000441667
0.000440971
0.000440932
0.000441606
0.000443068
0.000445348
0.00044818
0.000450634
0.000451505
0.000449981
0.000445939
0.000439615
0.000431103
0.000420251
0.000406788
0.000390458
0.000371076
0.000348541
0.000322851
0.000294128
0.000262646
0.000228797
0.000193122
0.000156924
0.000122018
9.03431e-05
6.34823e-05
4.22521e-05
2.65823e-05
1.57324e-05
8.66469e-06
4.34946e-06
1.91738e-06
6.94769e-07
1.86576e-07
5.46672e-08
2.15906e-07
)
;
    }
    procBoundary3to2
    {
        type            processor;
        value           nonuniform List<scalar> 
11
(
0.00046313
0.000244998
0.000109369
0.000371038
0.000205377
8.16714e-05
6.64642e-05
9.95773e-05
6.64642e-05
9.95773e-05
9.95773e-05
)
;
    }
    procBoundary3to2throughrightInOut_periodic0
    {
        type            processorCyclic;
        value           uniform 6.64642e-05;
    }
}


// ************************************************************************* //
