/*--------------------------------*- C++ -*----------------------------------*\
| =========                 |                                                 |
| \\      /  F ield         | OpenFOAM: The Open Source CFD Toolbox           |
|  \\    /   O peration     | Version:  v1906                                 |
|   \\  /    A nd           | Web:      www.OpenFOAM.com                      |
|    \\/     M anipulation  |                                                 |
\*---------------------------------------------------------------------------*/
FoamFile
{
    version     2.0;
    format      ascii;
    class       volScalarField;
    location    "99.2";
    object      T;
}
// * * * * * * * * * * * * * * * * * * * * * * * * * * * * * * * * * * * * * //

dimensions      [0 0 0 1 0 0 0];


internalField   nonuniform List<scalar> 
630
(
342.81
346.847
346.584
343.03
342.731
346.786
346.597
343.004
342.654
346.73
346.61
342.989
342.579
346.677
346.623
342.979
342.505
346.628
346.637
342.972
342.432
346.582
346.651
342.967
342.361
346.54
346.666
342.964
342.29
346.5
346.682
342.964
342.221
346.464
346.7
342.966
342.154
346.432
346.719
342.97
342.088
346.396
346.741
342.975
342.024
346.344
346.765
342.983
341.951
346.283
346.791
342.992
341.851
346.247
346.822
343.002
341.719
346.223
346.858
343.014
341.587
346.203
346.892
343.027
341.496
346.185
346.924
343.04
341.432
346.17
346.955
343.057
341.377
346.156
346.984
343.082
341.325
346.143
347.013
343.116
341.276
346.132
347.042
343.149
341.228
346.122
347.07
343.173
341.18
346.112
347.099
343.193
341.134
346.103
347.127
343.211
341.087
346.095
347.155
343.229
341.041
346.087
347.184
343.247
340.991
346.08
347.212
343.264
340.932
346.072
347.24
343.28
340.864
346.064
347.269
343.296
340.792
346.054
347.297
343.311
340.728
346.041
347.324
343.326
340.673
346.029
347.352
343.34
340.622
346.019
347.379
343.352
340.572
346.008
347.405
343.363
340.521
345.998
347.431
343.373
340.469
345.987
347.456
343.381
340.416
345.975
347.48
343.387
340.362
345.962
347.503
343.392
340.306
345.949
347.526
343.395
340.248
345.934
347.547
343.396
340.188
345.918
347.567
343.396
340.127
345.901
347.586
343.393
340.064
345.883
347.604
343.388
339.998
345.863
347.621
343.382
339.931
345.842
347.636
343.372
339.861
345.819
347.65
343.36
339.789
345.794
347.662
343.346
339.714
345.767
347.673
343.328
339.636
345.738
347.681
343.308
339.555
345.707
347.687
343.284
339.469
345.672
347.691
343.256
339.38
345.635
347.693
343.224
339.285
345.593
347.691
343.187
339.184
345.548
347.686
343.145
339.076
345.497
347.677
343.098
338.96
345.441
347.663
343.043
338.833
345.378
347.644
342.98
338.694
345.306
347.618
342.906
338.539
345.224
347.584
342.821
338.363
345.129
347.541
342.72
338.162
345.018
347.485
342.6
337.926
344.885
347.415
342.454
337.643
344.726
347.326
342.275
337.297
344.53
347.213
342.05
336.865
344.283
347.066
341.759
336.311
343.961
346.876
341.372
335.595
343.527
346.622
340.842
334.666
342.919
346.273
340.099
333.483
342.048
345.764
339.045
332.031
340.788
344.983
337.572
330.338
339.013
343.751
335.614
328.463
336.676
341.83
333.212
326.473
333.864
339.058
330.513
324.419
330.75
335.532
327.684
322.335
327.496
331.546
324.848
320.24
324.206
327.374
322.07
318.148
320.937
323.18
319.377
316.07
317.717
319.043
316.772
314.017
314.558
314.993
314.244
344.507
344.27
347.076
347.156
344.423
344.174
347.02
347.048
344.34
344.081
346.958
346.941
344.257
343.994
346.89
346.836
344.175
343.914
346.813
346.731
344.093
343.842
346.727
346.628
344.012
343.776
346.634
346.526
343.931
343.717
346.54
346.425
343.851
343.661
346.453
346.327
343.771
343.609
346.381
346.23
343.691
343.558
346.324
346.136
343.612
343.51
346.267
346.044
343.534
343.462
346.194
345.953
343.456
343.414
346.111
345.865
343.38
343.367
346.033
345.778
343.306
343.32
345.963
345.694
343.233
343.273
345.9
345.612
343.163
343.227
345.841
345.532
343.094
343.181
345.785
345.453
343.028
343.135
345.731
345.377
342.964
343.09
345.677
345.301
342.902
343.045
345.624
345.226
342.843
343.001
345.57
345.151
342.784
342.957
345.517
345.078
342.728
342.914
345.463
345.007
342.673
342.87
345.409
344.938
342.62
342.827
345.355
344.87
342.567
342.784
345.3
344.804
342.516
342.74
345.245
344.738
342.465
342.695
345.19
344.673
342.415
342.65
345.133
344.608
342.365
342.604
345.076
344.544
342.315
342.556
345.016
344.479
342.265
342.507
344.954
344.414
342.214
342.457
344.89
344.349
342.161
342.405
344.823
344.281
342.106
342.351
344.754
344.212
342.048
342.293
344.682
344.14
341.988
342.233
344.608
344.066
341.927
342.169
344.53
343.99
341.863
342.103
344.45
343.912
341.797
342.033
344.367
343.832
341.729
341.96
344.281
343.75
341.659
341.883
344.191
343.665
341.588
341.802
344.098
343.577
341.513
341.716
344.001
343.486
341.436
341.626
343.901
343.392
341.356
341.532
343.795
343.294
341.272
341.431
343.685
343.193
341.185
341.325
343.57
343.086
341.093
341.212
343.448
342.974
340.996
341.092
343.319
342.857
340.894
340.963
343.18
342.733
340.786
340.825
343.032
342.603
340.67
340.677
342.873
342.463
340.548
340.518
342.702
342.314
340.415
340.345
342.517
342.153
340.273
340.159
342.316
341.979
340.118
339.955
342.095
341.789
339.948
339.731
341.852
341.58
339.761
339.483
341.579
341.348
339.553
339.205
341.265
341.088
339.318
338.886
340.887
340.791
339.051
338.506
340.422
340.442
338.738
338.042
339.833
340.015
338.358
337.461
339.066
339.473
337.88
336.716
338.056
338.76
337.258
335.749
336.738
337.796
336.418
334.5
335.075
336.481
335.267
332.937
333.092
334.734
333.706
331.087
330.872
332.556
331.703
329.032
328.512
330.061
329.346
326.87
326.089
327.404
326.796
324.673
323.653
324.703
324.194
322.482
321.228
322.02
321.616
320.316
318.83
319.38
319.088
318.182
316.468
316.791
316.615
316.082
314.147
314.253
314.195
314.02
)
;

boundaryField
{
    leftWall
    {
        type            fixedValue;
        value           nonuniform 0();
    }
    rightWall
    {
        type            fixedValue;
        value           uniform 313;
    }
    leftSides_periodic0
    {
        type            cyclic;
    }
    leftSides_periodic1
    {
        type            cyclic;
    }
    rightSides_periodic0
    {
        type            cyclic;
    }
    rightSides_periodic1
    {
        type            cyclic;
    }
    leftInOut_periodic0
    {
        type            cyclic;
    }
    leftInOut_periodic1
    {
        type            cyclic;
    }
    rightInOut_periodic0
    {
        type            cyclic;
    }
    rightInOut_periodic1
    {
        type            cyclic;
    }
    procBoundary3to1
    {
        type            processor;
        value           nonuniform List<scalar> 
316
(
347.575
347.37
344.281
344.13
347.455
347.258
344.207
344.053
347.333
347.146
344.133
343.98
347.212
347.036
344.06
343.911
347.094
346.927
343.987
343.846
346.98
346.818
343.915
343.783
346.871
346.71
343.844
343.723
346.766
346.603
343.774
343.665
346.666
346.496
343.705
343.61
346.571
346.391
343.637
343.556
346.48
346.287
343.564
343.504
346.393
346.184
343.48
343.453
346.31
346.082
343.39
343.402
346.229
345.983
343.311
343.352
346.152
345.887
343.247
343.303
346.077
345.793
343.189
343.254
346.005
345.702
343.133
343.205
345.938
345.613
343.079
343.157
345.874
345.526
343.025
343.11
345.813
345.442
342.973
343.063
345.754
345.359
342.921
343.016
345.698
345.279
342.87
342.969
345.644
345.201
342.819
342.923
345.592
345.124
342.769
342.876
345.542
345.049
342.719
342.829
345.493
344.974
342.67
342.782
345.445
344.899
342.62
342.734
345.398
344.827
342.57
342.687
345.352
344.755
342.52
342.641
345.307
344.685
342.47
342.595
345.263
344.616
342.42
342.549
345.22
344.549
342.37
342.504
345.177
344.483
342.319
342.459
345.135
344.419
342.267
342.415
345.094
344.355
342.215
342.371
345.053
344.293
342.162
342.327
345.011
344.231
342.108
342.283
344.971
344.171
342.054
342.238
344.93
344.11
341.999
342.194
344.888
344.05
341.942
342.15
344.847
343.99
341.885
342.105
344.805
343.93
341.826
342.06
344.762
343.869
341.765
342.014
344.718
343.809
341.702
341.968
344.672
343.747
341.637
341.921
344.626
343.684
341.57
341.873
344.577
343.62
341.5
341.823
344.525
343.555
341.427
341.772
344.471
343.487
341.351
341.719
344.414
343.417
341.272
341.664
344.352
343.344
341.189
341.606
344.286
343.266
341.101
341.545
344.213
343.184
341.009
341.479
344.134
343.096
340.911
341.408
344.046
343.001
340.807
341.329
343.948
342.899
340.694
341.242
343.836
342.786
340.572
341.143
343.708
342.662
340.439
341.029
343.559
342.524
340.292
340.899
343.384
342.368
340.129
340.746
343.176
342.191
339.945
340.565
342.925
341.986
339.736
340.347
342.618
341.746
339.495
340.082
342.23
341.461
339.214
339.747
341.733
341.115
338.877
339.314
341.081
340.677
338.46
338.745
340.219
340.103
337.921
337.987
339.078
339.332
337.205
336.98
337.601
338.28
336.238
335.669
335.772
336.854
334.935
334.031
333.635
334.995
333.237
332.098
331.284
332.734
331.164
329.951
328.818
330.191
328.823
327.681
326.313
327.508
326.348
325.361
323.812
324.787
323.838
323.04
321.338
322.085
321.349
320.742
318.903
319.426
318.902
318.479
316.51
316.817
316.505
316.256
314.161
314.262
314.158
314.077
)
;
    }
    procBoundary3to1throughrightSides_periodic1
    {
        type            processorCyclic;
        value           nonuniform List<scalar> 
314
(
342.668
342.599
342.533
342.47
342.41
342.352
342.298
342.245
342.195
342.147
342.1
342.056
342.012
341.971
341.931
341.891
341.853
341.816
341.779
341.742
341.706
341.67
341.631
341.585
341.533
341.482
341.438
341.399
341.36
341.32
341.278
341.234
341.189
341.141
341.092
341.04
340.986
340.928
340.867
340.803
340.733
340.656
340.57
340.477
340.378
340.274
340.164
340.046
339.92
339.783
339.636
339.474
339.296
339.099
338.882
338.642
338.376
338.078
337.744
337.368
336.936
336.43
335.824
335.091
334.199
333.116
331.823
330.332
328.688
326.96
325.211
323.483
321.792
320.136
318.511
316.91
315.33
313.772
346.849
346.793
346.739
346.689
346.641
346.596
346.554
346.513
346.475
346.439
346.406
346.374
346.345
346.318
346.293
346.27
346.249
346.23
346.213
346.197
346.182
346.163
346.137
346.119
346.106
346.094
346.083
346.07
346.057
346.044
346.031
346.017
346.002
345.988
345.973
345.957
345.941
345.923
345.905
345.886
345.866
345.843
345.82
345.794
345.765
345.734
345.7
345.662
345.62
345.572
345.518
345.456
345.386
345.307
345.219
345.119
345.005
344.874
344.723
344.548
344.342
344.099
343.808
343.453
343.005
342.419
341.626
340.531
339.02
337.01
334.523
331.704
328.735
325.747
322.801
319.92
317.107
314.357
346.463
346.479
346.495
346.512
346.53
346.548
346.567
346.587
346.608
346.629
346.651
346.673
346.696
346.72
346.745
346.771
346.798
346.826
346.854
346.883
346.913
346.943
346.974
347.006
347.038
347.071
347.105
347.138
347.172
347.205
347.238
347.271
347.303
347.336
347.368
347.4
347.431
347.462
347.492
347.522
347.553
347.589
347.623
347.653
347.678
347.7
347.72
347.738
347.754
347.767
347.777
347.784
347.785
347.782
347.773
347.757
347.733
347.7
347.655
347.596
347.521
347.425
347.304
347.151
346.956
346.705
346.378
345.933
345.292
344.333
342.874
340.717
337.794
334.264
330.406
326.442
322.498
318.63
314.856
343.084
343.088
343.092
343.099
343.106
343.114
343.122
343.131
343.141
343.152
343.163
343.175
343.187
343.201
343.215
343.23
343.245
343.262
343.279
343.297
343.316
343.336
343.357
343.38
343.405
343.443
343.502
343.546
343.572
343.591
343.608
343.624
343.64
343.654
343.667
343.679
343.69
343.698
343.706
343.711
343.714
343.715
343.713
343.708
343.7
343.688
343.671
343.65
343.622
343.587
343.542
343.486
343.419
343.341
343.249
343.142
343.016
342.867
342.692
342.486
342.242
341.951
341.605
341.187
340.67
340.007
339.14
337.994
336.495
334.603
332.361
329.9
327.373
324.889
322.504
320.232
318.066
315.991
313.986
)
;
    }
    procBoundary3to2
    {
        type            processor;
        value           nonuniform List<scalar> 
11
(
342.891
346.91
346.57
343.054
344.591
344.365
347.127
347.264
347.127
347.264
347.264
)
;
    }
    procBoundary3to2throughrightInOut_periodic0
    {
        type            processorCyclic;
        value           uniform 347.127;
    }
}


// ************************************************************************* //
