-0.0075 	0 	0 	0
-0.00715932 	-0.000191841 	-4.01179e-05 	0.139439
-0.00676191 	-0.000306051 	-0.000120722 	0.219506
-0.00629832 	-0.000336151 	-0.000220371 	0.269237
-0.00575752 	-0.000315949 	-0.000318525 	0.302871
-0.00512667 	-0.000278479 	-0.000404025 	0.328208
-0.00439077 	-0.000242638 	-0.000470185 	0.348131
-0.00353231 	-0.000215135 	-0.000519993 	0.363519
-0.00253089 	-0.00019413 	-0.000558605 	0.374464
-0.00136271 	-0.000175523 	-0.000584356 	0.380819
0 	-0.000158092 	-0.000591182 	0.382163
0.00136271 	-0.000143935 	-0.000574923 	0.378007
0.00253089 	-0.000136096 	-0.000536541 	0.368606
0.00353231 	-0.000138139 	-0.0004815 	0.354619
0.00439077 	-0.000154099 	-0.000408468 	0.336039
0.00512667 	-0.000185423 	-0.000311796 	0.31162
0.00575752 	-0.000225022 	-0.000194919 	0.278472
0.00629832 	-0.000249699 	-7.8569e-05 	0.23139
0.00676191 	-0.000216887 	-2.37033e-06 	0.160362
0.00715932 	-0.000113308 	1.24094e-05 	0.0718033
0.0075 	0 	0 	0
