/*--------------------------------*- C++ -*----------------------------------*\
| =========                 |                                                 |
| \\      /  F ield         | OpenFOAM: The Open Source CFD Toolbox           |
|  \\    /   O peration     | Version:  v1912                                 |
|   \\  /    A nd           | Website:  www.openfoam.com                      |
|    \\/     M anipulation  |                                                 |
\*---------------------------------------------------------------------------*/
FoamFile
{
    version     2.0;
    format      ascii;
    class       volScalarField;
    location    "7.6";
    object      heatTransferCoeff(T);
}
// * * * * * * * * * * * * * * * * * * * * * * * * * * * * * * * * * * * * * //

dimensions      [1 0 -3 -1 0 0 0];


internalField   uniform 0;

boundaryField
{
    leftWall
    {
        type            calculated;
        value           nonuniform List<scalar> 
216
(
-213.855
-218.947
-227.379
-233.587
-243.687
-251.423
-263.738
-273.796
-289.307
-303.282
-324.226
-345.217
-375.429
-409.257
-462.647
-547.154
-813.543
-2784.63
-218.756
-223.958
-232.778
-238.966
-249.299
-256.824
-269.225
-279.035
-294.609
-307.834
-327.246
-344.989
-372.156
-405.119
-461.33
-548.831
-814.462
-2783.87
-226.131
-231.563
-240.973
-247.56
-258.499
-266.094
-278.341
-287.023
-300.991
-311.773
-328.86
-344.502
-370.768
-403.923
-461.626
-550.015
-815.176
-2784.24
-227.872
-233.087
-242.27
-248.769
-259.546
-266.909
-278.541
-286.262
-298.853
-308.436
-325.025
-341.703
-370.105
-404.928
-462.27
-550.2
-817.158
-2785.03
-223.415
-227.983
-236.022
-241.692
-251.371
-258.46
-270.102
-279.294
-294.003
-307.175
-327.332
-347.354
-376.532
-409.949
-464.989
-552.655
-818.69
-2784.34
-218.919
-223.54
-231.492
-237.041
-246.417
-253.454
-265.315
-275.623
-292.174
-308.131
-331.264
-354.262
-385.549
-419.791
-472.602
-554.578
-815.96
-2784.04
-218.241
-223.018
-231.491
-237.357
-247.354
-254.657
-266.812
-276.631
-292.256
-306.308
-327.602
-349.199
-380.774
-416.241
-470.093
-552.351
-816.322
-2784.73
-219.257
-223.767
-231.883
-237.201
-246.748
-253.566
-265.458
-274.923
-290.242
-303.517
-323.685
-343.438
-373.489
-408.83
-465.706
-551.787
-816.874
-2785.4
-221.652
-225.797
-233.183
-237.767
-246.264
-252.139
-263.048
-271.968
-287.104
-300.699
-321.286
-341.368
-371.863
-408.214
-465.643
-548.506
-809.451
-2785.73
-223.189
-227.38
-234.841
-240.279
-249.714
-257.026
-268.95
-278.639
-293.571
-306.598
-326.165
-345.506
-374.857
-409.233
-463.729
-545.908
-809.151
-2786.65
-223.299
-227.986
-235.775
-241.631
-251.345
-259.1
-271.387
-281.567
-296.73
-309.846
-329.075
-348.231
-377.342
-411.217
-463.739
-544.788
-810.983
-2787.53
-222.397
-227.356
-235.468
-241.151
-250.559
-257.533
-269.022
-278.273
-292.696
-304.974
-323.38
-342.007
-371.82
-407.927
-463.794
-549.572
-817.818
-2787.18
)
;
    }
    rightWall
    {
        type            calculated;
        value           nonuniform List<scalar> 
216
(
-208.559
-212.45
-217.868
-222.376
-228.894
-234.441
-242.599
-249.988
-260.824
-271.328
-286.275
-301.633
-323.41
-349.037
-392.742
-464.144
-704.825
-2833.41
-208.455
-212.262
-217.418
-221.869
-228.083
-233.407
-241.014
-247.794
-257.731
-267.472
-281.912
-297.536
-320.371
-346.856
-390.154
-460.366
-702.041
-2826.75
-209.078
-212.853
-217.835
-222.201
-228.196
-233.368
-240.732
-247.299
-257.004
-266.551
-280.982
-296.795
-320.023
-346.763
-390.375
-460.692
-701.311
-2823.41
-208.732
-212.677
-217.851
-222.46
-228.776
-234.402
-242.372
-249.683
-260.175
-270.347
-284.989
-300.329
-322.513
-348.198
-391.33
-461.651
-704.585
-2835.78
-206.965
-210.993
-216.33
-221.093
-227.631
-233.497
-241.716
-249.292
-259.986
-270.357
-285.072
-300.535
-322.875
-348.852
-391.841
-461.322
-704.486
-2841.51
-206.581
-210.647
-215.998
-220.861
-227.478
-233.492
-241.795
-249.466
-260.114
-270.384
-284.726
-299.819
-321.757
-347.796
-391.19
-461.655
-705.941
-2819.42
-208.532
-212.718
-218.079
-223.023
-229.609
-235.658
-243.898
-251.584
-262.159
-272.388
-286.561
-301.261
-322.466
-347.849
-391.445
-463.24
-706.063
-2810.96
-207.155
-211.328
-216.669
-221.5
-227.936
-233.675
-241.572
-248.737
-258.855
-268.585
-282.603
-297.465
-319.507
-346.172
-391.278
-463.578
-703.883
-2809.93
-204.403
-208.309
-213.465
-218.01
-224.303
-229.832
-237.764
-244.949
-255.374
-265.391
-279.86
-295.024
-317.437
-344.522
-390.627
-464.636
-705.1
-2825.97
-205.397
-209.028
-213.995
-218.245
-224.37
-229.625
-237.433
-244.473
-254.978
-265.113
-279.947
-295.315
-317.528
-343.837
-388.791
-463.047
-705.223
-2825.72
-207.107
-210.821
-216.033
-220.443
-226.893
-232.35
-240.487
-247.665
-258.391
-268.521
-283.481
-298.821
-321.138
-347.247
-391.236
-463.553
-706.082
-2830.5
-207.989
-211.976
-217.512
-222.233
-229.011
-234.774
-243.203
-250.605
-261.507
-271.767
-286.872
-302.383
-324.967
-350.864
-393.697
-463.721
-706.944
-2834.83
)
;
    }
    leftSides_periodic0
    {
        type            cyclic;
    }
    leftSides_periodic1
    {
        type            cyclic;
    }
    rightSides_periodic0
    {
        type            cyclic;
    }
    rightSides_periodic1
    {
        type            cyclic;
    }
    leftInOut_periodic0
    {
        type            calculated;
        value           nonuniform 0();
    }
    leftInOut_periodic1
    {
        type            calculated;
        value           uniform 0;
    }
    rightInOut_periodic0
    {
        type            calculated;
        value           nonuniform 0();
    }
    rightInOut_periodic1
    {
        type            calculated;
        value           uniform 0;
    }
    procBoundary3to0
    {
        type            processor;
        value           uniform 0;
    }
    procBoundary3to4
    {
        type            processor;
        value           uniform 0;
    }
    procBoundary3to5throughleftSides_periodic1
    {
        type            processorCyclic;
        value           uniform 0;
    }
    procBoundary3to5throughrightSides_periodic1
    {
        type            processorCyclic;
        value           uniform 0;
    }
}


// ************************************************************************* //
