/*--------------------------------*- C++ -*----------------------------------*\
| =========                 |                                                 |
| \\      /  F ield         | OpenFOAM: The Open Source CFD Toolbox           |
|  \\    /   O peration     | Version:  v1912                                 |
|   \\  /    A nd           | Website:  www.openfoam.com                      |
|    \\/     M anipulation  |                                                 |
\*---------------------------------------------------------------------------*/
FoamFile
{
    version     2.0;
    format      ascii;
    class       volScalarField;
    location    "7.6";
    object      nut;
}
// * * * * * * * * * * * * * * * * * * * * * * * * * * * * * * * * * * * * * //

dimensions      [0 2 -1 0 0 0 0];


internalField   nonuniform List<scalar> 
34128
(
4.03736e-12
4.38907e-12
4.80091e-12
4.78078e-12
4.39993e-12
4.1375e-12
4.16147e-12
4.14593e-12
4.08483e-12
4.24752e-12
4.4075e-12
4.3713e-12
3.96132e-12
4.31797e-12
4.71667e-12
4.68595e-12
4.3215e-12
4.07712e-12
4.0993e-12
4.07945e-12
4.01768e-12
4.17419e-12
4.33051e-12
4.29174e-12
6.96705e-12
7.7986e-12
8.38156e-12
8.12093e-12
7.66289e-12
7.48546e-12
7.49825e-12
7.37567e-12
7.23526e-12
7.45382e-12
7.71358e-12
7.58326e-12
2.88614e-11
3.29396e-11
3.48418e-11
3.30498e-11
3.18559e-11
3.20451e-11
3.20004e-11
3.11801e-11
3.04954e-11
3.11961e-11
3.21885e-11
3.1416e-11
1.12426e-10
1.2847e-10
1.34901e-10
1.2734e-10
1.23702e-10
1.25522e-10
1.25214e-10
1.21712e-10
1.19026e-10
1.21504e-10
1.25098e-10
1.21781e-10
3.3756e-10
3.84319e-10
4.01152e-10
3.78337e-10
3.69537e-10
3.76664e-10
3.75459e-10
3.64705e-10
3.56973e-10
3.6391e-10
3.73733e-10
3.63224e-10
8.14905e-10
9.2255e-10
9.57132e-10
9.03086e-10
8.86843e-10
9.07326e-10
9.03736e-10
8.77744e-10
8.60408e-10
8.75788e-10
8.9669e-10
8.70197e-10
1.65895e-09
1.8653e-09
1.92381e-09
1.81748e-09
1.79421e-09
1.84164e-09
1.83298e-09
1.78075e-09
1.74887e-09
1.77701e-09
1.81321e-09
1.75727e-09
2.95212e-09
3.29465e-09
3.37985e-09
3.1993e-09
3.17349e-09
3.26562e-09
3.24824e-09
3.15751e-09
3.10749e-09
3.15185e-09
3.20464e-09
3.10173e-09
4.71895e-09
5.22643e-09
5.33853e-09
5.06637e-09
5.04447e-09
5.19901e-09
5.16911e-09
5.0289e-09
4.95969e-09
5.02238e-09
5.08899e-09
4.9197e-09
6.92208e-09
7.60949e-09
7.74879e-09
7.37626e-09
7.36294e-09
7.59196e-09
7.54701e-09
7.34969e-09
7.26282e-09
7.34542e-09
7.41951e-09
7.16475e-09
9.45939e-09
1.02631e-08
1.04893e-08
1.00417e-08
1.0036e-08
1.02718e-08
1.02361e-08
1.0014e-08
9.90905e-09
1.00017e-08
1.00748e-08
9.74381e-09
1.17366e-08
1.26795e-08
1.29525e-08
1.24973e-08
1.24175e-08
1.26851e-08
1.26453e-08
1.23811e-08
1.22612e-08
1.23837e-08
1.24589e-08
1.20616e-08
1.41368e-08
1.52119e-08
1.55288e-08
1.50152e-08
1.49087e-08
1.52071e-08
1.51628e-08
1.48567e-08
1.47261e-08
1.4884e-08
1.49573e-08
1.44606e-08
1.66322e-08
1.78306e-08
1.81879e-08
1.7618e-08
1.74806e-08
1.78055e-08
1.77554e-08
1.74083e-08
1.72728e-08
1.74726e-08
1.75393e-08
1.69315e-08
1.91984e-08
2.05104e-08
2.09049e-08
2.02809e-08
2.01061e-08
2.04511e-08
2.03938e-08
2.00066e-08
1.98733e-08
2.01231e-08
2.01789e-08
1.94476e-08
2.18178e-08
2.32341e-08
2.36625e-08
2.29856e-08
2.27647e-08
2.3122e-08
2.30556e-08
2.26293e-08
2.25055e-08
2.28166e-08
2.28578e-08
2.19887e-08
2.44809e-08
2.59933e-08
2.64512e-08
2.57201e-08
2.54436e-08
2.58045e-08
2.57276e-08
2.52624e-08
2.51554e-08
2.55427e-08
2.55665e-08
2.45425e-08
2.71885e-08
2.87901e-08
2.92694e-08
2.84794e-08
2.81387e-08
2.8496e-08
2.84075e-08
2.79022e-08
2.78188e-08
2.83005e-08
2.83049e-08
2.71055e-08
2.99523e-08
3.16377e-08
3.21246e-08
3.1266e-08
3.08559e-08
3.12067e-08
3.11051e-08
3.05566e-08
3.05032e-08
3.10994e-08
3.1083e-08
2.96842e-08
3.2796e-08
3.45604e-08
3.5033e-08
3.40909e-08
3.36126e-08
3.39592e-08
3.38431e-08
3.32468e-08
3.32278e-08
3.39592e-08
3.39204e-08
3.22948e-08
3.57529e-08
3.7591e-08
3.80188e-08
3.69733e-08
3.64351e-08
3.67863e-08
3.66537e-08
3.60037e-08
3.60226e-08
3.69082e-08
3.68446e-08
3.49621e-08
3.88609e-08
4.07666e-08
4.11105e-08
3.99378e-08
3.9355e-08
3.97253e-08
3.9573e-08
3.88635e-08
3.8922e-08
3.99786e-08
3.98866e-08
3.77162e-08
4.21563e-08
4.41242e-08
4.43394e-08
4.30115e-08
4.24044e-08
4.28122e-08
4.26356e-08
4.18613e-08
4.19583e-08
4.32016e-08
4.3078e-08
4.0588e-08
4.56702e-08
4.77006e-08
4.77381e-08
4.62212e-08
4.56152e-08
4.60814e-08
4.58731e-08
4.5027e-08
4.5158e-08
4.66046e-08
4.64488e-08
4.36055e-08
4.94313e-08
5.15366e-08
5.13438e-08
4.95961e-08
4.90208e-08
4.95705e-08
4.93183e-08
4.83881e-08
4.85429e-08
5.02144e-08
5.003e-08
4.67956e-08
5.34768e-08
5.56861e-08
5.52036e-08
5.3174e-08
5.26645e-08
5.33324e-08
5.30164e-08
5.19776e-08
5.21379e-08
5.40656e-08
5.38608e-08
5.01881e-08
5.78676e-08
6.0227e-08
5.93826e-08
5.70076e-08
5.66104e-08
5.74497e-08
5.70405e-08
5.58486e-08
5.59833e-08
5.82114e-08
5.79986e-08
5.38224e-08
6.27075e-08
6.5272e-08
6.39719e-08
6.11735e-08
6.0956e-08
6.20517e-08
6.15097e-08
6.00909e-08
6.01491e-08
6.27369e-08
6.253e-08
5.77564e-08
6.81628e-08
7.09819e-08
6.91013e-08
6.57854e-08
6.585e-08
6.73359e-08
6.66138e-08
6.48523e-08
6.4753e-08
6.77739e-08
6.75842e-08
6.20777e-08
7.44857e-08
7.75647e-08
7.4941e-08
7.10106e-08
7.15018e-08
7.35443e-08
7.26098e-08
7.03666e-08
6.99913e-08
7.35178e-08
7.33484e-08
6.6919e-08
8.19699e-08
8.52559e-08
8.16933e-08
7.70477e-08
7.81432e-08
8.09435e-08
7.97785e-08
7.69037e-08
7.6097e-08
8.01829e-08
8.00353e-08
7.2475e-08
9.09633e-08
9.43829e-08
8.96185e-08
8.41318e-08
8.60663e-08
8.98992e-08
8.84933e-08
8.47771e-08
8.33171e-08
8.80293e-08
8.78998e-08
7.89188e-08
1.0202e-07
1.05471e-07
9.914e-08
9.26516e-08
9.57399e-08
1.00982e-07
9.93405e-08
9.44846e-08
9.20635e-08
9.74856e-08
9.73599e-08
8.65648e-08
1.15997e-07
1.19322e-07
1.10896e-07
1.03197e-07
1.07874e-07
1.15057e-07
1.13215e-07
1.06781e-07
1.02954e-07
1.09196e-07
1.09049e-07
9.58852e-08
1.34226e-07
1.37165e-07
1.25853e-07
1.16655e-07
1.23545e-07
1.33439e-07
1.31498e-07
1.22825e-07
1.1692e-07
1.24141e-07
1.23923e-07
1.07578e-07
1.58826e-07
1.6095e-07
1.45501e-07
1.34385e-07
1.44419e-07
1.58167e-07
1.56359e-07
1.44437e-07
1.3542e-07
1.43842e-07
1.43455e-07
1.22694e-07
1.93337e-07
1.93539e-07
1.71961e-07
1.58425e-07
1.73128e-07
1.92531e-07
1.91381e-07
1.74616e-07
1.60866e-07
1.70771e-07
1.70001e-07
1.42873e-07
2.4281e-07
2.2497e-07
1.96645e-07
1.86627e-07
2.12423e-07
2.41435e-07
2.42148e-07
2.1822e-07
1.97078e-07
2.08819e-07
2.0709e-07
1.70561e-07
2.90701e-07
2.65696e-07
2.29183e-07
2.17553e-07
2.51431e-07
2.90759e-07
2.93889e-07
2.68071e-07
2.33856e-07
2.4953e-07
2.43694e-07
1.99428e-07
3.53379e-07
3.193e-07
2.72399e-07
2.58772e-07
3.03636e-07
3.54541e-07
3.60175e-07
3.27693e-07
2.80071e-07
2.98636e-07
2.90805e-07
2.34974e-07
4.30144e-07
3.85593e-07
3.27925e-07
3.12852e-07
3.70065e-07
4.33765e-07
4.42735e-07
4.03354e-07
3.40253e-07
3.6138e-07
3.5123e-07
2.82284e-07
5.2261e-07
4.66278e-07
3.96375e-07
3.8044e-07
4.52024e-07
5.30685e-07
5.43915e-07
4.96908e-07
4.14815e-07
4.38397e-07
4.25565e-07
3.4301e-07
6.32254e-07
5.63709e-07
4.79649e-07
4.6314e-07
5.51957e-07
6.4732e-07
6.65581e-07
6.10727e-07
5.05825e-07
5.31915e-07
5.15985e-07
4.1787e-07
7.59846e-07
6.79415e-07
5.79707e-07
5.63067e-07
6.71771e-07
7.84599e-07
8.08252e-07
7.45967e-07
6.15131e-07
6.43775e-07
6.24447e-07
5.0896e-07
9.05277e-07
8.13707e-07
6.97867e-07
6.81727e-07
8.12247e-07
9.4189e-07
9.70633e-07
9.01884e-07
7.43534e-07
7.74705e-07
7.51917e-07
6.18181e-07
1.06656e-06
9.65403e-07
8.34414e-07
8.19577e-07
9.72533e-07
1.11673e-06
1.14945e-06
1.07539e-06
8.90325e-07
9.23744e-07
8.97874e-07
7.4654e-07
1.2399e-06
1.13176e-06
9.88279e-07
9.75637e-07
1.14985e-06
1.30492e-06
1.33964e-06
1.26102e-06
1.05302e-06
1.08793e-06
1.06003e-06
8.93708e-07
1.42053e-06
1.30873e-06
1.15689e-06
1.14727e-06
1.33955e-06
1.50099e-06
1.53488e-06
1.45165e-06
1.22734e-06
1.2625e-06
1.2344e-06
1.05771e-06
1.60376e-06
1.49141e-06
1.33628e-06
1.33024e-06
1.53554e-06
1.699e-06
1.72819e-06
1.64018e-06
1.40764e-06
1.44171e-06
1.41582e-06
1.23491e-06
1.78462e-06
1.67473e-06
1.52143e-06
1.51908e-06
1.73104e-06
1.8932e-06
1.91351e-06
1.81997e-06
1.58786e-06
1.61972e-06
1.59878e-06
1.42032e-06
1.84642e-06
1.85413e-06
1.70687e-06
1.70771e-06
1.91947e-06
2.07442e-06
2.0856e-06
1.83454e-06
1.70245e-06
1.79046e-06
1.77826e-06
1.60834e-06
1.80728e-06
2.02535e-06
1.88726e-06
1.89029e-06
2.09535e-06
2.23829e-06
2.23955e-06
1.6612e-06
1.51452e-06
1.61766e-06
1.94963e-06
1.79368e-06
1.81972e-06
2.18376e-06
2.05795e-06
2.06171e-06
2.25452e-06
2.38329e-06
2.37159e-06
1.54702e-06
1.37715e-06
1.47996e-06
2.06669e-06
1.97163e-06
1.8946e-06
2.14292e-06
2.21497e-06
2.21766e-06
2.39401e-06
2.5075e-06
2.30264e-06
1.49135e-06
1.30396e-06
1.4021e-06
1.9306e-06
2.13775e-06
2.03153e-06
2.11492e-06
2.35478e-06
2.35455e-06
2.51226e-06
2.61009e-06
2.21903e-06
1.47433e-06
1.27362e-06
1.37327e-06
1.83619e-06
2.24465e-06
2.23597e-06
2.15125e-06
2.46557e-06
2.38315e-06
2.6092e-06
2.69169e-06
2.18495e-06
1.48343e-06
1.27241e-06
1.38237e-06
1.80128e-06
2.17111e-06
2.50926e-06
2.24322e-06
2.41314e-06
2.32675e-06
2.68614e-06
2.75432e-06
2.18491e-06
1.51125e-06
1.29286e-06
1.42279e-06
1.81156e-06
2.12069e-06
2.77134e-06
2.3822e-06
2.36963e-06
2.28705e-06
2.74535e-06
2.8008e-06
2.20255e-06
1.55366e-06
1.3312e-06
1.49173e-06
1.85473e-06
2.10867e-06
2.82049e-06
2.5624e-06
2.347e-06
2.26431e-06
2.78963e-06
2.8341e-06
2.22895e-06
1.60913e-06
1.38598e-06
1.58912e-06
1.92271e-06
2.12702e-06
2.8599e-06
2.76698e-06
2.33888e-06
2.25139e-06
2.8219e-06
2.85703e-06
2.26136e-06
1.67857e-06
1.45759e-06
1.71699e-06
2.01043e-06
2.16733e-06
2.8917e-06
2.86363e-06
2.34198e-06
2.24598e-06
2.84489e-06
2.87208e-06
2.30114e-06
1.76534e-06
1.54825e-06
1.87897e-06
2.11518e-06
2.2227e-06
2.91689e-06
2.88691e-06
2.3554e-06
2.24812e-06
2.86099e-06
2.8813e-06
2.35166e-06
1.8756e-06
1.66219e-06
2.07972e-06
2.23618e-06
2.28793e-06
2.93676e-06
2.9042e-06
2.3796e-06
2.25886e-06
2.87221e-06
2.88624e-06
2.41631e-06
2.01872e-06
1.80622e-06
2.32455e-06
2.37417e-06
2.35971e-06
2.95283e-06
2.91712e-06
2.4161e-06
2.28003e-06
2.88013e-06
2.88805e-06
2.49682e-06
2.20842e-06
1.99087e-06
2.61702e-06
2.53138e-06
2.43669e-06
2.96582e-06
2.92687e-06
2.46685e-06
2.31424e-06
2.88599e-06
2.88764e-06
2.59267e-06
2.46533e-06
2.23242e-06
2.87997e-06
2.71194e-06
2.51944e-06
2.97636e-06
2.93449e-06
2.53331e-06
2.36461e-06
2.89066e-06
2.88552e-06
2.70174e-06
2.7903e-06
2.55206e-06
2.89987e-06
2.90915e-06
2.60987e-06
2.98486e-06
2.94078e-06
2.61678e-06
2.4344e-06
2.89473e-06
2.88211e-06
2.8189e-06
2.8909e-06
2.88752e-06
2.91626e-06
2.93941e-06
2.70938e-06
2.99165e-06
2.9464e-06
2.72191e-06
2.52707e-06
2.89848e-06
2.80745e-06
2.84688e-06
2.90405e-06
2.90455e-06
2.92937e-06
2.94161e-06
2.82053e-06
2.99696e-06
2.95183e-06
2.84555e-06
2.64804e-06
2.88263e-06
2.65873e-06
2.85371e-06
2.91519e-06
2.91846e-06
2.93936e-06
2.9405e-06
2.94047e-06
3.001e-06
2.95743e-06
2.89413e-06
2.80028e-06
2.86021e-06
2.5302e-06
2.86002e-06
2.92425e-06
2.92923e-06
2.94631e-06
2.93656e-06
2.93362e-06
3.00394e-06
2.96345e-06
2.90885e-06
2.91771e-06
2.8609e-06
2.42072e-06
2.86578e-06
2.93111e-06
2.93665e-06
2.95028e-06
2.93027e-06
2.92383e-06
3.00592e-06
2.97002e-06
2.92517e-06
2.93259e-06
2.88669e-06
2.33147e-06
2.87096e-06
2.93572e-06
2.94046e-06
2.95135e-06
2.9221e-06
2.91284e-06
2.91546e-06
2.97723e-06
2.94258e-06
2.94796e-06
2.9168e-06
2.26466e-06
2.87553e-06
2.93808e-06
2.94066e-06
2.94953e-06
2.91234e-06
2.90122e-06
2.84007e-06
2.96137e-06
2.9605e-06
2.96399e-06
2.92122e-06
2.22054e-06
2.87949e-06
2.93826e-06
2.93736e-06
2.94483e-06
2.9013e-06
2.88946e-06
2.80373e-06
2.85656e-06
2.9785e-06
2.98047e-06
2.92631e-06
2.19859e-06
2.88289e-06
2.93617e-06
2.93079e-06
2.93731e-06
2.88913e-06
2.87798e-06
2.80392e-06
2.79015e-06
2.99649e-06
2.99633e-06
2.93212e-06
2.19783e-06
2.84109e-06
2.93172e-06
2.92103e-06
2.92704e-06
2.87597e-06
2.8671e-06
2.83332e-06
2.75945e-06
3.0143e-06
3.01111e-06
2.93857e-06
2.21698e-06
2.7262e-06
2.92501e-06
2.9085e-06
2.91408e-06
2.86186e-06
2.857e-06
2.88262e-06
2.75729e-06
3.03121e-06
3.02434e-06
2.94553e-06
2.25423e-06
2.61038e-06
2.91627e-06
2.89367e-06
2.89799e-06
2.84673e-06
2.84767e-06
4.32429e-12
4.70955e-12
5.08517e-12
5.01479e-12
4.66777e-12
4.44944e-12
4.461e-12
4.43005e-12
4.37997e-12
4.55592e-12
4.70867e-12
4.64525e-12
4.14715e-12
4.52178e-12
4.87361e-12
4.79669e-12
4.47251e-12
4.27062e-12
4.27704e-12
4.24438e-12
4.2002e-12
4.36895e-12
4.51291e-12
4.44779e-12
5.62392e-12
6.21921e-12
6.52308e-12
6.23605e-12
5.97658e-12
5.85848e-12
5.78069e-12
5.67606e-12
5.68827e-12
5.9158e-12
6.0575e-12
5.88128e-12
1.63288e-11
1.85709e-11
1.83568e-11
1.66043e-11
1.68113e-11
1.74149e-11
1.66595e-11
1.6019e-11
1.64516e-11
1.70928e-11
1.7184e-11
1.61976e-11
5.69942e-11
6.52147e-11
6.27854e-11
5.56213e-11
5.77403e-11
6.12243e-11
5.7898e-11
5.52237e-11
5.72389e-11
5.9382e-11
5.91711e-11
5.50763e-11
1.65401e-10
1.88562e-10
1.79328e-10
1.58128e-10
1.66012e-10
1.77719e-10
1.675e-10
1.59393e-10
1.65681e-10
1.7155e-10
1.70093e-10
1.57551e-10
3.92849e-10
4.44589e-10
4.19216e-10
3.69719e-10
3.91228e-10
4.21255e-10
3.96607e-10
3.77194e-10
3.9259e-10
4.05514e-10
4.0037e-10
3.6984e-10
7.91092e-10
8.87053e-10
8.30669e-10
7.3427e-10
7.82113e-10
8.45629e-10
7.96078e-10
7.57273e-10
7.88785e-10
8.12545e-10
7.98999e-10
7.36704e-10
1.39531e-09
1.54884e-09
1.44263e-09
1.27989e-09
1.37026e-09
1.48568e-09
1.39946e-09
1.33217e-09
1.3881e-09
1.426e-09
1.39701e-09
1.28666e-09
2.21316e-09
2.43094e-09
2.25564e-09
2.01052e-09
2.16052e-09
2.34591e-09
2.2125e-09
2.1083e-09
2.19651e-09
2.25084e-09
2.19782e-09
2.02283e-09
3.22398e-09
3.50379e-09
3.24375e-09
2.90701e-09
3.13111e-09
3.40034e-09
3.21298e-09
3.06559e-09
3.19152e-09
3.26361e-09
3.17799e-09
2.92398e-09
4.35415e-09
4.66889e-09
4.35015e-09
3.93328e-09
4.2223e-09
4.54235e-09
4.31447e-09
4.13701e-09
4.29832e-09
4.38729e-09
4.27113e-09
3.95154e-09
5.38201e-09
5.72325e-09
5.33146e-09
4.86171e-09
5.20102e-09
5.58926e-09
5.32306e-09
5.10982e-09
5.29791e-09
5.4039e-09
5.25519e-09
4.86547e-09
6.45913e-09
6.81021e-09
6.34209e-09
5.81257e-09
6.22007e-09
6.67902e-09
6.37887e-09
6.13004e-09
6.34061e-09
6.46243e-09
6.27882e-09
5.81146e-09
7.57148e-09
7.91306e-09
7.36725e-09
6.78722e-09
7.2662e-09
7.79716e-09
7.46917e-09
7.18579e-09
7.41278e-09
7.54872e-09
7.32907e-09
6.78256e-09
8.70705e-09
9.01795e-09
8.39515e-09
7.77594e-09
8.32863e-09
8.93164e-09
8.58367e-09
8.26749e-09
8.50286e-09
8.65111e-09
8.39592e-09
7.77033e-09
9.85692e-09
1.01149e-08
9.4179e-09
8.77218e-09
9.39997e-09
1.00742e-08
9.71573e-09
9.36899e-09
9.60254e-09
9.76144e-09
9.47316e-09
8.77015e-09
1.10158e-08
1.11989e-08
1.04319e-08
9.77293e-09
1.04768e-08
1.12212e-08
1.08631e-08
1.04882e-08
1.07075e-08
1.08755e-08
1.05588e-08
9.78166e-09
1.21825e-08
1.22701e-08
1.14385e-08
1.07793e-08
1.15606e-08
1.23744e-08
1.20283e-08
1.16276e-08
1.18179e-08
1.19935e-08
1.16553e-08
1.08091e-08
1.33608e-08
1.33341e-08
1.24442e-08
1.17973e-08
1.2658e-08
1.35423e-08
1.32199e-08
1.2795e-08
1.29396e-08
1.31212e-08
1.27703e-08
1.18617e-08
1.45603e-08
1.44027e-08
1.34612e-08
1.28386e-08
1.3782e-08
1.474e-08
1.44522e-08
1.4004e-08
1.40849e-08
1.42704e-08
1.39167e-08
1.29537e-08
1.57962e-08
1.54932e-08
1.45078e-08
1.39207e-08
1.49518e-08
1.59892e-08
1.57461e-08
1.52744e-08
1.52721e-08
1.54589e-08
1.51138e-08
1.41043e-08
1.70883e-08
1.66285e-08
1.56082e-08
1.50669e-08
1.61926e-08
1.73167e-08
1.71275e-08
1.66308e-08
1.65243e-08
1.67099e-08
1.6386e-08
1.53373e-08
1.84608e-08
1.7837e-08
1.6793e-08
1.63065e-08
1.7535e-08
1.87548e-08
1.86275e-08
1.81022e-08
1.78681e-08
1.80511e-08
1.77629e-08
1.66806e-08
1.99437e-08
1.91553e-08
1.8101e-08
1.76755e-08
1.90167e-08
2.03437e-08
2.02836e-08
1.97228e-08
1.93353e-08
1.95169e-08
1.92807e-08
1.81666e-08
2.15783e-08
2.06325e-08
1.9582e-08
1.92196e-08
2.0687e-08
2.21377e-08
2.21465e-08
2.15369e-08
2.09661e-08
2.11524e-08
2.09858e-08
1.98337e-08
2.34253e-08
2.23368e-08
2.13024e-08
2.09994e-08
2.26138e-08
2.42137e-08
2.42883e-08
2.3607e-08
2.2816e-08
2.30199e-08
2.29418e-08
2.17316e-08
2.55761e-08
2.4364e-08
2.33524e-08
2.30978e-08
2.48934e-08
2.66829e-08
2.68153e-08
2.6025e-08
2.49656e-08
2.52086e-08
2.5238e-08
2.39282e-08
2.81656e-08
2.68478e-08
2.58561e-08
2.56309e-08
2.76629e-08
2.97034e-08
2.98827e-08
2.89265e-08
2.7532e-08
2.78455e-08
2.80015e-08
2.65199e-08
3.13881e-08
2.99741e-08
2.89837e-08
2.87623e-08
3.11162e-08
3.34973e-08
3.37126e-08
3.25082e-08
3.06837e-08
3.11105e-08
3.1412e-08
2.9646e-08
3.55184e-08
3.39995e-08
3.29703e-08
3.27215e-08
3.55246e-08
3.83732e-08
3.86189e-08
3.70509e-08
3.46599e-08
3.5255e-08
3.5721e-08
3.35075e-08
4.09422e-08
3.92765e-08
3.81406e-08
3.78315e-08
4.12666e-08
4.47586e-08
4.5043e-08
4.29504e-08
3.9797e-08
4.06289e-08
4.12795e-08
3.83913e-08
4.80461e-08
4.614e-08
4.47905e-08
4.43856e-08
4.87204e-08
5.31095e-08
5.34642e-08
5.06032e-08
4.63894e-08
4.75604e-08
4.84232e-08
4.45256e-08
5.74712e-08
5.51425e-08
5.34169e-08
5.28852e-08
5.85085e-08
6.41632e-08
6.46691e-08
6.06693e-08
5.49421e-08
5.66003e-08
5.77135e-08
5.23218e-08
7.02348e-08
6.71507e-08
6.4801e-08
6.4125e-08
7.16106e-08
7.90787e-08
7.99223e-08
7.42025e-08
6.62558e-08
6.86205e-08
7.00365e-08
6.24326e-08
8.79475e-08
8.34851e-08
8.01334e-08
7.93618e-08
8.95798e-08
9.96791e-08
1.01262e-07
9.28966e-08
8.15809e-08
8.50091e-08
8.67943e-08
7.58742e-08
1.11566e-07
1.03188e-07
9.89368e-08
1.00524e-07
1.14809e-07
1.27431e-07
1.29724e-07
1.18068e-07
1.01122e-07
1.07721e-07
1.1015e-07
9.42201e-08
1.3809e-07
1.26564e-07
1.20901e-07
1.23746e-07
1.43582e-07
1.59013e-07
1.61727e-07
1.46336e-07
1.23443e-07
1.32266e-07
1.36823e-07
1.17115e-07
1.73221e-07
1.57269e-07
1.49622e-07
1.53889e-07
1.81027e-07
2.01063e-07
2.0468e-07
1.84001e-07
1.52942e-07
1.64653e-07
1.70419e-07
1.43614e-07
2.19826e-07
1.97809e-07
1.87386e-07
1.93863e-07
2.31099e-07
2.5712e-07
2.6224e-07
2.34384e-07
1.92278e-07
2.07661e-07
2.14835e-07
1.78593e-07
2.81248e-07
2.51418e-07
2.37117e-07
2.46928e-07
2.97584e-07
3.30142e-07
3.37077e-07
3.01057e-07
2.44855e-07
2.64795e-07
2.7358e-07
2.24956e-07
3.59117e-07
3.19837e-07
3.00924e-07
3.15403e-07
3.82668e-07
4.22904e-07
4.32144e-07
3.86053e-07
3.13154e-07
3.37888e-07
3.48227e-07
2.86055e-07
4.5605e-07
4.05354e-07
3.80606e-07
4.01521e-07
4.89776e-07
5.38766e-07
5.50553e-07
4.92462e-07
3.99335e-07
4.29311e-07
4.41138e-07
3.63299e-07
5.7395e-07
5.10304e-07
4.78721e-07
5.08195e-07
6.21568e-07
6.79976e-07
6.93983e-07
6.2219e-07
5.05926e-07
5.41152e-07
5.54412e-07
4.59341e-07
7.13221e-07
6.36051e-07
5.97211e-07
6.37495e-07
7.78894e-07
8.46724e-07
8.6169e-07
7.74845e-07
6.33992e-07
6.73908e-07
6.88767e-07
5.76452e-07
8.72226e-07
7.82481e-07
7.36902e-07
7.89988e-07
9.59998e-07
1.03639e-06
1.04983e-06
9.46975e-07
7.82325e-07
8.2584e-07
8.43028e-07
7.15636e-07
1.04717e-06
9.47686e-07
8.97057e-07
9.64187e-07
1.16024e-06
1.24337e-06
1.25151e-06
1.13221e-06
9.47245e-07
9.9276e-07
1.01394e-06
8.76042e-07
1.23243e-06
1.12794e-06
1.07513e-06
1.15633e-06
1.37255e-06
1.4596e-06
1.45784e-06
1.32254e-06
1.12316e-06
1.16837e-06
1.19636e-06
1.05466e-06
1.41477e-06
1.31801e-06
1.26678e-06
1.36063e-06
1.58851e-06
1.6757e-06
1.65973e-06
1.51001e-06
1.30321e-06
1.34493e-06
1.3839e-06
1.24646e-06
1.35242e-06
1.51174e-06
1.46629e-06
1.56989e-06
1.79963e-06
1.88235e-06
1.81659e-06
1.46145e-06
1.43171e-06
1.38933e-06
1.5696e-06
1.44494e-06
1.30749e-06
1.70268e-06
1.66709e-06
1.77641e-06
1.99838e-06
2.07189e-06
1.75081e-06
1.3515e-06
1.29648e-06
1.2661e-06
1.71109e-06
1.64278e-06
1.30002e-06
1.71423e-06
1.86252e-06
1.9725e-06
2.17889e-06
2.24441e-06
1.70138e-06
1.28327e-06
1.18207e-06
1.16952e-06
1.63053e-06
1.83258e-06
1.32848e-06
1.65098e-06
2.04659e-06
2.05039e-06
2.16611e-06
2.24761e-06
1.68549e-06
1.25737e-06
1.11383e-06
1.1147e-06
1.55937e-06
1.81966e-06
1.39269e-06
1.62343e-06
2.18172e-06
2.01432e-06
2.15025e-06
2.23758e-06
1.70004e-06
1.26405e-06
1.08187e-06
1.09493e-06
1.52436e-06
1.77488e-06
1.49422e-06
1.63419e-06
2.15663e-06
1.98309e-06
2.17362e-06
2.26096e-06
1.74528e-06
1.29415e-06
1.0752e-06
1.10288e-06
1.52741e-06
1.74907e-06
1.63739e-06
1.67971e-06
2.13323e-06
1.97014e-06
2.23393e-06
2.32062e-06
1.81811e-06
1.34182e-06
1.08724e-06
1.13398e-06
1.5638e-06
1.7483e-06
1.8298e-06
1.75633e-06
2.1199e-06
1.9746e-06
2.32459e-06
2.41507e-06
1.91164e-06
1.40394e-06
1.11476e-06
1.18684e-06
1.6257e-06
1.77598e-06
2.08318e-06
1.86221e-06
2.10843e-06
1.99295e-06
2.4375e-06
2.54215e-06
2.02013e-06
1.4794e-06
1.15698e-06
1.26276e-06
1.70662e-06
1.83141e-06
2.41547e-06
1.99808e-06
2.09383e-06
2.01852e-06
2.56244e-06
2.6969e-06
2.14031e-06
1.5687e-06
1.21489e-06
1.36538e-06
1.80217e-06
1.91074e-06
2.80367e-06
2.16551e-06
2.07579e-06
2.0445e-06
2.68832e-06
2.86066e-06
2.2706e-06
1.67371e-06
1.29107e-06
1.50051e-06
1.90997e-06
2.00998e-06
2.89691e-06
2.3637e-06
2.05646e-06
2.06702e-06
2.80696e-06
2.93538e-06
2.41045e-06
1.79769e-06
1.38963e-06
1.67571e-06
2.0293e-06
2.12501e-06
2.92439e-06
2.59065e-06
2.03893e-06
2.08569e-06
2.90885e-06
2.94608e-06
2.56065e-06
1.94554e-06
1.51632e-06
1.89945e-06
2.16066e-06
2.25092e-06
2.94652e-06
2.82256e-06
2.02672e-06
2.10276e-06
2.93047e-06
2.95296e-06
2.72568e-06
2.12387e-06
1.67897e-06
2.17823e-06
2.30532e-06
2.38208e-06
2.9645e-06
2.92634e-06
2.02341e-06
2.12204e-06
2.93528e-06
2.95636e-06
2.89312e-06
2.34093e-06
1.88812e-06
2.50887e-06
2.46456e-06
2.51269e-06
2.97871e-06
2.93411e-06
2.03288e-06
2.14782e-06
2.93853e-06
2.95716e-06
2.90126e-06
2.60827e-06
2.15581e-06
2.82778e-06
2.63887e-06
2.63695e-06
2.98984e-06
2.93936e-06
2.05898e-06
2.18457e-06
2.94097e-06
2.95597e-06
2.90815e-06
2.89512e-06
2.48987e-06
2.85422e-06
2.81933e-06
2.7491e-06
2.99843e-06
2.94318e-06
2.10592e-06
2.23672e-06
2.94316e-06
2.95313e-06
2.91406e-06
2.91203e-06
2.85985e-06
2.87679e-06
2.91956e-06
2.84255e-06
3.00493e-06
2.94646e-06
2.17831e-06
2.30845e-06
2.94542e-06
2.94884e-06
2.91913e-06
2.92689e-06
2.89449e-06
2.89573e-06
2.92181e-06
2.91018e-06
3.00967e-06
2.94991e-06
2.27964e-06
2.40411e-06
2.94798e-06
2.94313e-06
2.9234e-06
2.93975e-06
2.9113e-06
2.91116e-06
2.92088e-06
2.94008e-06
3.01293e-06
2.954e-06
2.41316e-06
2.52963e-06
2.95093e-06
2.93615e-06
2.92691e-06
2.95037e-06
2.9252e-06
2.9232e-06
2.91723e-06
2.92973e-06
3.01494e-06
2.95906e-06
2.58777e-06
2.6975e-06
2.95428e-06
2.83075e-06
2.92921e-06
2.95852e-06
2.93628e-06
2.93198e-06
2.91123e-06
2.91686e-06
3.01588e-06
2.9652e-06
2.80059e-06
2.90239e-06
2.95796e-06
2.69002e-06
2.93068e-06
2.96408e-06
2.94466e-06
2.93761e-06
2.90326e-06
2.87053e-06
2.89893e-06
2.97246e-06
2.91609e-06
2.96157e-06
2.96185e-06
2.57065e-06
2.93125e-06
2.96705e-06
2.95045e-06
2.94038e-06
2.89361e-06
2.81599e-06
2.73572e-06
2.98074e-06
2.93632e-06
2.97791e-06
2.9659e-06
2.47154e-06
2.93094e-06
2.96749e-06
2.95341e-06
2.93986e-06
2.88266e-06
2.76141e-06
2.62551e-06
2.9899e-06
2.95727e-06
2.99335e-06
2.97059e-06
2.39395e-06
2.92982e-06
2.96558e-06
2.95316e-06
2.93627e-06
2.87071e-06
2.71155e-06
2.5649e-06
2.99973e-06
2.97817e-06
3.00733e-06
2.97598e-06
2.33711e-06
2.92807e-06
2.96149e-06
2.94944e-06
2.93057e-06
2.85801e-06
2.6681e-06
2.5453e-06
3.01001e-06
2.99831e-06
3.02026e-06
2.98038e-06
2.29916e-06
2.92586e-06
2.95523e-06
2.94196e-06
2.92255e-06
2.84471e-06
2.63106e-06
2.5591e-06
3.02039e-06
3.01721e-06
3.03201e-06
2.98368e-06
2.27801e-06
2.92343e-06
2.94698e-06
2.88394e-06
2.91209e-06
2.83065e-06
2.5986e-06
2.59707e-06
3.02522e-06
3.03452e-06
3.04241e-06
2.98594e-06
2.27146e-06
2.83023e-06
2.93691e-06
2.60431e-06
2.83104e-06
2.81474e-06
2.5666e-06
4.69455e-12
5.09544e-12
5.40769e-12
5.28685e-12
5.00531e-12
4.86524e-12
4.86555e-12
4.80035e-12
4.74141e-12
4.92084e-12
5.06255e-12
4.96391e-12
4.5764e-12
4.96893e-12
5.26616e-12
5.14339e-12
4.88024e-12
4.75803e-12
4.75713e-12
4.68782e-12
4.62906e-12
4.80092e-12
4.93262e-12
4.82683e-12
7.51301e-12
8.17325e-12
8.5024e-12
8.20656e-12
8.00515e-12
8.0844e-12
8.05748e-12
7.83461e-12
7.71612e-12
7.94153e-12
8.03301e-12
7.67451e-12
2.92039e-11
3.17327e-11
3.23299e-11
3.08489e-11
3.09909e-11
3.2372e-11
3.21735e-11
3.0908e-11
3.03643e-11
3.10159e-11
3.08945e-11
2.88141e-11
1.11638e-10
1.20768e-10
1.21991e-10
1.16152e-10
1.17898e-10
1.24349e-10
1.23514e-10
1.18344e-10
1.16194e-10
1.18367e-10
1.17362e-10
1.08764e-10
3.32077e-10
3.57095e-10
3.58752e-10
3.41835e-10
3.48896e-10
3.69354e-10
3.66886e-10
3.51495e-10
3.45128e-10
3.50924e-10
3.47206e-10
3.21275e-10
7.95089e-10
8.49064e-10
8.49195e-10
8.10744e-10
8.30983e-10
8.81467e-10
8.75875e-10
8.39777e-10
8.24841e-10
8.37055e-10
8.26839e-10
7.65061e-10
1.60524e-09
1.7016e-09
1.69595e-09
1.6237e-09
1.6694e-09
1.77228e-09
1.76216e-09
1.69169e-09
1.66234e-09
1.68362e-09
1.66086e-09
1.53808e-09
2.83391e-09
2.98183e-09
2.96493e-09
2.84834e-09
2.93438e-09
3.11406e-09
3.09928e-09
2.98017e-09
2.92967e-09
2.96195e-09
2.91897e-09
2.70674e-09
4.49751e-09
4.69973e-09
4.66823e-09
4.50169e-09
4.64032e-09
4.91685e-09
4.89988e-09
4.72022e-09
4.64142e-09
4.68649e-09
4.61612e-09
4.28785e-09
6.55682e-09
6.80976e-09
6.76522e-09
6.54961e-09
6.74596e-09
7.12942e-09
7.11613e-09
6.86865e-09
6.75424e-09
6.81508e-09
6.713e-09
6.2478e-09
8.86313e-09
9.16922e-09
9.17686e-09
8.91899e-09
9.13042e-09
9.52707e-09
9.5557e-09
9.28294e-09
9.13244e-09
9.21355e-09
9.10172e-09
8.51536e-09
1.0982e-08
1.13306e-08
1.13713e-08
1.11202e-08
1.12902e-08
1.17545e-08
1.18027e-08
1.14814e-08
1.12949e-08
1.14006e-08
1.12733e-08
1.06158e-08
1.3216e-08
1.36009e-08
1.36501e-08
1.33721e-08
1.35569e-08
1.4088e-08
1.41578e-08
1.37887e-08
1.3566e-08
1.37005e-08
1.356e-08
1.27825e-08
1.55424e-08
1.59565e-08
1.60092e-08
1.5706e-08
1.59057e-08
1.6501e-08
1.65942e-08
1.61789e-08
1.59199e-08
1.60889e-08
1.59379e-08
1.50329e-08
1.79434e-08
1.83791e-08
1.84289e-08
1.81013e-08
1.83168e-08
1.8973e-08
1.90915e-08
1.86315e-08
1.83357e-08
1.85463e-08
1.83884e-08
1.73471e-08
2.04082e-08
2.08587e-08
2.08967e-08
2.05432e-08
2.07777e-08
2.14924e-08
2.16379e-08
2.11346e-08
2.08001e-08
2.10606e-08
2.08999e-08
1.97116e-08
2.2934e-08
2.33938e-08
2.3408e-08
2.30242e-08
2.32847e-08
2.40579e-08
2.42315e-08
2.36855e-08
2.33082e-08
2.36273e-08
2.34688e-08
2.21208e-08
2.55268e-08
2.5992e-08
2.59667e-08
2.55449e-08
2.58441e-08
2.66797e-08
2.68808e-08
2.62914e-08
2.58649e-08
2.6251e-08
2.60997e-08
2.4577e-08
2.82025e-08
2.86698e-08
2.85852e-08
2.81154e-08
2.8473e-08
2.93797e-08
2.96057e-08
2.89701e-08
2.84858e-08
2.8946e-08
2.88068e-08
2.70906e-08
3.09878e-08
3.14525e-08
3.1285e-08
3.0756e-08
3.11989e-08
3.2191e-08
3.24372e-08
3.17506e-08
3.11965e-08
3.17365e-08
3.16144e-08
2.96812e-08
3.39183e-08
3.43728e-08
3.40955e-08
3.34969e-08
3.40584e-08
3.51552e-08
3.54155e-08
3.46708e-08
3.40309e-08
3.46553e-08
3.45551e-08
3.23772e-08
3.70358e-08
3.74691e-08
3.70525e-08
3.6375e-08
3.70952e-08
3.83209e-08
3.85871e-08
3.77736e-08
3.70274e-08
3.77416e-08
3.76677e-08
3.52125e-08
4.03865e-08
4.0785e-08
4.01972e-08
3.94322e-08
4.03589e-08
4.17432e-08
4.20043e-08
4.11058e-08
4.02263e-08
4.10386e-08
4.09974e-08
3.8225e-08
4.40236e-08
4.43712e-08
4.35779e-08
4.2717e-08
4.39081e-08
4.54896e-08
4.57302e-08
4.47204e-08
4.36711e-08
4.4596e-08
4.45978e-08
4.14568e-08
4.80157e-08
4.82909e-08
4.72559e-08
4.62892e-08
4.78182e-08
4.96501e-08
4.98491e-08
4.86853e-08
4.74141e-08
4.84767e-08
4.85387e-08
4.49585e-08
5.24591e-08
5.2628e-08
5.13117e-08
5.0229e-08
5.21928e-08
5.43496e-08
5.44813e-08
5.30955e-08
5.15261e-08
5.2767e-08
5.29172e-08
4.8798e-08
5.74914e-08
5.74965e-08
5.58555e-08
5.46493e-08
5.71763e-08
5.97606e-08
5.97985e-08
5.80882e-08
5.61083e-08
5.75897e-08
5.78722e-08
5.30743e-08
6.3305e-08
6.30502e-08
6.10369e-08
5.97086e-08
6.29664e-08
6.61137e-08
6.60379e-08
6.38559e-08
6.13045e-08
6.31163e-08
6.35978e-08
5.79322e-08
7.0159e-08
6.94923e-08
6.70562e-08
6.56252e-08
6.9824e-08
7.37039e-08
7.35122e-08
7.06595e-08
6.73125e-08
6.958e-08
7.03575e-08
6.35787e-08
7.83836e-08
7.70873e-08
7.41762e-08
7.26896e-08
7.80769e-08
8.28918e-08
8.2607e-08
7.88286e-08
7.43949e-08
7.72818e-08
7.84917e-08
7.03004e-08
8.83845e-08
8.61708e-08
8.27293e-08
8.12667e-08
8.8131e-08
9.41418e-08
9.38236e-08
8.87638e-08
8.2869e-08
8.65909e-08
8.84247e-08
7.8468e-08
1.00762e-07
9.72092e-08
9.31612e-08
9.18514e-08
1.00591e-07
1.0818e-07
1.07951e-07
1.01056e-07
9.31515e-08
9.80383e-08
1.0078e-07
8.85438e-08
1.16484e-07
1.10953e-07
1.06185e-07
1.05242e-07
1.16415e-07
1.26137e-07
1.26247e-07
1.16649e-07
1.05919e-07
1.12475e-07
1.16547e-07
1.01271e-07
1.3708e-07
1.28564e-07
1.229e-07
1.22693e-07
1.37089e-07
1.49756e-07
1.50725e-07
1.37028e-07
1.2223e-07
1.31236e-07
1.37263e-07
1.17804e-07
1.65047e-07
1.51821e-07
1.44987e-07
1.46198e-07
1.6495e-07
1.81809e-07
1.84697e-07
1.64614e-07
1.43789e-07
1.56468e-07
1.6537e-07
1.39965e-07
2.04267e-07
1.81099e-07
1.73375e-07
1.78808e-07
2.03703e-07
2.2655e-07
2.29504e-07
2.03113e-07
1.73199e-07
1.91527e-07
2.04551e-07
1.70509e-07
2.47335e-07
2.11001e-07
2.01698e-07
2.15673e-07
2.55113e-07
2.77892e-07
2.74999e-07
2.42121e-07
2.03888e-07
2.29945e-07
2.4648e-07
2.04223e-07
2.98067e-07
2.50017e-07
2.38856e-07
2.5905e-07
3.09382e-07
3.37143e-07
3.34599e-07
2.91176e-07
2.40926e-07
2.74891e-07
2.97237e-07
2.44327e-07
3.63523e-07
3.0136e-07
2.88069e-07
3.17301e-07
3.79639e-07
4.11786e-07
4.09238e-07
3.54485e-07
2.89811e-07
3.33998e-07
3.63109e-07
2.98053e-07
4.44107e-07
3.65622e-07
3.50833e-07
3.91586e-07
4.6697e-07
5.0303e-07
5.00158e-07
4.32362e-07
3.51766e-07
4.07299e-07
4.44618e-07
3.67209e-07
5.41906e-07
4.44342e-07
4.2864e-07
4.84563e-07
5.74148e-07
6.12811e-07
6.08951e-07
5.26732e-07
4.2776e-07
4.96577e-07
5.44006e-07
4.53511e-07
6.58332e-07
5.39844e-07
5.24119e-07
5.99289e-07
7.0328e-07
7.42091e-07
7.36104e-07
6.38904e-07
5.19831e-07
6.03396e-07
6.63007e-07
5.59695e-07
7.93622e-07
6.54046e-07
6.39529e-07
7.37874e-07
8.55119e-07
8.90454e-07
8.80738e-07
7.69121e-07
6.29533e-07
7.28256e-07
8.02122e-07
6.87819e-07
9.46533e-07
7.87998e-07
7.76203e-07
9.00698e-07
1.02849e-06
1.05589e-06
1.04062e-06
9.16351e-07
7.57499e-07
8.70158e-07
9.60153e-07
8.38539e-07
1.11429e-06
9.41429e-07
9.34014e-07
1.08577e-06
1.21999e-06
1.23487e-06
1.21246e-06
1.07829e-06
9.03022e-07
1.02639e-06
1.13404e-06
1.01052e-06
1.29284e-06
1.11239e-06
1.11095e-06
1.28852e-06
1.42408e-06