
400
(
1.6441e-08
3.27467e-08
2.73469e-08
1.28556e-08
1.43453e-07
1.34479e-07
5.62001e-07
5.44334e-07
1.6179e-06
1.58297e-06
3.65231e-06
3.60259e-06
6.9311e-06
6.89597e-06
1.15808e-05
1.16284e-05
1.75821e-05
1.78169e-05
2.48072e-05
2.53512e-05
3.30729e-05
3.40387e-05
4.21866e-05
4.36535e-05
5.19846e-05
5.39836e-05
6.23577e-05
6.48679e-05
7.32375e-05
7.61891e-05
8.45807e-05
8.78656e-05
9.63638e-05
9.98527e-05
0.000108569
0.000112121
0.000121179
0.000124651
0.000134175
0.000137427
0.000147531
0.000150431
0.000161217
0.000163647
0.000175198
0.000177058
0.000189442
0.000190649
0.000203932
0.000204405
0.000218647
0.000218305
0.00023356
0.000232328
0.000248636
0.000246454
0.000263846
0.000260684
0.000279181
0.000275045
0.000294636
0.000289602
0.000310203
0.000304425
0.000325866
0.000319534
0.000341607
0.000334849
0.000357403
0.000350223
0.00037323
0.00036553
0.000389064
0.000380687
0.000404883
0.000395624
0.000420673
0.000410277
0.000436421
0.000424696
0.000452106
0.000439291
0.00046768
0.00045471
0.000483044
0.000471069
0.000498019
0.000487727
0.000512422
0.000504011
0.000526113
0.000519621
0.000539193
0.000534528
0.000553891
0.000550668
0.000573585
0.000571174
0.000596028
0.000593744
0.000617292
0.000614498
0.000637689
0.000633764
0.00065798
0.000652323
0.000677881
0.000670302
0.000696971
0.000688651
0.000715145
0.000707851
0.000732299
0.000726443
0.000748361
0.0007433
0.000763179
0.000758294
0.000776589
0.000771365
0.00078858
0.000782412
0.000799304
0.000791362
0.000808992
0.000798185
0.00081747
0.000802613
0.000824303
0.000804227
0.00082907
0.00080274
0.00083168
0.000798259
0.00083257
0.0007914
0.000831883
0.000782532
0.000830385
0.000773036
0.000832153
0.000768141
0.000835111
0.000767183
0.000833723
0.000766015
0.000833966
0.000771451
0.000843987
0.000791492
0.000855657
0.00081706
0.000860876
0.000838827
0.000861345
0.000857526
0.000856837
0.000872394
0.000847646
0.000883252
2.2115e-08
9.22927e-09
1.26193e-07
5.28729e-07
1.55442e-06
3.56555e-06
6.86466e-06
1.16123e-05
1.78011e-05
2.52866e-05
3.38445e-05
4.32297e-05
5.3218e-05
6.36335e-05
7.43622e-05
8.53418e-05
9.65457e-05
0.000107969
0.000119614
0.00013149
0.000143616
0.000156019
0.000168746
0.00018185
0.000195358
0.00020923
0.00022335
0.000237584
0.000251838
0.000266079
0.000280386
0.000294953
0.000310022
0.000325634
0.000341398
0.000356844
0.00037187
0.000386676
0.000401828
0.000417889
0.00043447
0.000451169
0.000468119
0.000485248
0.000503932
0.000524678
0.000545527
0.00056598
0.000586381
0.000606417
0.00062596
0.000644922
0.000662896
0.000679602
0.000695881
0.000712029
0.000726543
0.000738286
0.000747162
0.000753012
0.000755078
0.000759538
0.000771366
0.000783938
0.00079343
0.000800828
0.000805987
0.000809031
0.000810471
0.000810704
0.000810092
0.000809559
0.000810333
0.000813408
0.000818826
0.000825053
0.000829956
0.000831836
0.000829619
0.000821406
2.75148e-08
1.28146e-08
1.35167e-07
5.46396e-07
1.58935e-06
3.61527e-06
6.89979e-06
1.15647e-05
1.75664e-05
2.47426e-05
3.28787e-05
4.17629e-05
5.1219e-05
6.11233e-05
7.14106e-05
8.20569e-05
9.30568e-05
0.000104416
0.000116142
0.000128239
0.000140716
0.000153589
0.000166885
0.000180643
0.000194885
0.000209572
0.000224582
0.000239766
0.000255001
0.000270215
0.00028542
0.000300731
0.000316355
0.000332393
0.000348578
0.000364544
0.000380246
0.000395935
0.000412224
0.000429613
0.000447286
0.000464139
0.000480094
0.00049554
0.000512343
0.00053117
0.000550192
0.000569204
0.000588793
0.000608702
0.000628754
0.000648846
0.000668552
0.000687181
0.000704201
0.000719323
0.000732399
0.000743347
0.000752047
0.000758236
0.000761246
0.000767481
0.000782173
0.000798795
0.000813506
0.000827158
0.000839408
0.000850201
0.000859822
0.000868052
0.000874104
0.000877487
0.00087804
0.000875924
0.00087132
0.00086365
0.000852005
0.000835655
0.000814062
0.0007858
3.27467e-08
1.6441e-08
1.43453e-07
5.62001e-07
1.6179e-06
3.65231e-06
6.9311e-06
1.15808e-05
1.75821e-05
2.48072e-05
3.30729e-05
4.21866e-05
5.19846e-05
6.23577e-05
7.32375e-05
8.45807e-05
9.63638e-05
0.000108569
0.000121179
0.000134175
0.000147531
0.000161217
0.000175198
0.000189442
0.000203932
0.000218647
0.00023356
0.000248636
0.000263846
0.000279181
0.000294636
0.000310203
0.000325866
0.000341607
0.000357403
0.00037323
0.000389064
0.000404883
0.000420673
0.000436421
0.000452106
0.00046768
0.000483044
0.000498019
0.000512422
0.000526113
0.000539193
0.000553891
0.000573585
0.000596028
0.000617292
0.000637689
0.00065798
0.000677881
0.000696971
0.000715145
0.000732299
0.000748361
0.000763179
0.000776589
0.00078858
0.000799304
0.000808992
0.00081747
0.000824303
0.00082907
0.00083168
0.00083257
0.000831883
0.000830385
0.000832153
0.000835111
0.000833723
0.000833966
0.000843987
0.000855657
0.000860876
0.000861345
0.000856837
0.000847646
)
