
400
(
1.29605e-24
1.67481e-08
1.35565e-08
0
9.30392e-08
8.67779e-08
6.40885e-07
6.15732e-07
2.85873e-06
2.77081e-06
9.10484e-06
8.88656e-06
2.27618e-05
2.23852e-05
4.75454e-05
4.71586e-05
8.6579e-05
8.66657e-05
0.000141676
0.000143147
0.000213106
0.00021725
0.000299815
0.000308129
0.000400003
0.000413959
0.00051048
0.000531308
0.000627882
0.000657874
0.000751399
0.000790547
0.000881816
0.000926938
0.00101933
0.00106846
0.00116347
0.00121536
0.00131368
0.00136686
0.00146925
0.00152211
0.00162944
0.00168033
0.00179353
0.00184089
0.00196098
0.00200357
0.00213081
0.00216848
0.00230249
0.0023352
0.0024756
0.0025017
0.0026487
0.00266407
0.00282025
0.00281847
0.00298715
0.002965
0.00315036
0.00311098
0.00331288
0.00326869
0.00347419
0.00344763
0.00363395
0.00364415
0.00379204
0.00382545
0.00394836
0.0039841
0.00410286
0.00413936
0.00425529
0.00426086
0.00440493
0.00431885
0.00455057
0.00434267
0.00469125
0.00439206
0.00482744
0.00451595
0.00496202
0.0047464
0.00509967
0.00498623
0.00512626
0.00503663
0.00485322
0.00478148
0.0044804
0.00445745
0.00441472
0.00445239
0.00485223
0.00493399
0.0055974
0.00568979
0.00604954
0.00613053
0.00618264
0.00613855
0.00631484
0.00601975
0.00644248
0.00595172
0.00656266
0.00605174
0.00667629
0.00640824
0.00678391
0.00674804
0.00688598
0.00687777
0.00698211
0.0069658
0.00707222
0.00704348
0.0071581
0.00707735
0.00724303
0.00704683
0.0073308
0.0070059
0.00742134
0.00701915
0.00751149
0.00710291
0.00759748
0.00720084
0.00767769
0.00722809
0.00754178
0.00699045
0.00667227
0.00602778
0.00596238
0.0052407
0.00685341
0.00607398
0.00748177
0.00667496
0.006857
0.00606528
0.00635257
0.00562223
0.00639845
0.00577577
0.00734026
0.00686688
0.00815753
0.00786676
0.00821496
0.00813095
0.00816266
0.00830073
0.00809467
0.00845883
7.85815e-09
0
7.69132e-08
5.80927e-07
2.6681e-06
8.68949e-06
2.21592e-05
4.70813e-05
8.69243e-05
0.000143765
0.00021796
0.000306257
0.000403938
0.000510101
0.000624737
0.00074388
0.000865466
0.000991451
0.00112254
0.00125831
0.00139775
0.00153866
0.00167839
0.00181742
0.00196442
0.00213462
0.00233548
0.00255682
0.00276442
0.00293438
0.00306484
0.00314119
0.00322056
0.00339079
0.0036398
0.00391874
0.00413802
0.00404014
0.00372948
0.00363524
0.00389418
0.00440459
0.00484682
0.00477531
0.00454502
0.00470618
0.00524874
0.00576839
0.00600068
0.00615157
0.00627993
0.00629297
0.0061748
0.00610126
0.0061888
0.00652316
0.00682976
0.00691444
0.00694572
0.00695228
0.00610384
0.00508938
0.00512957
0.00606374
0.00686657
0.00699356
0.00703876
0.00703318
0.00703387
0.00704312
0.00705493
0.00707509
0.0071148
0.00717917
0.0072703
0.00738195
0.00750362
0.00762566
0.00702521
0.00613025
1.10497e-08
0
8.31746e-08
6.0608e-07
2.75603e-06
8.90776e-06
2.25358e-05
4.74681e-05
8.68376e-05
0.000142294
0.000213816
0.000297943
0.000389982
0.000489273
0.000594744
0.000704733
0.000820344
0.00094232
0.00107065
0.00120513
0.00134488
0.00148777
0.00163103
0.00177483
0.00192675
0.00210191
0.00230938
0.00254145
0.0027662
0.00295653
0.00310422
0.00318538
0.00324712
0.00338059
0.00360639
0.003883
0.00410152
0.00403457
0.00381555
0.00384315
0.00419337
0.00471609
0.00506244
0.00488875
0.00463465
0.00477791
0.0052717
0.00573072
0.00591892
0.00605918
0.00619894
0.00633705
0.00646989
0.00659203
0.00669972
0.00679121
0.00686563
0.00692265
0.00696203
0.00698101
0.00618459
0.00528558
0.00545448
0.00646593
0.00727515
0.0073902
0.00748836
0.0075845
0.00767836
0.0077648
0.00783435
0.0078819
0.00790653
0.0079095
0.00789298
0.00785534
0.00779439
0.00770967
0.00688714
0.0057661
1.67481e-08
0
9.30392e-08
6.40885e-07
2.85873e-06
9.10484e-06
2.27618e-05
4.75454e-05
8.6579e-05
0.000141676
0.000213106
0.000299815
0.000400003
0.00051048
0.000627882
0.000751399
0.000881816
0.00101933
0.00116347
0.00131368
0.00146925
0.00162944
0.00179353
0.00196098
0.00213081
0.00230249
0.0024756
0.0026487
0.00282025
0.00298715
0.00315036
0.00331288
0.00347419
0.00363395
0.00379204
0.00394836
0.00410286
0.00425529
0.00440493
0.00455057
0.00469125
0.00482744
0.00496202
0.00509967
0.00512626
0.00485322
0.0044804
0.00441472
0.00485223
0.0055974
0.00604954
0.00618264
0.00631484
0.00644248
0.00656266
0.00667629
0.00678391
0.00688598
0.00698211
0.00707222
0.0071581
0.00724303
0.0073308
0.00742134
0.00751149
0.00759748
0.00767769
0.00754178
0.00667227
0.00596238
0.00685341
0.00748177
0.006857
0.00635257
0.00639845
0.00734026
0.00815753
0.00821496
0.00816266
0.00809467
)
