0 	0 	0 	0
0 	3.52452e-37 	-2.80177e-36 	1.85242e-31
5.01672e-05 	-4.45098e-08 	-3.04837e-07 	0.0172803
5.01672e-05 	-4.45098e-08 	-3.04837e-07 	0.0172803
0.000100334 	-6.54359e-07 	-9.86267e-07 	0.0332435
0.000150502 	-1.33078e-06 	-2.09487e-06 	0.0480618
0.000150502 	-1.33078e-06 	-2.09487e-06 	0.0480618
0.000200669 	-1.89227e-06 	-3.61941e-06 	0.0618234
0.000200669 	-1.89227e-06 	-3.61941e-06 	0.0618234
0.000250836 	-2.36884e-06 	-5.56263e-06 	0.0746054
0.000301003 	-2.7912e-06 	-7.91035e-06 	0.0864709
0.000301003 	-2.7912e-06 	-7.91035e-06 	0.0864709
0.000351171 	-3.16788e-06 	-1.06579e-05 	0.0974614
0.000401338 	-3.50269e-06 	-1.38107e-05 	0.107596
0.000451505 	-3.79763e-06 	-1.73902e-05 	0.116889
0.000451505 	-3.79763e-06 	-1.73902e-05 	0.116889
0.000501672 	-4.05341e-06 	-2.14303e-05 	0.125367
0.000551839 	-4.27027e-06 	-2.59671e-05 	0.133073
0.000551839 	-4.27027e-06 	-2.59671e-05 	0.133073
0.000602007 	-4.44871e-06 	-3.10288e-05 	0.140072
0.000602007 	-4.44871e-06 	-3.10288e-05 	0.140072
0.000652174 	-4.59e-06 	-3.66363e-05 	0.146432
0.000652174 	-4.59e-06 	-3.66363e-05 	0.146432
0.000702341 	-4.69629e-06 	-4.28079e-05 	0.152227
0.000702341 	-4.69629e-06 	-4.28079e-05 	0.152227
0.000752508 	-4.77026e-06 	-4.95586e-05 	0.157527
0.000802676 	-4.81434e-06 	-5.69022e-05 	0.162387
0.000852843 	-4.82723e-06 	-6.49324e-05 	0.1668
0.000852843 	-4.82723e-06 	-6.49324e-05 	0.1668
0.00090301 	-4.8161e-06 	-7.35238e-05 	0.170876
0.00090301 	-4.8161e-06 	-7.35238e-05 	0.170876
0.000953177 	-4.78341e-06 	-8.26274e-05 	0.174655
0.00100334 	-4.73148e-06 	-9.21923e-05 	0.178172
0.00100334 	-4.73148e-06 	-9.21923e-05 	0.178172
0.00105351 	-4.66245e-06 	-0.00010217 	0.181459
0.00105351 	-4.66245e-06 	-0.00010217 	0.181459
0.00110368 	-4.5779e-06 	-0.000112525 	0.184539
0.00115385 	-4.47626e-06 	-0.000123296 	0.187392
0.00120401 	-4.36358e-06 	-0.000134337 	0.190094
0.00120401 	-4.36358e-06 	-0.000134337 	0.190094
0.00130435 	-4.11002e-06 	-0.00015709 	0.195106
0.00130435 	-4.11002e-06 	-0.00015709 	0.195106
0.00135452 	-3.96901e-06 	-0.00016879 	0.197408
0.00135452 	-3.96901e-06 	-0.00016879 	0.197408
0.00140468 	-3.82051e-06 	-0.000180638 	0.199601
0.00145485 	-3.66627e-06 	-0.000192585 	0.20171
0.00145485 	-3.66627e-06 	-0.000192585 	0.20171
0.00150502 	-3.50675e-06 	-0.000204612 	0.203743
0.00150502 	-3.50675e-06 	-0.000204612 	0.203743
0.00155518 	-3.33971e-06 	-0.000216716 	0.205667
0.00155518 	-3.33971e-06 	-0.000216716 	0.205667
0.00160535 	-3.16855e-06 	-0.000228831 	0.207532
0.00160535 	-3.16855e-06 	-0.000228831 	0.207532
0.00165552 	-2.99381e-06 	-0.000240945 	0.209343
0.00165552 	-2.99381e-06 	-0.000240945 	0.209343
0.00170569 	-2.81452e-06 	-0.000253021 	0.211084
0.00170569 	-2.81452e-06 	-0.000253021 	0.211084
0.00175585 	-2.63196e-06 	-0.000265016 	0.21277
0.00175585 	-2.63196e-06 	-0.000265016 	0.21277
0.00180602 	-2.44727e-06 	-0.000276937 	0.214417
0.00180602 	-2.44727e-06 	-0.000276937 	0.214417
0.00185619 	-2.2597e-06 	-0.000288722 	0.216011
0.00185619 	-2.2597e-06 	-0.000288722 	0.216011
0.00190635 	-2.06992e-06 	-0.000300335 	0.21756
0.00190635 	-2.06992e-06 	-0.000300335 	0.21756
0.00195652 	-1.87881e-06 	-0.000311827 	0.219081
0.00195652 	-1.87881e-06 	-0.000311827 	0.219081
0.00200669 	-1.6856e-06 	-0.000323073 	0.220554
0.00200669 	-1.6856e-06 	-0.000323073 	0.220554
0.00205686 	-1.49111e-06 	-0.000334102 	0.221994
0.00210702 	-1.29579e-06 	-0.000344987 	0.223413
0.00210702 	-1.29579e-06 	-0.000344987 	0.223413
0.00215719 	-1.0988e-06 	-0.000355466 	0.224782
0.00220736 	-9.01296e-07 	-0.000365769 	0.226134
0.00225753 	-7.02963e-07 	-0.000375788 	0.227456
0.00225753 	-7.02963e-07 	-0.000375788 	0.227456
0.00230769 	-5.03867e-07 	-0.000385439 	0.228747
0.00230769 	-5.03867e-07 	-0.000385439 	0.228747
0.00235786 	-3.0445e-07 	-0.000394928 	0.230023
0.00235786 	-3.0445e-07 	-0.000394928 	0.230023
0.00240803 	-1.04269e-07 	-0.000403898 	0.231259
0.00240803 	-1.04269e-07 	-0.000403898 	0.231259
0.00245819 	9.61105e-08 	-0.000412675 	0.232482
0.00245819 	9.61105e-08 	-0.000412675 	0.232482
0.00250836 	2.96893e-07 	-0.000421065 	0.233676
0.00250836 	2.96893e-07 	-0.000421065 	0.233676
0.00255853 	4.97944e-07 	-0.000429099 	0.234848
0.0026087 	6.99186e-07 	-0.000436881 	0.236003
0.0026087 	6.99186e-07 	-0.000436881 	0.236003
0.00265886 	9.00751e-07 	-0.000444152 	0.237126
0.00270903 	1.10239e-06 	-0.000451302 	0.238241
0.00270903 	1.10239e-06 	-0.000451302 	0.238241
0.0027592 	1.30449e-06 	-0.000457799 	0.239318
0.00280936 	1.50668e-06 	-0.000464191 	0.240388
0.00280936 	1.50668e-06 	-0.000464191 	0.240388
0.00285953 	1.7094e-06 	-0.000470022 	0.241425
0.00285953 	1.7094e-06 	-0.000470022 	0.241425
0.0029097 	1.91238e-06 	-0.000475661 	0.242452
0.0029097 	1.91238e-06 	-0.000475661 	0.242452
0.00295987 	2.11599e-06 	-0.000480821 	0.24345
0.00295987 	2.11599e-06 	-0.000480821 	0.24345
0.00301003 	2.32004e-06 	-0.000485733 	0.244435
0.0030602 	2.52482e-06 	-0.000490235 	0.245395
0.00311037 	2.73018e-06 	-0.000494463 	0.246338
0.00311037 	2.73018e-06 	-0.000494463 	0.246338
0.00316054 	2.9363e-06 	-0.000498335 	0.24726
0.00316054 	2.9363e-06 	-0.000498335 	0.24726
0.00326087 	3.35064e-06 	-0.000505226 	0.249049
0.00326087 	3.35064e-06 	-0.000505226 	0.249049
0.00331104 	3.55897e-06 	-0.000508274 	0.249915
0.0033612 	3.76824e-06 	-0.000511027 	0.250761
0.0033612 	3.76824e-06 	-0.000511027 	0.250761
0.00341137 	3.97851e-06 	-0.000513591 	0.251591
0.00341137 	3.97851e-06 	-0.000513591 	0.251591
0.00346154 	4.19027e-06 	-0.000515869 	0.252398
0.00346154 	4.19027e-06 	-0.000515869 	0.252398
0.00351171 	4.40316e-06 	-0.000518018 	0.253193
0.00356187 	4.61851e-06 	-0.000519883 	0.253963
0.00356187 	4.61851e-06 	-0.000519883 	0.253963
0.00361204 	4.83464e-06 	-0.000521679 	0.254726
0.00366221 	5.0541e-06 	-0.000523185 	0.25546
0.00366221 	5.0541e-06 	-0.000523185 	0.25546
0.00371237 	5.27366e-06 	-0.000524682 	0.256194
0.00371237 	5.27366e-06 	-0.000524682 	0.256194
0.00376254 	5.49675e-06 	-0.000525875 	0.256895
0.00376254 	5.49675e-06 	-0.000525875 	0.256895
0.00381271 	5.71985e-06 	-0.000527067 	0.257596
0.00381271 	5.71985e-06 	-0.000527067 	0.257596
0.00386288 	5.94513e-06 	-0.000528031 	0.258271
0.00391304 	6.17086e-06 	-0.000528947 	0.25894
0.00391304 	6.17086e-06 	-0.000528947 	0.25894
0.00396321 	6.39764e-06 	-0.000529721 	0.25959
0.00401338 	6.62514e-06 	-0.000530396 	0.260227
0.00401338 	6.62514e-06 	-0.000530396 	0.260227
0.00406355 	6.853e-06 	-0.000531007 	0.260854
0.00406355 	6.853e-06 	-0.000531007 	0.260854
0.00411371 	7.08165e-06 	-0.000531475 	0.261459
0.00411371 	7.08165e-06 	-0.000531475 	0.261459
0.00421405 	7.5395e-06 	-0.00053224 	0.262637
0.00421405 	7.5395e-06 	-0.00053224 	0.262637
0.00426421 	7.76869e-06 	-0.000532536 	0.26321
0.00426421 	7.76869e-06 	-0.000532536 	0.26321
0.00431438 	7.99778e-06 	-0.000532745 	0.263762
0.00431438 	7.99778e-06 	-0.000532745 	0.263762
0.00436455 	8.22679e-06 	-0.000532904 	0.264302
0.00436455 	8.22679e-06 	-0.000532904 	0.264302
0.00441472 	8.45558e-06 	-0.000533039 	0.264835
0.00441472 	8.45558e-06 	-0.000533039 	0.264835
0.00446488 	8.68361e-06 	-0.000533096 	0.265343
0.00446488 	8.68361e-06 	-0.000533096 	0.265343
0.00451505 	8.91163e-06 	-0.000533152 	0.265851
0.00451505 	8.91163e-06 	-0.000533152 	0.265851
0.00456522 	9.13815e-06 	-0.000533156 	0.266334
0.00456522 	9.13815e-06 	-0.000533156 	0.266334
0.00461538 	9.36425e-06 	-0.000533144 	0.266809
0.00461538 	9.36425e-06 	-0.000533144 	0.266809
0.00466555 	9.5895e-06 	-0.000533123 	0.267276
0.00471572 	9.81268e-06 	-0.000533077 	0.267719
0.00476589 	1.00359e-05 	-0.000533031 	0.268162
0.00476589 	1.00359e-05 	-0.000533031 	0.268162
0.00486622 	1.04753e-05 	-0.000532931 	0.268992
0.00486622 	1.04753e-05 	-0.000532931 	0.268992
0.00491639 	1.06936e-05 	-0.000532884 	0.269397
0.00496656 	1.09078e-05 	-0.000532856 	0.269776
0.00496656 	1.09078e-05 	-0.000532856 	0.269776
0.00501672 	1.1122e-05 	-0.000532827 	0.270154
0.00506689 	1.13329e-05 	-0.000532823 	0.270515
0.00511706 	1.1541e-05 	-0.00053284 	0.270862
0.00511706 	1.1541e-05 	-0.00053284 	0.270862
0.00521739 	1.19509e-05 	-0.000532927 	0.271527
0.00521739 	1.19509e-05 	-0.000532927 	0.271527
0.00526756 	1.21518e-05 	-0.000533005 	0.271842
0.00526756 	1.21518e-05 	-0.000533005 	0.271842
0.00531773 	1.23514e-05 	-0.000533095 	0.272152
0.00536789 	1.25439e-05 	-0.000533248 	0.272435
0.00536789 	1.25439e-05 	-0.000533248 	0.272435
0.00541806 	1.27364e-05 	-0.000533401 	0.272718
0.00546823 	1.29253e-05 	-0.000533585 	0.27299
0.00551839 	1.31083e-05 	-0.000533818 	0.273242
0.00551839 	1.31083e-05 	-0.000533818 	0.273242
0.00556856 	1.32914e-05 	-0.000534052 	0.273494
0.00556856 	1.32914e-05 	-0.000534052 	0.273494
0.0056689 	1.36409e-05 	-0.000534646 	0.273951
0.0056689 	1.36409e-05 	-0.000534646 	0.273951
0.00571906 	1.38133e-05 	-0.00053496 	0.274172
0.00576923 	1.39774e-05 	-0.000535326 	0.274374
0.00576923 	1.39774e-05 	-0.000535326 	0.274374
0.0058194 	1.41377e-05 	-0.000535716 	0.274566
0.0058194 	1.41377e-05 	-0.000535716 	0.274566
0.00591973 	1.44478e-05 	-0.000536542 	0.274928
0.00591973 	1.44478e-05 	-0.000536542 	0.274928
0.0059699 	1.45944e-05 	-0.000536994 	0.275092
0.0059699 	1.45944e-05 	-0.000536994 	0.275092
0.00602007 	1.47409e-05 	-0.000537446 	0.275255
0.00607023 	1.4875e-05 	-0.000537933 	0.275397
0.0061204 	1.50058e-05 	-0.00053843 	0.275532
0.0061204 	1.50058e-05 	-0.00053843 	0.275532
0.00617057 	1.51366e-05 	-0.000538927 	0.275668
0.00622074 	1.52538e-05 	-0.000539444 	0.275784
0.00622074 	1.52538e-05 	-0.000539444 	0.275784
0.0062709 	1.53669e-05 	-0.000539966 	0.275893
0.00632107 	1.54799e-05 	-0.000540489 	0.276002
0.00632107 	1.54799e-05 	-0.000540489 	0.276002
0.00637124 	1.55794e-05 	-0.000541016 	0.276093
0.00637124 	1.55794e-05 	-0.000541016 	0.276093
0.0064214 	1.56726e-05 	-0.000541545 	0.276176
0.0064214 	1.56726e-05 	-0.000541545 	0.276176
0.00647157 	1.57658e-05 	-0.000542074 	0.276259
0.00647157 	1.57658e-05 	-0.000542074 	0.276259
0.00652174 	1.58468e-05 	-0.000542588 	0.276329
0.00657191 	1.59177e-05 	-0.000543088 	0.276387
0.00657191 	1.59177e-05 	-0.000543088 	0.276387
0.00662207 	1.59886e-05 	-0.000543589 	0.276445
0.00667224 	1.60507e-05 	-0.000544078 	0.276494
0.00672241 	1.60967e-05 	-0.000544544 	0.276527
0.00672241 	1.60967e-05 	-0.000544544 	0.276527
0.00677258 	1.61427e-05 	-0.000545011 	0.27656
0.00682274 	1.61859e-05 	-0.000545474 	0.276591
0.00682274 	1.61859e-05 	-0.000545474 	0.276591
0.00687291 	1.62041e-05 	-0.000545906 	0.276599
0.00687291 	1.62041e-05 	-0.000545906 	0.276599
0.00692308 	1.62223e-05 	-0.000546338 	0.276608
0.00697324 	1.62405e-05 	-0.00054677 	0.276617
0.00702341 	1.62345e-05 	-0.000547145 	0.276607
0.00707358 	1.62221e-05 	-0.000547504 	0.276591
0.00707358 	1.62221e-05 	-0.000547504 	0.276591
0.00717391 	1.61827e-05 	-0.000548205 	0.27655
0.00717391 	1.61827e-05 	-0.000548205 	0.27655
0.00722408 	1.61358e-05 	-0.000548519 	0.276511
0.00722408 	1.61358e-05 	-0.000548519 	0.276511
0.00727425 	1.60888e-05 	-0.000548833 	0.276471
0.00727425 	1.60888e-05 	-0.000548833 	0.276471
0.00732441 	1.60419e-05 	-0.000549147 	0.276432
0.00732441 	1.60419e-05 	-0.000549147 	0.276432
0.00737458 	1.59574e-05 	-0.000549377 	0.276369
0.00737458 	1.59574e-05 	-0.000549377 	0.276369
0.00742475 	1.58725e-05 	-0.000549606 	0.276305
0.00747492 	1.57876e-05 	-0.000549835 	0.276242
0.00752508 	1.56833e-05 	-0.000549995 	0.276167
0.00752508 	1.56833e-05 	-0.000549995 	0.276167
0.00757525 	1.55598e-05 	-0.000550086 	0.276079
0.00762542 	1.54363e-05 	-0.000550177 	0.275992
0.00767559 	1.53124e-05 	-0.000550267 	0.275905
0.00767559 	1.53124e-05 	-0.000550267 	0.275905
0.00772575 	1.51516e-05 	-0.000550253 	0.275793
0.00777592 	1.49907e-05 	-0.000550238 	0.275682
0.00777592 	1.49907e-05 	-0.000550238 	0.275682
0.00782609 	1.48299e-05 	-0.000550224 	0.27557
0.00787625 	1.46504e-05 	-0.000550124 	0.275445
0.00787625 	1.46504e-05 	-0.000550124 	0.275445
0.00792642 	1.44575e-05 	-0.000549962 	0.275311
0.00797659 	1.42645e-05 	-0.0005498 	0.275176
0.00802676 	1.40658e-05 	-0.000549607 	0.275036
0.00802676 	1.40658e-05 	-0.000549607 	0.275036
0.00807692 	1.38459e-05 	-0.000549301 	0.274879
0.00807692 	1.38459e-05 	-0.000549301 	0.274879
0.00812709 	1.36259e-05 	-0.000548995 	0.274721
0.00817726 	1.3406e-05 	-0.000548689 	0.274564
0.00817726 	1.3406e-05 	-0.000548689 	0.274564
0.00822742 	1.31649e-05 	-0.000548287 	0.274385
0.00827759 	1.29215e-05 	-0.000547874 	0.274205
0.00827759 	1.29215e-05 	-0.000547874 	0.274205
0.00832776 	1.26781e-05 	-0.000547461 	0.274025
0.00832776 	1.26781e-05 	-0.000547461 	0.274025
0.00837793 	1.24218e-05 	-0.000546968 	0.27383
0.00842809 	1.21584e-05 	-0.00054643 	0.273627
0.00842809 	1.21584e-05 	-0.00054643 	0.273627
0.00847826 	1.1895e-05 	-0.000545893 	0.273424
0.00847826 	1.1895e-05 	-0.000545893 	0.273424
0.0085786 	1.1344e-05 	-0.000544638 	0.272986
0.0085786 	1.1344e-05 	-0.000544638 	0.272986
0.00862876 	1.1064e-05 	-0.000543978 	0.27276
0.00867893 	1.07796e-05 	-0.000543278 	0.272528
0.0087291 	1.04859e-05 	-0.000542495 	0.27228
0.00877926 	1.01923e-05 	-0.000541712 	0.272032
0.00882943 	9.89606e-06 	-0.0005409 	0.271779
0.0088796 	9.59152e-06 	-0.000539995 	0.271509
0.0088796 	9.59152e-06 	-0.000539995 	0.271509
0.00892977 	9.28699e-06 	-0.00053909 	0.271239
0.00892977 	9.28699e-06 	-0.00053909 	0.271239
0.00897993 	8.98071e-06 	-0.00053816 	0.270964
0.00897993 	8.98071e-06 	-0.00053816 	0.270964
0.0090301 	8.66777e-06 	-0.000537133 	0.270671
0.00908027 	8.35483e-06 	-0.000536106 	0.270379
0.00908027 	8.35483e-06 	-0.000536106 	0.270379
0.00913043 	8.04044e-06 	-0.000535052 	0.270081
0.0091806 	7.72127e-06 	-0.000533903 	0.269765
0.0091806 	7.72127e-06 	-0.000533903 	0.269765
0.00923077 	7.40209e-06 	-0.000532755 	0.26945
0.00928094 	7.08159e-06 	-0.000531569 	0.269127
0.00928094 	7.08159e-06 	-0.000531569 	0.269127
0.0093311 	6.7581e-06 	-0.0005303 	0.268789
0.00938127 	6.43461e-06 	-0.00052903 	0.268451
0.00938127 	6.43461e-06 	-0.00052903 	0.268451
0.00943144 	6.10995e-06 	-0.000527706 	0.268102
0.00943144 	6.10995e-06 	-0.000527706 	0.268102
0.00948161 	5.7838e-06 	-0.000526314 	0.267741
0.00948161 	5.7838e-06 	-0.000526314 	0.267741
0.00953177 	5.45765e-06 	-0.000524921 	0.267379
0.00953177 	5.45765e-06 	-0.000524921 	0.267379
0.00958194 	5.13074e-06 	-0.000523452 	0.267003
0.00958194 	5.13074e-06 	-0.000523452 	0.267003
0.00963211 	4.80336e-06 	-0.000521935 	0.266618
0.00968227 	4.47598e-06 	-0.000520418 	0.266233
0.00968227 	4.47598e-06 	-0.000520418 	0.266233
0.00973244 	4.14862e-06 	-0.000518795 	0.265828
0.00978261 	3.82127e-06 	-0.000517152 	0.265419
0.00978261 	3.82127e-06 	-0.000517152 	0.265419
0.00983278 	3.49406e-06 	-0.000515492 	0.265007
0.00983278 	3.49406e-06 	-0.000515492 	0.265007
0.00988294 	3.16785e-06 	-0.00051372 	0.264574
0.00993311 	2.84163e-06 	-0.000511948 	0.264141
0.00993311 	2.84163e-06 	-0.000511948 	0.264141
0.00998328 	2.51638e-06 	-0.000510115 	0.263697
0.0100334 	2.1923e-06 	-0.00050821 	0.263239
0.0100836 	1.86822e-06 	-0.000506305 	0.262781
0.0100836 	1.86822e-06 	-0.000506305 	0.262781
0.0101338 	1.54662e-06 	-0.000504286 	0.262302
0.0101839 	1.22554e-06 	-0.000502243 	0.261819
0.0101839 	1.22554e-06 	-0.000502243 	0.261819
0.0102341 	9.05384e-07 	-0.000500166 	0.261329
0.0102341 	9.05384e-07 	-0.000500166 	0.261329
0.0102843 	5.88089e-07 	-0.00049798 	0.260819
0.0103344 	2.70793e-07 	-0.000495795 	0.26031
0.0103344 	2.70793e-07 	-0.000495795 	0.26031
0.0103846 	-4.33312e-08 	-0.000493504 	0.259782
0.0103846 	-4.33312e-08 	-0.000493504 	0.259782
0.0104348 	-3.5615e-07 	-0.000491169 	0.259246
0.0104348 	-3.5615e-07 	-0.000491169 	0.259246
0.0104849 	-6.67857e-07 	-0.000488801 	0.258703
0.0104849 	-6.67857e-07 	-0.000488801 	0.258703
0.0105351 	-9.7557e-07 	-0.000486311 	0.25814
0.0105853 	-1.28328e-06 	-0.000483821 	0.257576
0.0105853 	-1.28328e-06 	-0.000483821 	0.257576
0.0106856 	-1.88867e-06 	-0.000478552 	0.256398
0.0106856 	-1.88867e-06 	-0.000478552 	0.256398
0.0107358 	-2.18843e-06 	-0.000475837 	0.255794
0.010786 	-2.48429e-06 	-0.000473013 	0.255172
0.010786 	-2.48429e-06 	-0.000473013 	0.255172
0.0108361 	-2.7801e-06 	-0.000470188 	0.25455
0.0108863 	-3.06928e-06 	-0.000467186 	0.253898
0.0108863 	-3.06928e-06 	-0.000467186 	0.253898
0.0109365 	-3.35847e-06 	-0.000464185 	0.253245
0.0109365 	-3.35847e-06 	-0.000464185 	0.253245
0.0109866 	-3.64274e-06 	-0.000461056 	0.252571
0.0110368 	-3.92478e-06 	-0.000457868 	0.251886
0.0110368 	-3.92478e-06 	-0.000457868 	0.251886
0.011087 	-4.2037e-06 	-0.0004546 	0.251188
0.011087 	-4.2037e-06 	-0.0004546 	0.251188
0.0111371 	-4.47809e-06 	-0.000451215 	0.25047
0.0111873 	-4.75109e-06 	-0.000447794 	0.249747
0.0111873 	-4.75109e-06 	-0.000447794 	0.249747
0.0112375 	-5.01728e-06 	-0.000444197 	0.248994
0.0112876 	-5.28348e-06 	-0.0004406 	0.248242
0.0112876 	-5.28348e-06 	-0.0004406 	0.248242
0.0113378 	-5.5412e-06 	-0.00043678 	0.247454
0.0113378 	-5.5412e-06 	-0.00043678 	0.247454
0.011388 	-5.79867e-06 	-0.000432953 	0.246665
0.0114381 	-6.04877e-06 	-0.000428918 	0.245844
0.0114381 	-6.04877e-06 	-0.000428918 	0.245844
0.0114883 	-6.29712e-06 	-0.000424834 	0.245016
0.0115385 	-6.53891e-06 	-0.000420546 	0.244158
0.0115385 	-6.53891e-06 	-0.000420546 	0.244158
0.0115886 	-6.77772e-06 	-0.000416165 	0.243286
0.0116388 	-7.01043e-06 	-0.000411579 	0.242386
0.0116388 	-7.01043e-06 	-0.000411579 	0.242386
0.011689 	-7.23911e-06 	-0.000406857 	0.241467
0.0117391 	-7.46206e-06 	-0.000401918 	0.240519
0.0117893 	-7.68039e-06 	-0.000396805 	0.239548
0.0118395 	-7.8932e-06 	-0.000391456 	0.238546
0.0118395 	-7.8932e-06 	-0.000391456 	0.238546
0.0118896 	-8.10134e-06 	-0.000385907 	0.237517
0.0119398 	-8.30386e-06 	-0.000380097 	0.236454
0.0119398 	-8.30386e-06 	-0.000380097 	0.236454
0.01199 	-8.50206e-06 	-0.000374084 	0.235363
0.0120401 	-8.69406e-06 	-0.000367774 	0.234231
0.0120401 	-8.69406e-06 	-0.000367774 	0.234231
0.0120903 	-8.88231e-06 	-0.000361284 	0.233073
0.0120903 	-8.88231e-06 	-0.000361284 	0.233073
0.0121906 	-9.24126e-06 	-0.000347477 	0.230636
0.0121906 	-9.24126e-06 	-0.000347477 	0.230636
0.0122408 	-9.41025e-06 	-0.000340097 	0.229342
0.012291 	-9.57755e-06 	-0.000332639 	0.228037
0.012291 	-9.57755e-06 	-0.000332639 	0.228037
0.0123411 	-9.73361e-06 	-0.0003247 	0.226651
0.0123913 	-9.8874e-06 	-0.000316669 	0.225248
0.0123913 	-9.8874e-06 	-0.000316669 	0.225248
0.0124415 	-1.00317e-05 	-0.000308254 	0.223775
0.0124415 	-1.00317e-05 	-0.000308254 	0.223775
0.0124916 	-1.01708e-05 	-0.000299647 	0.222265
0.0124916 	-1.01708e-05 	-0.000299647 	0.222265
0.0125418 	-1.03026e-05 	-0.00029077 	0.220701
0.012592 	-1.04258e-05 	-0.000281601 	0.219073
0.0126421 	-1.05447e-05 	-0.000272287 	0.217412
0.0126421 	-1.05447e-05 	-0.000272287 	0.217412
0.0126923 	-1.06504e-05 	-0.000262589 	0.215656
0.0127425 	-1.07517e-05 	-0.000252777 	0.213865
0.0127425 	-1.07517e-05 	-0.000252777 	0.213865
0.0127926 	-1.08424e-05 	-0.000242707 	0.211998
0.0128428 	-1.09238e-05 	-0.000232455 	0.210061
0.0128428 	-1.09238e-05 	-0.000232455 	0.210061
0.0129431 	-1.10589e-05 	-0.000211502 	0.205986
0.0129431 	-1.10589e-05 	-0.000211502 	0.205986
0.0129933 	-1.11116e-05 	-0.000200856 	0.203842
0.0130435 	-1.1154e-05 	-0.000190121 	0.201622
0.0130435 	-1.1154e-05 	-0.000190121 	0.201622
0.0131438 	-1.12007e-05 	-0.000168551 	0.196911
0.0131438 	-1.12007e-05 	-0.000168551 	0.196911
0.013194 	-1.12062e-05 	-0.000157787 	0.194427
0.0132441 	-1.11963e-05 	-0.000147114 	0.191833
0.0132441 	-1.11963e-05 	-0.000147114 	0.191833
0.0132943 	-1.11759e-05 	-0.000136526 	0.189163
0.0133445 	-1.11403e-05 	-0.000126087 	0.186385
0.0133445 	-1.11403e-05 	-0.000126087 	0.186385
0.0133946 	-1.10865e-05 	-0.000115886 	0.183475
0.0133946 	-1.10865e-05 	-0.000115886 	0.183475
0.0134448 	-1.10197e-05 	-0.000105879 	0.180471
0.0134448 	-1.10197e-05 	-0.000105879 	0.180471
0.013495 	-1.09385e-05 	-9.60971e-05 	0.177362
0.0135452 	-1.08332e-05 	-8.67414e-05 	0.174074
0.0135452 	-1.08332e-05 	-8.67414e-05 	0.174074
0.0135953 	-1.0712e-05 	-7.76927e-05 	0.170667
0.0135953 	-1.0712e-05 	-7.76927e-05 	0.170667
0.0136455 	-1.05738e-05 	-6.8978e-05 	0.16713
0.0136455 	-1.05738e-05 	-6.8978e-05 	0.16713
0.0136957 	-1.04143e-05 	-6.06957e-05 	0.163428
0.0136957 	-1.04143e-05 	-6.06957e-05 	0.163428
0.0137458 	-1.02292e-05 	-5.29569e-05 	0.159518
0.013796 	-1.00238e-05 	-4.56644e-05 	0.155435
0.013796 	-1.00238e-05 	-4.56644e-05 	0.155435
0.0138462 	-9.79716e-06 	-3.88487e-05 	0.151166
0.0138462 	-9.79716e-06 	-3.88487e-05 	0.151166
0.0138963 	-9.5482e-06 	-3.2541e-05 	0.146695
0.0139465 	-9.26869e-06 	-2.69327e-05 	0.141935
0.0139465 	-9.26869e-06 	-2.69327e-05 	0.141935
0.0139967 	-8.96469e-06 	-2.18816e-05 	0.136928
0.0139967 	-8.96469e-06 	-2.18816e-05 	0.136928
0.0140468 	-8.63605e-06 	-1.73874e-05 	0.13166
0.0140468 	-8.63605e-06 	-1.73874e-05 	0.13166
0.014097 	-8.28204e-06 	-1.34587e-05 	0.12611
0.0141472 	-7.90196e-06 	-1.00958e-05 	0.120254
0.0141472 	-7.90196e-06 	-1.00958e-05 	0.120254
0.0141973 	-7.49501e-06 	-7.28474e-06 	0.114066
0.0142475 	-7.05611e-06 	-5.06879e-06 	0.107446
0.0142977 	-6.59033e-06 	-3.31627e-06 	0.10041
0.0142977 	-6.59033e-06 	-3.31627e-06 	0.10041
0.0143478 	-6.10145e-06 	-1.98263e-06 	0.0929465
0.014398 	-5.59555e-06 	-1.02827e-06 	0.0850733
0.014398 	-5.59555e-06 	-1.02827e-06 	0.0850733
0.0144482 	-5.08054e-06 	-4.03071e-07 	0.0768483
0.0144983 	-4.56555e-06 	-4.51747e-08 	0.0683758
0.0144983 	-4.56555e-06 	-4.51747e-08 	0.0683758
0.0145485 	-4.05988e-06 	1.14828e-07 	0.0598066
0.0145485 	-4.05988e-06 	1.14828e-07 	0.0598066
0.0145987 	-3.57122e-06 	1.4731e-07 	0.051323
0.0146488 	-3.1037e-06 	1.15026e-07 	0.0431082
0.014699 	-2.65644e-06 	6.52765e-08 	0.0353127
0.014699 	-2.65644e-06 	6.52765e-08 	0.0353127
0.0147492 	-2.22273e-06 	2.65812e-08 	0.0280333
0.0147993 	-1.78726e-06 	9.10525e-09 	0.0213155
0.0147993 	-1.78726e-06 	9.10525e-09 	0.0213155
0.0148495 	-1.31665e-06 	1.30369e-08 	0.0151695
0.0148495 	-1.31665e-06 	1.30369e-08 	0.0151695
0.0148997 	-7.8714e-07 	1.86198e-08 	0.00958583
0.0148997 	-7.8714e-07 	1.86198e-08 	0.00958583
0.0149498 	-2.88219e-07 	1.65291e-08 	0.00454404
0.0149498 	-2.88219e-07 	1.65291e-08 	0.00454404
0.015 	0 	0 	0
0.015 	0 	0 	0
