-0.0075 	0 	0 	0
-0.0075 	-6.27498e-36 	-2.41486e-36 	1.8543e-31
-0.00745622 	-5.1545e-07 	-1.98365e-07 	0.0152319
-0.00745622 	-5.1545e-07 	-1.98365e-07 	0.0152319
-0.00741165 	-1.29336e-06 	-6.8201e-07 	0.0296532
-0.00741165 	-1.29336e-06 	-6.8201e-07 	0.0296532
-0.00736628 	-2.10733e-06 	-1.52148e-06 	0.0433675
-0.00736628 	-2.10733e-06 	-1.52148e-06 	0.0433675
-0.0073201 	-2.83251e-06 	-2.72531e-06 	0.0564008
-0.0073201 	-2.83251e-06 	-2.72531e-06 	0.0564008
-0.00727309 	-3.47727e-06 	-4.32267e-06 	0.068777
-0.00727309 	-3.47727e-06 	-4.32267e-06 	0.068777
-0.00722524 	-4.06311e-06 	-6.31973e-06 	0.0805178
-0.00722524 	-4.06311e-06 	-6.31973e-06 	0.0805178
-0.00717653 	-4.59479e-06 	-8.73073e-06 	0.0916342
-0.00717653 	-4.59479e-06 	-8.73073e-06 	0.0916342
-0.00712695 	-5.07383e-06 	-1.15756e-05 	0.102116
-0.00712695 	-5.07383e-06 	-1.15756e-05 	0.102116
-0.00707647 	-5.50083e-06 	-1.48908e-05 	0.111934
-0.00707647 	-5.50083e-06 	-1.48908e-05 	0.111934
-0.0070251 	-5.87569e-06 	-1.87336e-05 	0.121064
-0.0070251 	-5.87569e-06 	-1.87336e-05 	0.121064
-0.0069728 	-6.1981e-06 	-2.31769e-05 	0.129498
-0.0069728 	-6.1981e-06 	-2.31769e-05 	0.129498
-0.00691956 	-6.46806e-06 	-2.82943e-05 	0.137254
-0.00691956 	-6.46806e-06 	-2.82943e-05 	0.137254
-0.00686537 	-6.68635e-06 	-3.41517e-05 	0.144371
-0.00686537 	-6.68635e-06 	-3.41517e-05 	0.144371
-0.00681021 	-6.85495e-06 	-4.08158e-05 	0.150904
-0.00681021 	-6.85495e-06 	-4.08158e-05 	0.150904
-0.00675406 	-6.97669e-06 	-4.83586e-05 	0.156913
-0.00675406 	-6.97669e-06 	-4.83586e-05 	0.156913
-0.0066969 	-7.0545e-06 	-5.68468e-05 	0.162452
-0.0066969 	-7.0545e-06 	-5.68468e-05 	0.162452
-0.00663871 	-7.09138e-06 	-6.6328e-05 	0.167568
-0.00663871 	-7.09138e-06 	-6.6328e-05 	0.167568
-0.00657949 	-7.09035e-06 	-7.68095e-05 	0.172303
-0.00657949 	-7.09035e-06 	-7.68095e-05 	0.172303
-0.0065192 	-7.05445e-06 	-8.82572e-05 	0.176698
-0.0065192 	-7.05445e-06 	-8.82572e-05 	0.176698
-0.00645783 	-6.9867e-06 	-0.000100621 	0.180794
-0.00645783 	-6.9867e-06 	-0.000100621 	0.180794
-0.00639535 	-6.88995e-06 	-0.000113849 	0.18463
-0.00639535 	-6.88995e-06 	-0.000113849 	0.18463
-0.00633176 	-6.76689e-06 	-0.000127885 	0.18824
-0.00633176 	-6.76689e-06 	-0.000127885 	0.18824
-0.00626703 	-6.61997e-06 	-0.000142676 	0.19165
-0.00626703 	-6.61997e-06 	-0.000142676 	0.19165
-0.00620114 	-6.45135e-06 	-0.000158166 	0.194883
-0.00620114 	-6.45135e-06 	-0.000158166 	0.194883
-0.00613406 	-6.26289e-06 	-0.000174295 	0.19796
-0.00613406 	-6.26289e-06 	-0.000174295 	0.19796
-0.00606579 	-6.05614e-06 	-0.000191002 	0.200898
-0.00606579 	-6.05614e-06 	-0.000191002 	0.200898
-0.00599629 	-5.83223e-06 	-0.000208221 	0.203715
-0.00599629 	-5.83223e-06 	-0.000208221 	0.203715
-0.00592554 	-5.59208e-06 	-0.000225883 	0.206426
-0.00592554 	-5.59208e-06 	-0.000225883 	0.206426
-0.00585352 	-5.33662e-06 	-0.000243913 	0.209045
-0.00585352 	-5.33662e-06 	-0.000243913 	0.209045
-0.00578022 	-5.06689e-06 	-0.000262221 	0.211585
-0.00578022 	-5.06689e-06 	-0.000262221 	0.211585
-0.00570559 	-4.78383e-06 	-0.000280709 	0.214055
-0.00570559 	-4.78383e-06 	-0.000280709 	0.214055
-0.00562963 	-4.48817e-06 	-0.000299276 	0.216464
-0.00562963 	-4.48817e-06 	-0.000299276 	0.216464
-0.00555231 	-4.18053e-06 	-0.000317823 	0.218819
-0.00555231 	-4.18053e-06 	-0.000317823 	0.218819
-0.0054736 	-3.8614e-06 	-0.000336246 	0.221125
-0.0054736 	-3.8614e-06 	-0.000336246 	0.221125
-0.00539348 	-3.53124e-06 	-0.00035444 	0.223388
-0.00539348 	-3.53124e-06 	-0.00035444 	0.223388
-0.00531193 	-3.19042e-06 	-0.000372301 	0.22561
-0.00531193 	-3.19042e-06 	-0.000372301 	0.22561
-0.00522891 	-2.83931e-06 	-0.000389724 	0.227794
-0.00522891 	-2.83931e-06 	-0.000389724 	0.227794
-0.0051444 	-2.4782e-06 	-0.000406606 	0.229944
-0.0051444 	-2.4782e-06 	-0.000406606 	0.229944
-0.00505838 	-2.10737e-06 	-0.00042285 	0.23206
-0.00505838 	-2.10737e-06 	-0.00042285 	0.23206
-0.00497081 	-1.72706e-06 	-0.000438361 	0.234143
-0.00497081 	-1.72706e-06 	-0.000438361 	0.234143
-0.00488168 	-1.33749e-06 	-0.00045305 	0.236192
-0.00488168 	-1.33749e-06 	-0.00045305 	0.236192
-0.00479094 	-9.38765e-07 	-0.000466831 	0.238208
-0.00479094 	-9.38765e-07 	-0.000466831 	0.238208
-0.00469858 	-5.3092e-07 	-0.000479624 	0.240189
-0.00469858 	-5.3092e-07 	-0.000479624 	0.240189
-0.00460456 	-1.13812e-07 	-0.000491352 	0.242133
-0.00460456 	-1.13812e-07 	-0.000491352 	0.242133
-0.00450886 	3.12839e-07 	-0.000501963 	0.244039
-0.00450886 	3.12839e-07 	-0.000501963 	0.244039
-0.00441144 	7.49366e-07 	-0.000511437 	0.245905
-0.00441144 	7.49366e-07 	-0.000511437 	0.245905
-0.00431227 	1.19603e-06 	-0.000519786 	0.247729
-0.00431227 	1.19603e-06 	-0.000519786 	0.247729
-0.00421133 	1.65303e-06 	-0.000527053 	0.24951
-0.00421133 	1.65303e-06 	-0.000527053 	0.24951
-0.00410857 	2.12084e-06 	-0.000533301 	0.251244
-0.00410857 	2.12084e-06 	-0.000533301 	0.251244
-0.00400397 	2.6006e-06 	-0.000538611 	0.25293
-0.00400397 	2.6006e-06 	-0.000538611 	0.25293
-0.0038975 	3.09381e-06 	-0.000543071 	0.254567
-0.0038975 	3.09381e-06 	-0.000543071 	0.254567
-0.00378912 	3.60121e-06 	-0.000546764 	0.256159
-0.00378912 	3.60121e-06 	-0.000546764 	0.256159
-0.00367879 	4.12221e-06 	-0.000549758 	0.257707
-0.00367879 	4.12221e-06 	-0.000549758 	0.257707
-0.00356649 	4.65544e-06 	-0.00055211 	0.259211
-0.00356649 	4.65544e-06 	-0.00055211 	0.259211
-0.00345217 	5.19947e-06 	-0.000553877 	0.260669
-0.00345217 	5.19947e-06 	-0.000553877 	0.260669
-0.0033358 	5.75302e-06 	-0.000555117 	0.262078
-0.0033358 	5.75302e-06 	-0.000555117 	0.262078
-0.00321735 	6.31467e-06 	-0.000555895 	0.263437
-0.00321735 	6.31467e-06 	-0.000555895 	0.263437
-0.00309677 	6.88272e-06 	-0.000556282 	0.264742
-0.00309677 	6.88272e-06 	-0.000556282 	0.264742
-0.00297403 	7.45516e-06 	-0.000556352 	0.265991
-0.00297403 	7.45516e-06 	-0.000556352 	0.265991
-0.00284909 	8.02966e-06 	-0.000556181 	0.267181
-0.00284909 	8.02966e-06 	-0.000556181 	0.267181
-0.0027219 	8.60356e-06 	-0.000555847 	0.268311
-0.0027219 	8.60356e-06 	-0.000555847 	0.268311
-0.00259244 	9.17405e-06 	-0.000555424 	0.269377
-0.00259244 	9.17405e-06 	-0.000555424 	0.269377
-0.00246065 	9.73818e-06 	-0.000554983 	0.270376
-0.00246065 	9.73818e-06 	-0.000554983 	0.270376
-0.00232651 	1.02928e-05 	-0.000554588 	0.271307
-0.00232651 	1.02928e-05 	-0.000554588 	0.271307
-0.00218995 	1.08345e-05 	-0.00055429 	0.272168
-0.00218995 	1.08345e-05 	-0.00055429 	0.272168
-0.00205095 	1.13598e-05 	-0.00055413 	0.272956
-0.00205095 	1.13598e-05 	-0.00055413 	0.272956
-0.00190946 	1.1865e-05 	-0.000554132 	0.27367
-0.00190946 	1.1865e-05 	-0.000554132 	0.27367
-0.00176543 	1.23462e-05 	-0.000554307 	0.274309
-0.00176543 	1.23462e-05 	-0.000554307 	0.274309
-0.00161881 	1.27984e-05 	-0.000554645 	0.274873
-0.00161881 	1.27984e-05 	-0.000554645 	0.274873
-0.00146957 	1.32159e-05 	-0.000555119 	0.27536
-0.00146957 	1.32159e-05 	-0.000555119 	0.27536
-0.00131765 	1.35924e-05 	-0.000555687 	0.275772
-0.00131765 	1.35924e-05 	-0.000555687 	0.275772
-0.001163 	1.39214e-05 	-0.000556295 	0.276109
-0.001163 	1.39214e-05 	-0.000556295 	0.276109
-0.00100559 	1.41955e-05 	-0.000556884 	0.27637
-0.00100559 	1.41955e-05 	-0.000556884 	0.27637
-0.000845345 	1.44064e-05 	-0.000557369 	0.276554
-0.000845345 	1.44064e-05 	-0.000557369 	0.276554
-0.000682232 	1.45445e-05 	-0.000557712 	0.276662
-0.000682232 	1.45445e-05 	-0.000557712 	0.276662
-0.000516194 	1.4599e-05 	-0.000557892 	0.27669
-0.000516194 	1.4599e-05 	-0.000557892 	0.27669
-0.000347178 	1.45583e-05 	-0.000557814 	0.276638
-0.000347178 	1.45583e-05 	-0.000557814 	0.276638
-0.000175132 	1.44085e-05 	-0.000557514 	0.276503
-0.000175132 	1.44085e-05 	-0.000557514 	0.276503
0 	1.41371e-05 	-0.000556901 	0.276283
0 	1.41371e-05 	-0.000556901 	0.276283
0 	1.41371e-05 	-0.000556901 	0.276283
0 	1.41371e-05 	-0.000556901 	0.276283
0.000175132 	1.37453e-05 	-0.00055586 	0.27598
0.000175132 	1.84416e-05 	-0.000462409 	0.272506
0.000347178 	1.32456e-05 	-0.00055448 	0.275601
0.000347178 	1.96355e-05 	-0.000462847 	0.272197
0.000516194 	1.2656e-05 	-0.000552701 	0.27515
0.000516194 	2.06461e-05 	-0.000462981 	0.271809
0.000682232 	1.19941e-05 	-0.000550557 	0.274631
0.000682232 	2.14906e-05 	-0.00046282 	0.271348
0.000845345 	1.12734e-05 	-0.000548139 	0.274048
0.000845345 	2.21844e-05 	-0.000462333 	0.270817
0.00100559 	1.05064e-05 	-0.000545428 	0.273403
0.00100559 	2.27436e-05 	-0.000461532 	0.27022
0.001163 	9.70452e-06 	-0.000542442 	0.272699
0.001163 	2.31835e-05 	-0.000460426 	0.269561
0.00131765 	8.87808e-06 	-0.000539198 	0.271938
0.00131765 	2.35178e-05 	-0.000459031 	0.268841
0.00146957 	8.03597e-06 	-0.000535711 	0.271123
0.00146957 	2.37585e-05 	-0.000457351 	0.268064
0.00161881 	7.18596e-06 	-0.000531993 	0.270254
0.00161881 	2.39163e-05 	-0.000455395 	0.267232
0.00176543 	6.33467e-06 	-0.000528055 	0.269335
0.00176543 	2.40004e-05 	-0.000453168 	0.266347
0.00190946 	5.48773e-06 	-0.000523904 	0.268366
0.00190946 	2.40188e-05 	-0.000450676 	0.26541
0.00205095 	4.6498e-06 	-0.000519545 	0.267348
0.00205095 	2.39784e-05 	-0.000447923 	0.264422
0.00218995 	3.8248e-06 	-0.000514983 	0.266283
0.00218995 	2.38852e-05 	-0.000444911 	0.263386
0.00232651 	3.01604e-06 	-0.000510217 	0.265172
0.00232651 	2.37446e-05 	-0.000441638 	0.262302
0.00246065 	2.22627e-06 	-0.000505247 	0.264015
0.00246065 	2.35607e-05 	-0.000438104 	0.261171
0.00259244 	1.45774e-06 	-0.000500069 	0.262812
0.00259244 	2.33374e-05 	-0.000434302 	0.259994
0.0027219 	7.12329e-07 	-0.000494679 	0.261566
0.0027219 	2.30777e-05 	-0.000430227 	0.258771
0.00284909 	-8.47266e-09 	-0.000489071 	0.260275
0.00284909 	2.27842e-05 	-0.000425868 	0.257504
0.00297403 	-7.03442e-07 	-0.000483235 	0.258939
0.00297403 	2.24588e-05 	-0.000421212 	0.256191
0.00309677 	-1.37161e-06 	-0.000477162 	0.25756
0.00309677 	2.21032e-05 	-0.000416246 	0.254834
0.00321735 	-2.01222e-06 	-0.000470843 	0.256136
0.00321735 	2.17189e-05 	-0.000410954 	0.253432
0.0033358 	-2.62471e-06 	-0.000464265 	0.254667
0.0033358 	2.1307e-05 	-0.000405319 	0.251984
0.00345217 	2.08684e-05 	-0.000399331 	0.25049
0.00345217 	-3.20865e-06 	-0.000457419 	0.253152
0.00356649 	-3.76372e-06 	-0.000450297 	0.251591
0.00356649 	2.04045e-05 	-0.00039299 	0.248949
0.00367879 	-4.28967e-06 	-0.000442884 	0.249982
0.00367879 	1.99175e-05 	-0.000386289 	0.247361
0.00378912 	-4.78623e-06 	-0.000435159 	0.248325
0.00378912 	1.94101e-05 	-0.000379211 	0.245725
0.0038975 	-5.25314e-06 	-0.000427096 	0.246618
0.0038975 	1.8884e-05 	-0.00037173 	0.244042
0.00400397 	-5.69037e-06 	-0.000418649 	0.244857
0.00400397 	1.83395e-05 	-0.000363781 	0.242307
0.00410857 	1.77767e-05 	-0.000355251 	0.240504
0.00410857 	-6.09789e-06 	-0.000409749 	0.243037
0.00421133 	-6.47574e-06 	-0.000400318 	0.241151
0.00421133 	1.71954e-05 	-0.00034604 	0.238622
0.00431227 	-6.82456e-06 	-0.000390273 	0.239192
0.00431227 	1.65945e-05 	-0.000336076 	0.236656
0.00441144 	-7.14546e-06 	-0.00037955 	0.237154
0.00441144 	1.5972e-05 	-0.000325322 	0.2346
0.00450886 	-7.43946e-06 	-0.000368118 	0.23503
0.00450886 	1.53261e-05 	-0.000313784 	0.232453
0.00460456 	-7.70719e-06 	-0.000355979 	0.232815
0.00460456 	1.46553e-05 	-0.000301503 	0.230209
0.00469858 	-7.94895e-06 	-0.000343148 	0.230504
0.00469858 	1.39583e-05 	-0.000288527 	0.227865
0.00479094 	-8.16493e-06 	-0.00032965 	0.228093
0.00479094 	1.32338e-05 	-0.000274911 	0.225418
0.00488168 	-8.35532e-06 	-0.000315514 	0.225578
0.00488168 	1.24807e-05 	-0.000260712 	0.222862
0.00497081 	-8.52037e-06 	-0.000300777 	0.222953
0.00497081 	1.16981e-05 	-0.000245994 	0.220194
0.00505838 	-8.66038e-06 	-0.000285492 	0.220216
0.00505838 	1.08854e-05 	-0.000230833 	0.21741
0.0051444 	-8.77566e-06 	-0.000269724 	0.217361
0.0051444 	1.00421e-05 	-0.000215315 	0.214506
0.00522891 	-8.86655e-06 	-0.000253556 	0.214386
0.00522891 	9.16827e-06 	-0.000199544 	0.21148
0.00531193 	-8.9334e-06 	-0.000237086 	0.211287
0.00531193 	8.2643e-06 	-0.000183641 	0.20833
0.00539348 	-8.97656e-06 	-0.000220427 	0.208061
0.00539348 	7.33114e-06 	-0.000167737 	0.205053
0.0054736 	-8.99638e-06 	-0.000203704 	0.204705
0.0054736 	6.37011e-06 	-0.000151976 	0.201647
0.00555231 	-8.9932e-06 	-0.000187048 	0.201216
0.00555231 	5.38289e-06 	-0.000136502 	0.198111
0.00562963 	-8.96738e-06 	-0.000170593 	0.197589
0.00562963 	4.37148e-06 	-0.000121457 	0.194442
0.00570559 	-8.91926e-06 	-0.000154472 	0.19382
0.00570559 	3.33818e-06 	-0.000106975 	0.190638
0.00578022 	-8.84918e-06 	-0.000138809 	0.189905
0.00578022 	2.28568e-06 	-9.31737e-05 	0.186693
0.00585352 	-8.75746e-06 	-0.000123719 	0.185837
0.00585352 	1.217e-06 	-8.01573e-05 	0.182605
0.00592554 	-8.64442e-06 	-0.000109304 	0.18161
0.00592554 	1.35639e-07 	-6.80089e-05 	0.178366
0.00599629 	-8.51033e-06 	-9.5653e-05 	0.177217
0.00599629 	-9.5443e-07 	-5.67913e-05 	0.173971
0.00606579 	-8.35539e-06 	-8.28383e-05 	0.172648
0.00606579 	-2.04863e-06 	-4.65475e-05 	0.169411
0.00613406 	-8.17967e-06 	-7.09218e-05 	0.167892
0.00613406 	-3.14187e-06 	-3.73019e-05 	0.164672
0.00620114 	-4.22866e-06 	-2.90618e-05 	0.15974
0.00620114 	-7.98319e-06 	-5.99511e-05 	0.162933
0.00626703 	-7.76614e-06 	-4.99628e-05 	0.157753
0.00626703 	-5.30263e-06 	-2.18246e-05 	0.154598
0.00633176 	-6.35577e-06 	-1.55776e-05 	0.149229
0.00633176 	-7.52899e-06 	-4.09855e-05 	0.152337
0.00639535 	-7.37835e-06 	-1.02918e-05 	0.14362
0.00639535 	-7.27233e-06 	-3.30304e-05 	0.146668
0.00645783 	-6.99671e-06 	-2.60883e-05 	0.140732
0.00645783 	-8.35902e-06 	-5.92143e-06 	0.137753
0.0065192 	-6.70276e-06 	-2.01344e-05 	0.134511
0.0065192 	-9.28466e-06 	-2.40842e-06 	0.131611
0.00657949 	-6.39127e-06 	-1.51308e-05 	0.127988
0.00657949 	-1.01402e-05 	3.14517e-07 	0.125178
0.00663871 	-6.06296e-06 	-1.10268e-05 	0.121148
0.00663871 	-1.09083e-05 	2.32096e-06 	0.118437
0.0066969 	-5.71828e-06 	-7.74508e-06 	0.113972
0.0066969 	-1.15699e-05 	3.69531e-06 	0.111366
0.00675406 	-1.2105e-05 	4.52645e-06 	0.103931
0.00675406 	-5.35736e-06 	-5.19421e-06 	0.106427
0.00681021 	-1.24915e-05 	4.90277e-06 	0.0961062
0.00681021 	-4.98118e-06 	-3.27597e-06 	0.0984823
0.00686537 	-1.27045e-05 	4.91275e-06 	0.0879091
0.00686537 	-4.59339e-06 	-1.89619e-06 	0.0901469
0.00691956 	-1.27191e-05 	4.64337e-06 	0.0794073
0.00691956 	-4.19975e-06 	-9.71747e-07 	0.0814864
0.0069728 	-1.2516e-05 	4.18163e-06 	0.0707184
0.0069728 	-3.80642e-06 	-4.10115e-07 	0.0726182
0.0070251 	-3.41941e-06 	-1.15424e-07 	0.0637099
0.0070251 	-1.20865e-05 	3.6092e-06 	0.0620068
0.00707647 	-3.04363e-06 	3.52296e-09 	0.0549599
0.00707647 	-1.1436e-05 	2.9967e-06 	0.0534637
0.00712695 	-2.68179e-06 	2.49994e-08 	0.0465629
0.00712695 	-1.05846e-05 	2.39952e-06 	0.0452746
0.00717653 	-2.33392e-06 	6.6953e-09 	0.0386724
0.00717653 	-9.56195e-06 	1.85462e-06 	0.0375847
0.00722524 	-1.99738e-06 	-1.5967e-08 	0.0313791
0.00722524 	-8.39999e-06 	1.38179e-06 	0.0304794
0.00727309 	-7.12709e-06 	9.87352e-07 	0.0239884
0.00727309 	-1.6668e-06 	-2.67454e-08 	0.0247141
0.0073201 	-5.76419e-06 	6.67612e-07 	0.0181035
0.0073201 	-1.33187e-06 	-2.37678e-08 	0.0186688
0.00736628 	-4.32105e-06 	4.21265e-07 	0.0127972
0.00736628 	-9.70413e-07 	-7.87609e-09 	0.0132142
0.00741165 	-5.79613e-07 	2.08248e-09 	0.00831367
0.00741165 	-2.82995e-06 	2.24625e-07 	0.00803423
0.00745622 	-2.28414e-07 	6.76506e-09 	0.00392819
0.00745622 	-1.37192e-06 	8.78283e-08 	0.00377667
0.0075 	0 	0 	0
0.0075 	0 	0 	0
