-0.0075 	0 	0 	0
-0.0075 	-3.06232e-33 	3.12473e-36 	-7.71654e-33
-0.00745622 	-0.0040248 	4.10684e-06 	-0.0101419
-0.00745622 	-0.0040248 	4.10684e-06 	-0.0101419
-0.00741165 	-0.00631566 	1.16514e-05 	-0.0203999
-0.00741165 	-0.00631566 	1.16514e-05 	-0.0203999
-0.00736628 	-0.00758906 	2.50618e-05 	-0.0307696
-0.00736628 	-0.00758906 	2.50618e-05 	-0.0307696
-0.0073201 	-0.00870635 	4.17841e-05 	-0.0411868
-0.0073201 	-0.00870635 	4.17841e-05 	-0.0411868
-0.00727309 	-0.00979594 	6.17033e-05 	-0.0515642
-0.00727309 	-0.00979594 	6.17033e-05 	-0.0515642
-0.00722524 	-0.0107485 	8.5033e-05 	-0.0618102
-0.00722524 	-0.0107485 	8.5033e-05 	-0.0618102
-0.00717653 	-0.0115375 	0.000111523 	-0.0718367
-0.00717653 	-0.0115375 	0.000111523 	-0.0718367
-0.00712695 	-0.0121649 	0.000140988 	-0.0815611
-0.00712695 	-0.0121649 	0.000140988 	-0.0815611
-0.00707647 	-0.0126431 	0.000173403 	-0.09091
-0.00707647 	-0.0126431 	0.000173403 	-0.09091
-0.0070251 	-0.0129904 	0.00020879 	-0.0998263
-0.0070251 	-0.0129904 	0.00020879 	-0.0998263
-0.0069728 	-0.0132284 	0.000246857 	-0.108278
-0.0069728 	-0.0132284 	0.000246857 	-0.108278
-0.00691956 	-0.0133782 	0.00028721 	-0.116261
-0.00691956 	-0.0133782 	0.00028721 	-0.116261
-0.00686537 	-0.0134585 	0.000329948 	-0.123801
-0.00686537 	-0.0134585 	0.000329948 	-0.123801
-0.00681021 	-0.0134838 	0.000375415 	-0.130936
-0.00681021 	-0.0134838 	0.000375415 	-0.130936
-0.00675406 	-0.0134637 	0.000423537 	-0.137697
-0.00675406 	-0.0134637 	0.000423537 	-0.137697
-0.0066969 	-0.0134056 	0.000473906 	-0.144111
-0.0066969 	-0.0134056 	0.000473906 	-0.144111
-0.00663871 	-0.0133165 	0.000526368 	-0.150202
-0.00663871 	-0.0133165 	0.000526368 	-0.150202
-0.00657949 	-0.0132024 	0.000580938 	-0.155993
-0.00657949 	-0.0132024 	0.000580938 	-0.155993
-0.0065192 	-0.0130683 	0.000637543 	-0.161504
-0.0065192 	-0.0130683 	0.000637543 	-0.161504
-0.00645783 	-0.0129179 	0.000696094 	-0.166754
-0.00645783 	-0.0129179 	0.000696094 	-0.166754
-0.00639535 	-0.0127541 	0.00075652 	-0.171758
-0.00639535 	-0.0127541 	0.00075652 	-0.171758
-0.00633176 	-0.0125788 	0.000818667 	-0.176531
-0.00633176 	-0.0125788 	0.000818667 	-0.176531
-0.00626703 	-0.0123937 	0.000882364 	-0.181087
-0.00626703 	-0.0123937 	0.000882364 	-0.181087
-0.00620114 	-0.0122003 	0.000947579 	-0.185435
-0.00620114 	-0.0122003 	0.000947579 	-0.185435
-0.00613406 	-0.0119998 	0.00101451 	-0.189589
-0.00613406 	-0.0119998 	0.00101451 	-0.189589
-0.00606579 	-0.011794 	0.00108351 	-0.193559
-0.00606579 	-0.011794 	0.00108351 	-0.193559
-0.00599629 	-0.0115859 	0.00115437 	-0.197357
-0.00599629 	-0.0115859 	0.00115437 	-0.197357
-0.00592554 	-0.0113778 	0.00122606 	-0.200993
-0.00592554 	-0.0113778 	0.00122606 	-0.200993
-0.00585352 	-0.01117 	0.00129803 	-0.20448
-0.00585352 	-0.01117 	0.00129803 	-0.20448
-0.00578022 	-0.0109612 	0.00137081 	-0.207828
-0.00578022 	-0.0109612 	0.00137081 	-0.207828
-0.00570559 	-0.0107483 	0.00144507 	-0.211044
-0.00570559 	-0.0107483 	0.00144507 	-0.211044
-0.00562963 	-0.0105286 	0.00152071 	-0.214134
-0.00562963 	-0.0105286 	0.00152071 	-0.214134
-0.00555231 	-0.0103003 	0.00159727 	-0.217103
-0.00555231 	-0.0103003 	0.00159727 	-0.217103
-0.0054736 	-0.0100626 	0.00167462 	-0.219958
-0.0054736 	-0.0100626 	0.00167462 	-0.219958
-0.00539348 	-0.00981471 	0.0017527 	-0.222701
-0.00539348 	-0.00981471 	0.0017527 	-0.222701
-0.00531193 	-0.00955583 	0.00183139 	-0.225337
-0.00531193 	-0.00955583 	0.00183139 	-0.225337
-0.00522891 	-0.00928548 	0.00191057 	-0.227871
-0.00522891 	-0.00928548 	0.00191057 	-0.227871
-0.0051444 	-0.00900335 	0.00199017 	-0.230309
-0.0051444 	-0.00900335 	0.00199017 	-0.230309
-0.00505838 	-0.00870921 	0.00207009 	-0.232657
-0.00505838 	-0.00870921 	0.00207009 	-0.232657
-0.00497081 	-0.00840293 	0.00215015 	-0.234923
-0.00497081 	-0.00840293 	0.00215015 	-0.234923
-0.00488168 	-0.00808434 	0.00223009 	-0.237112
-0.00488168 	-0.00808434 	0.00223009 	-0.237112
-0.00479094 	-0.0077533 	0.00230972 	-0.239228
-0.00479094 	-0.0077533 	0.00230972 	-0.239228
-0.00469858 	-0.00740981 	0.00238893 	-0.241276
-0.00469858 	-0.00740981 	0.00238893 	-0.241276
-0.00460456 	-0.00705429 	0.00246772 	-0.243259
-0.00460456 	-0.00705429 	0.00246772 	-0.243259
-0.00450886 	-0.00668787 	0.00254609 	-0.245181
-0.00450886 	-0.00668787 	0.00254609 	-0.245181
-0.00441144 	-0.0063124 	0.00262389 	-0.247046
-0.00441144 	-0.0063124 	0.00262389 	-0.247046
-0.00431227 	-0.0059301 	0.00270085 	-0.248854
-0.00431227 	-0.0059301 	0.00270085 	-0.248854
-0.00421133 	-0.00554307 	0.00277679 	-0.25061
-0.00421133 	-0.00554307 	0.00277679 	-0.25061
-0.00410857 	-0.00515321 	0.00285165 	-0.252315
-0.00410857 	-0.00515321 	0.00285165 	-0.252315
-0.00400397 	-0.00476278 	0.00292519 	-0.253974
-0.00400397 	-0.00476278 	0.00292519 	-0.253974
-0.0038975 	-0.00437466 	0.002997 	-0.255589
-0.0038975 	-0.00437466 	0.002997 	-0.255589
-0.00378912 	-0.00399176 	0.00306691 	-0.257166
-0.00378912 	-0.00399176 	0.00306691 	-0.257166
-0.00367879 	-0.00361627 	0.00313529 	-0.258708
-0.00367879 	-0.00361627 	0.00313529 	-0.258708
-0.00356649 	-0.00324885 	0.00320249 	-0.260217
-0.00356649 	-0.00324885 	0.00320249 	-0.260217
-0.00345217 	-0.00288873 	0.00326824 	-0.261696
-0.00345217 	-0.00288873 	0.00326824 	-0.261696
-0.0033358 	-0.00253487 	0.00333186 	-0.263144
-0.0033358 	-0.00253487 	0.00333186 	-0.263144
-0.00321735 	-0.00218679 	0.0033931 	-0.264563
-0.00321735 	-0.00218679 	0.0033931 	-0.264563
-0.00309677 	-0.0018445 	0.00345215 	-0.265953
-0.00309677 	-0.0018445 	0.00345215 	-0.265953
-0.00297403 	-0.00150806 	0.00350907 	-0.267313
-0.00297403 	-0.00150806 	0.00350907 	-0.267313
-0.00284909 	-0.00117724 	0.00356371 	-0.268644
-0.00284909 	-0.00117724 	0.00356371 	-0.268644
-0.0027219 	-0.000851594 	0.00361585 	-0.269943
-0.0027219 	-0.000851594 	0.00361585 	-0.269943
-0.00259244 	-0.00053049 	0.00366526 	-0.271211
-0.00259244 	-0.00053049 	0.00366526 	-0.271211
-0.00246065 	-0.000213236 	0.00371177 	-0.272444
-0.00246065 	-0.000213236 	0.00371177 	-0.272444
-0.00232651 	0.000100902 	0.00375529 	-0.273642
-0.00232651 	0.000100902 	0.00375529 	-0.273642
-0.00218995 	0.000412787 	0.00379576 	-0.274802
-0.00218995 	0.000412787 	0.00379576 	-0.274802
-0.00205095 	0.000723683 	0.00383307 	-0.275924
-0.00205095 	0.000723683 	0.00383307 	-0.275924
-0.00190946 	0.00103528 	0.00386694 	-0.277009
-0.00190946 	0.00103528 	0.00386694 	-0.277009
-0.00176543 	0.00134896 	0.00389686 	-0.278055
-0.00176543 	0.00134896 	0.00389686 	-0.278055
-0.00161881 	0.00166503 	0.00392223 	-0.279061
-0.00161881 	0.00166503 	0.00392223 	-0.279061
-0.00146957 	0.00198277 	0.0039424 	-0.280023
-0.00146957 	0.00198277 	0.0039424 	-0.280023
-0.00131765 	0.00230119 	0.00395686 	-0.280939
-0.00131765 	0.00230119 	0.00395686 	-0.280939
-0.001163 	0.00261958 	0.00396518 	-0.281808
-0.001163 	0.00261958 	0.00396518 	-0.281808
-0.00100559 	0.00293738 	0.00396691 	-0.282629
-0.00100559 	0.00293738 	0.00396691 	-0.282629
-0.000845345 	0.00325374 	0.00396263 	-0.283403
-0.000845345 	0.00325374 	0.00396263 	-0.283403
-0.000682232 	0.00356748 	0.00395201 	-0.28413
-0.000682232 	0.00356748 	0.00395201 	-0.28413
-0.000516194 	0.00387705 	0.00393093 	-0.284811
-0.000516194 	0.00387705 	0.00393093 	-0.284811
-0.000347178 	0.00417989 	0.00390157 	-0.285441
-0.000347178 	0.00417989 	0.00390157 	-0.285441
-0.000175132 	0.00446824 	0.0038596 	-0.28601
-0.000175132 	0.00446824 	0.0038596 	-0.28601
0 	0.00473369 	0.0038058 	-0.286492
0 	0.00473369 	0.0038058 	-0.286492
0 	0.00473369 	0.0038058 	-0.286492
0 	0.00473369 	0.0038058 	-0.286492
0.000175132 	0.00497127 	0.00374932 	-0.286858
0.000175132 	0.000795115 	0.00985553 	-0.328813
0.000347178 	0.00517591 	0.00368445 	-0.287082
0.000347178 	0.000830666 	0.00957035 	-0.327038
0.000516194 	0.00534672 	0.00361735 	-0.28716
0.000516194 	0.000855651 	0.00930155 	-0.32524
0.000682232 	0.00548359 	0.00355087 	-0.287116
0.000682232 	0.000862207 	0.00902807 	-0.323448
0.000845345 	0.00558449 	0.00348006 	-0.286983
0.000845345 	0.000842331 	0.0087472 	-0.321681
0.00100559 	0.00565028 	0.0034082 	-0.286774
0.00100559 	0.000791168 	0.00847555 	-0.319944
0.001163 	0.00568336 	0.00333466 	-0.286488
0.001163 	0.00071182 	0.00820625 	-0.31823
0.00131765 	0.00568566 	0.00325867 	-0.286124
0.00131765 	0.000608701 	0.00793031 	-0.316543
0.00146957 	0.00565835 	0.00318101 	-0.285686
0.00146957 	0.000480431 	0.00765125 	-0.314893
0.00161881 	0.00560252 	0.00310253 	-0.285175
0.00161881 	0.000323232 	0.00737413 	-0.31329
0.00176543 	0.00551974 	0.0030236 	-0.284591
0.00176543 	0.00013476 	0.00710038 	-0.311742
0.00190946 	0.005412 	0.00294448 	-0.283938
0.00190946 	-8.58766e-05 	0.00683072 	-0.310252
0.00205095 	0.00528157 	0.00286545 	-0.283216
0.00205095 	-0.000338554 	0.00656595 	-0.308821
0.00218995 	0.00513087 	0.00278677 	-0.282426
0.00218995 	-0.000622452 	0.006307 	-0.307449
0.00232651 	0.00496232 	0.00270869 	-0.281569
0.00232651 	-0.000936297 	0.00605457 	-0.306132
0.00246065 	0.00477834 	0.00263136 	-0.280647
0.00246065 	-0.0012786 	0.00580876 	-0.304866
0.00259244 	0.00458141 	0.00255482 	-0.279661
0.00259244 	-0.00164773 	0.00556927 	-0.303646
0.0027219 	0.00437388 	0.00247906 	-0.278613
0.0027219 	-0.00204179 	0.00533619 	-0.302469
0.00284909 	0.00415796 	0.00240418 	-0.277506
0.00284909 	-0.00245868 	0.00511019 	-0.301329
0.00297403 	0.00393552 	0.00233027 	-0.276342
0.00297403 	-0.00289631 	0.00489173 	-0.300217
0.00309677 	0.00370816 	0.00225725 	-0.275122
0.00309677 	-0.0033526 	0.00468044 	-0.299123
0.00321735 	0.00347727 	0.0021851 	-0.273849
0.00321735 	-0.00382534 	0.00447564 	-0.298041
0.0033358 	0.00324453 	0.00211388 	-0.272525
0.0033358 	-0.00431202 	0.00427702 	-0.296964
0.00345217 	0.00301223 	0.00204367 	-0.27115
0.00345217 	-0.00480981 	0.00408455 	-0.295888
0.00356649 	0.00278336 	0.00197452 	-0.269725
0.00356649 	-0.0053157 	0.00389827 	-0.294807
0.00367879 	0.00256112 	0.00190643 	-0.268251
0.00367879 	-0.00582682 	0.00371803 	-0.293719
0.00378912 	-0.00634058 	0.00354358 	-0.29262
0.00378912 	0.00234807 	0.0018392 	-0.266727
0.0038975 	0.00214519 	0.00177259 	-0.265152
0.0038975 	-0.00685463 	0.0033745 	-0.291505
0.00400397 	0.00195196 	0.00170667 	-0.263524
0.00400397 	-0.0073668 	0.00321022 	-0.29037
0.00410857 	0.00176715 	0.00164168 	-0.26184
0.00410857 	-0.00787486 	0.00305043 	-0.289208
0.00421133 	0.00158977 	0.00157764 	-0.260099
0.00421133 	-0.00837645 	0.00289486 	-0.288012
0.00431227 	0.00141945 	0.00151449 	-0.2583
0.00431227 	-0.00886909 	0.00274332 	-0.286774
0.00441144 	0.00125612 	0.0014522 	-0.25644
0.00441144 	-0.00935045 	0.00259569 	-0.285488
0.00450886 	0.0010998 	0.0013907 	-0.254518
0.00450886 	-0.00981848 	0.00245176 	-0.284149
0.00460456 	0.000950417 	0.00133005 	-0.252531
0.00460456 	-0.0102715 	0.00231107 	-0.282754
0.00469858 	0.000807913 	0.00127031 	-0.250477
0.00469858 	-0.0107078 	0.00217308 	-0.2813
0.00479094 	0.000672426 	0.00121151 	-0.248349
0.00479094 	-0.0111256 	0.00203797 	-0.279785
0.00488168 	0.000544222 	0.00115373 	-0.246142
0.00488168 	-0.0115237 	0.00190667 	-0.2782
0.00497081 	0.000423385 	0.00109697 	-0.243855
0.00497081 	-0.0119019 	0.00177976 	-0.276537
0.00505838 	0.000309666 	0.00104124 	-0.241482
0.00505838 	-0.0122612 	0.00165666 	-0.274782
0.0051444 	0.000202682 	0.000986524 	-0.239021
0.0051444 	-0.0126023 	0.00153626 	-0.272925
0.00522891 	0.000102206 	0.000932754 	-0.236467
0.00522891 	-0.0129253 	0.00141804 	-0.270958
0.00531193 	-0.0132284 	0.00130229 	-0.268878
0.00531193 	8.26504e-06 	0.000879956 	-0.233815
0.00539348 	-7.89635e-05 	0.000828196 	-0.231058
0.00539348 	-0.0135085 	0.00118937 	-0.266678
0.0054736 	-0.000159267 	0.000777544 	-0.228188
0.0054736 	-0.0137624 	0.00107936 	-0.264353
0.00555231 	-0.00023239 	0.000728106 	-0.225198
0.00555231 	-0.0139866 	0.000972263 	-0.261897
0.00562963 	-0.000298029 	0.000679943 	-0.222079
0.00562963 	-0.0141778 	0.000868162 	-0.259303
0.00570559 	-0.000355867 	0.000633069 	-0.218822
0.00570559 	-0.0143327 	0.000767134 	-0.256562
0.00578022 	-0.000405595 	0.000587524 	-0.215418
0.00578022 	-0.0144482 	0.000669279 	-0.253662
0.00585352 	-0.000446918 	0.000543364 	-0.211855
0.00585352 	-0.014521 	0.000574722 	-0.250593
0.00592554 	-0.000479557 	0.000500646 	-0.208121
0.00592554 	-0.0145478 	0.00048362 	-0.247339
0.00599629 	-0.000503246 	0.000459432 	-0.204202
0.00599629 	-0.0145254 	0.000396169 	-0.243885
0.00606579 	-0.0144506 	0.000312539 	-0.240213
0.00606579 	-0.000517715 	0.000419774 	-0.200082
0.00613406 	-0.000522682 	0.000381713 	-0.195744
0.00613406 	-0.01432 	0.000232879 	-0.236302
0.00620114 	-0.000517896 	0.00034531 	-0.191167
0.00620114 	-0.0141299 	0.000157454 	-0.232128
0.00626703 	-0.000503186 	0.000310648 	-0.186328
0.00626703 	-0.0138769 	8.6571e-05 	-0.227662
0.00633176 	-0.000478476 	0.000277806 	-0.181202
0.00633176 	-0.0135576 	2.04881e-05 	-0.222867
0.00639535 	-0.000443794 	0.000246835 	-0.175764
0.00639535 	-0.0131685 	-4.04932e-05 	-0.217704
0.00645783 	-0.000399313 	0.000217756 	-0.169986
0.00645783 	-0.012707 	-9.60196e-05 	-0.212128
0.0065192 	-0.000345426 	0.000190609 	-0.163841
0.0065192 	-0.0121716 	-0.000145716 	-0.206093
0.00657949 	-0.000282821 	0.000165458 	-0.157299
0.00657949 	-0.0115623 	-0.000189271 	-0.199547
0.00663871 	-0.00021241 	0.000142338 	-0.150332
0.00663871 	-0.0108804 	-0.000226681 	-0.192433
0.0066969 	-0.000134793 	0.000121198 	-0.142915
0.0066969 	-0.0101264 	-0.000257986 	-0.184696
0.00675406 	-5.04663e-05 	0.000101988 	-0.135015
0.00675406 	-0.00929877 	-0.000282403 	-0.17628
0.00681021 	3.86932e-05 	8.47919e-05 	-0.126591
0.00681021 	-0.00839943 	-0.000298489 	-0.167096
0.00686537 	0.000128536 	6.96894e-05 	-0.117611
0.00686537 	-0.0074376 	-0.000305815 	-0.157002
0.00691956 	0.00021231 	5.65432e-05 	-0.108092
0.00691956 	-0.00643649 	-0.000305459 	-0.145884
0.0069728 	0.00028113 	4.51482e-05 	-0.0981151
0.0069728 	-0.00543622 	-0.000298521 	-0.133724
0.0070251 	0.000326008 	3.53757e-05 	-0.0878254
0.0070251 	-0.00448445 	-0.000285629 	-0.120637
0.00707647 	0.000340132 	2.70976e-05 	-0.0774216
0.00707647 	-0.00362581 	-0.000267633 	-0.106887
0.00712695 	0.000321203 	2.01567e-05 	-0.0671243
0.00712695 	-0.00289151 	-0.000245645 	-0.0928721
0.00717653 	0.000273627 	1.44116e-05 	-0.0571299
0.00717653 	-0.00228634 	-0.00022053 	-0.0790232
0.00722524 	0.00020936 	9.79953e-06 	-0.0475708
0.00722524 	-0.00177962 	-0.000192004 	-0.0656872
0.00727309 	0.000147917 	6.20366e-06 	-0.0385047
0.00727309 	-0.00130194 	-0.000161073 	-0.0530533
0.0073201 	0.000118163 	3.53038e-06 	-0.0299328
0.0073201 	-0.000739062 	-0.000131213 	-0.0411703
0.00736628 	0.000165084 	1.9686e-06 	-0.0218271
0.00736628 	9.22703e-05 	-8.67538e-05 	-0.0300119
0.00741165 	0.00026446 	9.45234e-07 	-0.014158
0.00741165 	0.000993443 	-5.60356e-05 	-0.0195042
0.00745622 	0.000251321 	2.3457e-07 	-0.00690355
0.00745622 	0.00111724 	-2.7698e-05 	-0.00952822
0.0075 	0 	0 	0
0.0075 	0 	0 	0
