0 	0 	0 	0
0 	0 	0 	0
0.00752508 	0.00476772 	0.00379771 	-0.286545
0.00752508 	0.00476772 	0.00379771 	-0.286545
0.00757525 	0.00483578 	0.00378153 	-0.28665
0.00762542 	0.00490383 	0.00376535 	-0.286754
0.00762542 	0.00490383 	0.00376535 	-0.286754
0.00767559 	0.00497181 	0.00374914 	-0.286859
0.00772575 	0.00503148 	0.00373023 	-0.286924
0.00777592 	0.00509115 	0.00371132 	-0.286989
0.00782609 	0.00515082 	0.0036924 	-0.287054
0.00782609 	0.00515082 	0.0036924 	-0.287054
0.00787625 	0.00520529 	0.00367291 	-0.287095
0.00792642 	0.00525599 	0.00365299 	-0.287118
0.00797659 	0.00530669 	0.00363307 	-0.287142
0.00802676 	0.00535543 	0.00361312 	-0.287157
0.00802676 	0.00535543 	0.00361312 	-0.287157
0.00807692 	0.00539678 	0.00359304 	-0.287144
0.00812709 	0.00543813 	0.00357295 	-0.287131
0.00812709 	0.00543813 	0.00357295 	-0.287131
0.00817726 	0.00547948 	0.00355287 	-0.287117
0.00822742 	0.00551154 	0.00353125 	-0.287079
0.00822742 	0.00551154 	0.00353125 	-0.287079
0.00827759 	0.00554257 	0.00350947 	-0.287038
0.00832776 	0.00557361 	0.00348769 	-0.286997
0.00832776 	0.00557361 	0.00348769 	-0.286997
0.00837793 	0.00559786 	0.00346545 	-0.286941
0.00842809 	0.00561846 	0.00344295 	-0.286875
0.00842809 	0.00561846 	0.00344295 	-0.286875
0.00847826 	0.00563906 	0.00342046 	-0.28681
0.00847826 	0.00563906 	0.00342046 	-0.28681
0.00852843 	0.00565508 	0.00339753 	-0.286732
0.00852843 	0.00565508 	0.00339753 	-0.286732
0.0085786 	0.00566562 	0.00337409 	-0.286641
0.0085786 	0.00566562 	0.00337409 	-0.286641
0.00862876 	0.00567616 	0.00335065 	-0.28655
0.00867893 	0.00568359 	0.00332683 	-0.28645
0.00867893 	0.00568359 	0.00332683 	-0.28645
0.0087291 	0.00568434 	0.00330218 	-0.286332
0.00877926 	0.00568509 	0.00327753 	-0.286215
0.00877926 	0.00568509 	0.00327753 	-0.286215
0.00882943 	0.00568354 	0.00325265 	-0.28609
0.0088796 	0.00567452 	0.003227 	-0.285946
0.0088796 	0.00567452 	0.003227 	-0.285946
0.00897993 	0.00565447 	0.00317556 	-0.285651
0.00897993 	0.00565447 	0.00317556 	-0.285651
0.0090301 	0.0056357 	0.00314918 	-0.285479
0.00908027 	0.00561693 	0.0031228 	-0.285307
0.00908027 	0.00561693 	0.0031228 	-0.285307
0.00913043 	0.00559595 	0.00309627 	-0.285128
0.0091806 	0.00556763 	0.00306926 	-0.284929
0.0091806 	0.00556763 	0.00306926 	-0.284929
0.00923077 	0.0055393 	0.00304225 	-0.284729
0.00928094 	0.00550813 	0.00301508 	-0.284521
0.00928094 	0.00550813 	0.00301508 	-0.284521
0.0093311 	0.00547061 	0.00298752 	-0.284293
0.00938127 	0.00543308 	0.00295996 	-0.284066
0.00938127 	0.00543308 	0.00295996 	-0.284066
0.00943144 	0.00539174 	0.0029322 	-0.283826
0.00943144 	0.00539174 	0.0029322 	-0.283826
0.00948161 	0.00534549 	0.00290418 	-0.28357
0.00948161 	0.00534549 	0.00290418 	-0.28357
0.00953177 	0.00529925 	0.00287616 	-0.283314
0.00953177 	0.00529925 	0.00287616 	-0.283314
0.00958194 	0.00524798 	0.00284791 	-0.28304
0.00958194 	0.00524798 	0.00284791 	-0.28304
0.00963211 	0.00519359 	0.00281951 	-0.282755
0.00963211 	0.00519359 	0.00281951 	-0.282755
0.00968227 	0.0051392 	0.00279112 	-0.282469
0.00968227 	0.0051392 	0.00279112 	-0.282469
0.00973244 	0.00507843 	0.00276248 	-0.282159
0.00978261 	0.0050165 	0.00273379 	-0.281845
0.00983278 	0.00495372 	0.00270507 	-0.281526
0.00988294 	0.00488492 	0.00267615 	-0.281181
0.00988294 	0.00488492 	0.00267615 	-0.281181
0.00993311 	0.00481612 	0.00264724 	-0.280836
0.00998328 	0.00474454 	0.00261822 	-0.280478
0.00998328 	0.00474454 	0.00261822 	-0.280478
0.0100334 	0.00466957 	0.00258908 	-0.280102
0.0100334 	0.00466957 	0.00258908 	-0.280102
0.0100836 	0.0045946 	0.00255994 	-0.279727
0.0101338 	0.00451514 	0.00253062 	-0.279327
0.0101338 	0.00451514 	0.00253062 	-0.279327
0.0102341 	0.00435315 	0.00247187 	-0.278507
0.0102341 	0.00435315 	0.00247187 	-0.278507
0.0102843 	0.00426798 	0.00244233 	-0.27807
0.0103344 	0.00418281 	0.0024128 	-0.277634
0.0103344 	0.00418281 	0.0024128 	-0.277634
0.0103846 	0.0040947 	0.00238316 	-0.277175
0.0103846 	0.0040947 	0.00238316 	-0.277175
0.0104348 	0.00400539 	0.00235348 	-0.276707
0.0104849 	0.00391529 	0.00232377 	-0.276233
0.0104849 	0.00391529 	0.00232377 	-0.276233
0.0105351 	0.00382236 	0.00229393 	-0.275735
0.0105853 	0.00372943 	0.00226408 	-0.275236
0.0105853 	0.00372943 	0.00226408 	-0.275236
0.0106355 	0.00363409 	0.0022341 	-0.274714
0.0106856 	0.00353803 	0.00220408 	-0.274184
0.0106856 	0.00353803 	0.00220408 	-0.274184
0.0107358 	0.00344104 	0.00217401 	-0.273643
0.0107358 	0.00344104 	0.00217401 	-0.273643
0.010786 	0.00334247 	0.00214385 	-0.273082
0.010786 	0.00334247 	0.00214385 	-0.273082
0.0108361 	0.00324389 	0.00211369 	-0.272521
0.0108361 	0.00324389 	0.00211369 	-0.272521
0.0108863 	0.00314375 	0.00208342 	-0.271929
0.0109365 	0.0030436 	0.00205315 	-0.271336
0.0109365 	0.0030436 	0.00205315 	-0.271336
0.0109866 	0.00294326 	0.00202283 	-0.270721
0.0109866 	0.00294326 	0.00202283 	-0.270721
0.0110368 	0.00284282 	0.00199248 	-0.270095
0.011087 	0.00274285 	0.00196211 	-0.269457
0.011087 	0.00274285 	0.00196211 	-0.269457
0.0111371 	0.00264358 	0.00193169 	-0.268798
0.0111873 	0.00254471 	0.00190125 	-0.268134
0.0111873 	0.00254471 	0.00190125 	-0.268134
0.0112375 	0.00244783 	0.00187068 	-0.267441
0.0112876 	0.00235095 	0.00184011 	-0.266748
0.0112876 	0.00235095 	0.00184011 	-0.266748
0.0113378 	0.00225696 	0.00180929 	-0.26602
0.011388 	0.00216305 	0.00177845 	-0.265291
0.011388 	0.00216305 	0.00177845 	-0.265291
0.0114883 	0.00198041 	0.00171638 	-0.263763
0.0114883 	0.00198041 	0.00171638 	-0.263763
0.0115385 	0.00189102 	0.00168525 	-0.262969
0.0115886 	0.00180238 	0.00165408 	-0.262161
0.0115886 	0.00180238 	0.00165408 	-0.262161
0.0116388 	0.00171498 	0.00162285 	-0.261328
0.011689 	0.00162838 	0.00159158 	-0.260478
0.011689 	0.00162838 	0.00159158 	-0.260478
0.0117391 	0.00154286 	0.00156025 	-0.259604
0.0117893 	0.00145821 	0.00152886 	-0.258709
0.0117893 	0.00145821 	0.00152886 	-0.258709
0.0118395 	0.00137466 	0.00149741 	-0.25779
0.0118896 	0.00129204 	0.00146589 	-0.256849
0.0118896 	0.00129204 	0.00146589 	-0.256849
0.0119398 	0.00121062 	0.00143429 	-0.25588
0.0119398 	0.00121062 	0.00143429 	-0.25588
0.01199 	0.00113012 	0.00140262 	-0.254891
0.01199 	0.00113012 	0.00140262 	-0.254891
0.0120401 	0.00105098 	0.00137088 	-0.253869
0.0120401 	0.00105098 	0.00137088 	-0.253869
0.0120903 	0.000972677 	0.00133909 	-0.252827
0.0120903 	0.000972677 	0.00133909 	-0.252827
0.0121405 	0.000895993 	0.00130724 	-0.251747
0.0121405 	0.000895993 	0.00130724 	-0.251747
0.0121906 	0.000819954 	0.00127536 	-0.25065
0.0121906 	0.000819954 	0.00127536 	-0.25065
0.0122408 	0.000745975 	0.00124343 	-0.249504
0.0122408 	0.000745975 	0.00124343 	-0.249504
0.012291 	0.000672385 	0.00121149 	-0.248348
0.012291 	0.000672385 	0.00121149 	-0.248348
0.0123411 	0.000601501 	0.00117954 	-0.247128
0.0123411 	0.000601501 	0.00117954 	-0.247128
0.0123913 	0.000531169 	0.0011476 	-0.245895
0.0123913 	0.000531169 	0.0011476 	-0.245895
0.0124415 	0.00046316 	0.00111566 	-0.244608
0.0124916 	0.000396337 	0.00108372 	-0.24329
0.0124916 	0.000396337 	0.00108372 	-0.24329
0.012592 	0.000267884 	0.00101987 	-0.240521
0.012592 	0.000267884 	0.00101987 	-0.240521
0.0126421 	0.000205493 	0.000987961 	-0.239086
0.0126923 	0.000145722 	0.000956042 	-0.237573
0.0126923 	0.000145722 	0.000956042 	-0.237573
0.0127425 	8.68542e-05 	0.000924126 	-0.236033
0.0127425 	8.68542e-05 	0.000924126 	-0.236033
0.0127926 	3.00874e-05 	0.000892221 	-0.234431
0.0128428 	-2.47645e-05 	0.000860357 	-0.232771
0.0128428 	-2.47645e-05 	0.000860357 	-0.232771
0.012893 	-7.84206e-05 	0.000828518 	-0.231075
0.0129431 	-0.000128737 	0.000796801 	-0.229279
0.0129431 	-0.000128737 	0.000796801 	-0.229279
0.0129933 	-0.000177576 	0.000765166 	-0.227439
0.0130435 	-0.000224183 	0.000733655 	-0.225533
0.0130435 	-0.000224183 	0.000733655 	-0.225533
0.0130936 	-0.000267478 	0.00070236 	-0.223531
0.0131438 	-0.000308825 	0.000671194 	-0.221471
0.0131438 	-0.000308825 	0.000671194 	-0.221471
0.013194 	-0.000347023 	0.000640237 	-0.21932
0.0132441 	-0.000381558 	0.000609539 	-0.217063
0.0132441 	-0.000381558 	0.000609539 	-0.217063
0.0132943 	-0.000413541 	0.000579032 	-0.214733
0.0133445 	-0.00044182 	0.000548811 	-0.212295
0.0133445 	-0.00044182 	0.000548811 	-0.212295
0.0133946 	-0.000465556 	0.000518969 	-0.209723
0.0134448 	-0.000486011 	0.000489416 	-0.207053
0.0134448 	-0.000486011 	0.000489416 	-0.207053
0.013495 	-0.00050281 	0.000460191 	-0.204274
0.0135452 	-0.000513419 	0.00043155 	-0.201306
0.0135452 	-0.000513419 	0.00043155 	-0.201306
0.0136455 	-0.000521867 	0.000375515 	-0.194965
0.0136455 	-0.000521867 	0.000375515 	-0.194965
0.0136957 	-0.000518287 	0.000348288 	-0.191541
0.0137458 	-0.000507922 	0.000321806 	-0.187886
0.0137458 	-0.000507922 	0.000321806 	-0.187886
0.013796 	-0.000492133 	0.000295957 	-0.184035
0.0138462 	-0.000470627 	0.000270797 	-0.179971
0.0138462 	-0.000470627 	0.000270797 	-0.179971
0.0138963 	-0.000443105 	0.000246385 	-0.175674
0.0138963 	-0.000443105 	0.000246385 	-0.175674
0.0139465 	-0.000407385 	0.000223033 	-0.171035
0.0139967 	-0.000365217 	0.00020058 	-0.166098
0.0139967 	-0.000365217 	0.00020058 	-0.166098
0.0140468 	-0.000316738 	0.000179084 	-0.160843
0.0140468 	-0.000316738 	0.000179084 	-0.160843
0.014097 	-0.000262011 	0.000158625 	-0.15524
0.0141472 	-0.000201145 	0.00013927 	-0.149256
0.0141973 	-0.000134161 	0.000121055 	-0.142855
0.0141973 	-0.000134161 	0.000121055 	-0.142855
0.0142475 	-6.01501e-05 	0.000104194 	-0.135922
0.0142977 	1.87677e-05 	8.86349e-05 	-0.128473
0.0143478 	9.99612e-05 	7.44928e-05 	-0.120467
0.0143478 	9.99612e-05 	7.44928e-05 	-0.120467
0.014398 	0.000178967 	6.17755e-05 	-0.11188
0.014398 	0.000178967 	6.17755e-05 	-0.11188
0.0144482 	0.000249279 	5.04218e-05 	-0.102732
0.0144983 	0.000303037 	4.03778e-05 	-0.0930923
0.0144983 	0.000303037 	4.03778e-05 	-0.0930923
0.0145485 	0.00033244 	3.16058e-05 	-0.0830875
0.0145987 	0.000331811 	2.40464e-05 	-0.072895
0.0145987 	0.000331811 	2.40464e-05 	-0.072895
0.0146488 	0.000300207 	1.76213e-05 	-0.0627136
0.014699 	0.000243986 	1.22844e-05 	-0.0527211
0.014699 	0.000243986 	1.22844e-05 	-0.0527211
0.0147492 	0.000178642 	8.00179e-06 	-0.0430382
0.0147993 	0.000131309 	4.71152e-06 	-0.0337201
0.0147993 	0.000131309 	4.71152e-06 	-0.0337201
0.0148495 	0.000148031 	2.5362e-06 	-0.024773
0.0148495 	0.000148031 	2.5362e-06 	-0.024773
0.0148997 	0.00023821 	1.21555e-06 	-0.0161837
0.0148997 	0.00023821 	1.21555e-06 	-0.0161837
0.0149498 	0.000253203 	3.36372e-07 	-0.00794274
0.0149498 	0.000253203 	3.36372e-07 	-0.00794274
0.015 	0 	0 	0
