0 	0 	0 	0
0 	0 	0 	0
0.00752508 	-0.000743903 	0.00129565 	-0.276403
0.00752508 	-0.000743903 	0.00129565 	-0.276403
0.00757525 	-0.000786553 	0.00131179 	-0.276383
0.00762542 	-0.000829203 	0.00132794 	-0.276364
0.00762542 	-0.000829203 	0.00132794 	-0.276364
0.00767559 	-0.000871845 	0.00134408 	-0.276343
0.00772575 	-0.000913629 	0.00136003 	-0.27629
0.00777592 	-0.000955414 	0.00137598 	-0.276236
0.00782609 	-0.000997198 	0.00139192 	-0.276183
0.00782609 	-0.000997198 	0.00139192 	-0.276183
0.00787625 	-0.0010382 	0.00140585 	-0.27611
0.00792642 	-0.00107863 	0.00141832 	-0.276025
0.00797659 	-0.00111907 	0.00143078 	-0.275939
0.00802676 	-0.0011591 	0.00144264 	-0.275846
0.00802676 	-0.0011591 	0.00144264 	-0.275846
0.00807692 	-0.00119764 	0.00145218 	-0.275729
0.00812709 	-0.00123619 	0.00146173 	-0.275611
0.00812709 	-0.00123619 	0.00146173 	-0.275611
0.00817726 	-0.00127473 	0.00147127 	-0.275494
0.00822742 	-0.00131136 	0.0014815 	-0.275347
0.00822742 	-0.00131136 	0.0014815 	-0.275347
0.00827759 	-0.00134778 	0.0014918 	-0.275198
0.00832776 	-0.00138421 	0.00150211 	-0.275048
0.00832776 	-0.00138421 	0.00150211 	-0.275048
0.00837793 	-0.00141937 	0.00151185 	-0.274877
0.00842809 	-0.00145385 	0.00152128 	-0.274695
0.00842809 	-0.00145385 	0.00152128 	-0.274695
0.00847826 	-0.00148833 	0.00153071 	-0.274513
0.00847826 	-0.00148833 	0.00153071 	-0.274513
0.00852843 	-0.00152208 	0.00153969 	-0.274315
0.00852843 	-0.00152208 	0.00153969 	-0.274315
0.0085786 	-0.00155495 	0.00154814 	-0.2741
0.0085786 	-0.00155495 	0.00154814 	-0.2741
0.00862876 	-0.00158782 	0.0015566 	-0.273885
0.00867893 	-0.00162027 	0.00156468 	-0.27366
0.00867893 	-0.00162027 	0.00156468 	-0.27366
0.0087291 	-0.00165181 	0.00157195 	-0.273413
0.00877926 	-0.00168335 	0.00157923 	-0.273166
0.00877926 	-0.00168335 	0.00157923 	-0.273166
0.00882943 	-0.00171462 	0.00158615 	-0.272911
0.0088796 	-0.00174503 	0.00159194 	-0.272633
0.0088796 	-0.00174503 	0.00159194 	-0.272633
0.00897993 	-0.00180566 	0.00160316 	-0.27207
0.00897993 	-0.00180566 	0.00160316 	-0.27207
0.0090301 	-0.00183511 	0.00160726 	-0.271763
0.00908027 	-0.00186456 	0.00161136 	-0.271456
0.00908027 	-0.00186456 	0.00161136 	-0.271456
0.00913043 	-0.00189382 	0.00161506 	-0.271142
0.0091806 	-0.00192245 	0.00161746 	-0.270808
0.0091806 	-0.00192245 	0.00161746 	-0.270808
0.00923077 	-0.00195108 	0.00161985 	-0.270474
0.00928094 	-0.00197951 	0.00162175 	-0.270132
0.00928094 	-0.00197951 	0.00162175 	-0.270132
0.0093311 	-0.00200747 	0.00162255 	-0.269774
0.00938127 	-0.00203543 	0.00162336 	-0.269415
0.00938127 	-0.00203543 	0.00162336 	-0.269415
0.00943144 	-0.00206316 	0.00162354 	-0.269046
0.00943144 	-0.00206316 	0.00162354 	-0.269046
0.00948161 	-0.00209057 	0.00162292 	-0.268663
0.00948161 	-0.00209057 	0.00162292 	-0.268663
0.00953177 	-0.00211798 	0.0016223 	-0.268281
0.00953177 	-0.00211798 	0.0016223 	-0.268281
0.00958194 	-0.0021451 	0.00162088 	-0.267884
0.00958194 	-0.0021451 	0.00162088 	-0.267884
0.00963211 	-0.00217205 	0.00161897 	-0.267479
0.00963211 	-0.00217205 	0.00161897 	-0.267479
0.00968227 	-0.00219899 	0.00161706 	-0.267073
0.00968227 	-0.00219899 	0.00161706 	-0.267073
0.00973244 	-0.00222556 	0.00161413 	-0.266648
0.00978261 	-0.00225206 	0.00161102 	-0.26622
0.00983278 	-0.0022785 	0.00160776 	-0.265789
0.00988294 	-0.00230453 	0.00160347 	-0.265337
0.00988294 	-0.00230453 	0.00160347 	-0.265337
0.00993311 	-0.00233057 	0.00159918 	-0.264886
0.00998328 	-0.00235635 	0.0015944 	-0.264423
0.00998328 	-0.00235635 	0.0015944 	-0.264423
0.0100334 	-0.00238183 	0.00158899 	-0.263948
0.0100334 	-0.00238183 	0.00158899 	-0.263948
0.0100836 	-0.00240731 	0.00158359 	-0.263474
0.0101338 	-0.00243223 	0.0015773 	-0.262979
0.0101338 	-0.00243223 	0.0015773 	-0.262979
0.0102341 	-0.0024816 	0.00156409 	-0.261975
0.0102341 	-0.0024816 	0.00156409 	-0.261975
0.0102843 	-0.00250551 	0.00155659 	-0.261452
0.0103344 	-0.00252943 	0.00154909 	-0.260929
0.0103344 	-0.00252943 	0.00154909 	-0.260929
0.0103846 	-0.00255255 	0.001541 	-0.260388
0.0103846 	-0.00255255 	0.001541 	-0.260388
0.0104348 	-0.00257536 	0.00153266 	-0.25984
0.0104849 	-0.00259786 	0.00152414 	-0.259286
0.0104849 	-0.00259786 	0.00152414 	-0.259286
0.0105351 	-0.00261928 	0.00151493 	-0.258711
0.0105853 	-0.0026407 	0.00150572 	-0.258137
0.0105853 	-0.0026407 	0.00150572 	-0.258137
0.0106355 	-0.00266079 	0.00149563 	-0.257541
0.0106856 	-0.00268048 	0.00148528 	-0.256939
0.0106856 	-0.00268048 	0.00148528 	-0.256939
0.0107358 	-0.00269938 	0.00147447 	-0.256325
0.0107358 	-0.00269938 	0.00147447 	-0.256325
0.010786 	-0.00271691 	0.00146287 	-0.255693
0.010786 	-0.00271691 	0.00146287 	-0.255693
0.0108361 	-0.00273443 	0.00145127 	-0.25506
0.0108361 	-0.00273443 	0.00145127 	-0.25506
0.0108863 	-0.0027494 	0.00143865 	-0.254394
0.0109365 	-0.00276437 	0.00142603 	-0.253728
0.0109365 	-0.00276437 	0.00142603 	-0.253728
0.0109866 	-0.00277738 	0.00141297 	-0.25304
0.0109866 	-0.00277738 	0.00141297 	-0.25304
0.0110368 	-0.00278949 	0.00139972 	-0.252342
0.011087 	-0.00280034 	0.00138623 	-0.25163
0.011087 	-0.00280034 	0.00138623 	-0.25163
0.0111371 	-0.00280936 	0.00137241 	-0.250899
0.0111873 	-0.00281783 	0.00135846 	-0.250162
0.0111873 	-0.00281783 	0.00135846 	-0.250162
0.0112375 	-0.00282358 	0.00134389 	-0.249398
0.0112876 	-0.00282932 	0.00132933 	-0.248634
0.0112876 	-0.00282932 	0.00132933 	-0.248634
0.0113378 	-0.00283183 	0.0013141 	-0.247839
0.011388 	-0.00283423 	0.00129886 	-0.247043
0.011388 	-0.00283423 	0.00129886 	-0.247043
0.0114883 	-0.00283289 	0.00126638 	-0.245389
0.0114883 	-0.00283289 	0.00126638 	-0.245389
0.0115385 	-0.00282931 	0.00124926 	-0.244531
0.0115886 	-0.00282456 	0.00123179 	-0.24366
0.0115886 	-0.00282456 	0.00123179 	-0.24366
0.0116388 	-0.00281713 	0.00121448 	-0.242752
0.011689 	-0.00280793 	0.00119728 	-0.241819
0.011689 	-0.00280793 	0.00119728 	-0.241819
0.0117391 	-0.0027962 	0.0011803 	-0.240839
0.0117893 	-0.00278243 	0.0011635 	-0.239819
0.0117893 	-0.00278243 	0.0011635 	-0.239819
0.0118395 	-0.00276688 	0.00114654 	-0.238755
0.0118896 	-0.00274982 	0.00112946 	-0.237652
0.0118896 	-0.00274982 	0.00112946 	-0.237652
0.0119398 	-0.00273187 	0.00111151 	-0.236534
0.0119398 	-0.00273187 	0.00111151 	-0.236534
0.01199 	-0.00271324 	0.00109289 	-0.235405
0.01199 	-0.00271324 	0.00109289 	-0.235405
0.0120401 	-0.00269383 	0.00107256 	-0.234292
0.0120401 	-0.00269383 	0.00107256 	-0.234292
0.0120903 	-0.00267395 	0.00105119 	-0.23319
0.0120903 	-0.00267395 	0.00105119 	-0.23319
0.0121405 	-0.0026522 	0.00102902 	-0.232097
0.0121405 	-0.0026522 	0.00102902 	-0.232097
0.0121906 	-0.00262971 	0.00100652 	-0.231008
0.0121906 	-0.00262971 	0.00100652 	-0.231008
0.0122408 	-0.00260401 	0.000984171 	-0.229894
0.0122408 	-0.00260401 	0.000984171 	-0.229894
0.012291 	-0.0025777 	0.000961849 	-0.228774
0.012291 	-0.0025777 	0.000961849 	-0.228774
0.0123411 	-0.00254764 	0.000939417 	-0.227596
0.0123411 	-0.00254764 	0.000939417 	-0.227596
0.0123913 	-0.00251699 	0.000916937 	-0.226405
0.0123913 	-0.00251699 	0.000916937 	-0.226405
0.0124415 	-0.0024839 	0.000894255 	-0.225163
0.0124916 	-0.0024498 	0.000871442 	-0.223897
0.0124916 	-0.0024498 	0.000871442 	-0.223897
0.012592 	-0.00237732 	0.000825145 	-0.221255
0.012592 	-0.00237732 	0.000825145 	-0.221255
0.0126421 	-0.00233965 	0.000801698 	-0.219894
0.0126923 	-0.00230002 	0.000777572 	-0.21847
0.0126923 	-0.00230002 	0.000777572 	-0.21847
0.0127425 	-0.0022598 	0.000753041 	-0.217023
0.0127425 	-0.0022598 	0.000753041 	-0.217023
0.0127926 	-0.00221827 	0.000727505 	-0.215522
0.0128428 	-0.00217592 	0.000701357 	-0.213972
0.0128428 	-0.00217592 	0.000701357 	-0.213972
0.012893 	-0.00213305 	0.000674826 	-0.21239
0.0129431 	-0.00208953 	0.000648962 	-0.210719
0.0129431 	-0.00208953 	0.000648962 	-0.210719
0.0129933 	-0.0020459 	0.000623475 	-0.209008
0.0130435 	-0.00200213 	0.000598562 	-0.207237
0.0130435 	-0.00200213 	0.000598562 	-0.207237
0.0130936 	-0.0019581 	0.000574301 	-0.205374
0.0131438 	-0.00191378 	0.000550261 	-0.203455
0.0131438 	-0.00191378 	0.000550261 	-0.203455
0.013194 	-0.00186883 	0.000526428 	-0.201444
0.0132441 	-0.00182269 	0.000502066 	-0.199319
0.0132441 	-0.00182269 	0.000502066 	-0.199319
0.0132943 	-0.00177563 	0.000477492 	-0.197115
0.0133445 	-0.00172713 	0.000452785 	-0.194793
0.0133445 	-0.00172713 	0.000452785 	-0.194793
0.0133946 	-0.00167682 	0.000428193 	-0.192329
0.0134448 	-0.00162513 	0.000403765 	-0.189764
0.0134448 	-0.00162513 	0.000403765 	-0.189764
0.013495 	-0.00157188 	0.000379558 	-0.187087
0.0135452 	-0.0015155 	0.000356869 	-0.184219
0.0135452 	-0.0015155 	0.000356869 	-0.184219
0.0136455 	-0.00139402 	0.000314871 	-0.178073
0.0136455 	-0.00139402 	0.000314871 	-0.178073
0.0136957 	-0.00132685 	0.000295097 	-0.174741
0.0137458 	-0.00125284 	0.000275117 	-0.171172
0.0137458 	-0.00125284 	0.000275117 	-0.171172
0.013796 	-0.00117323 	0.000254883 	-0.167407
0.0138462 	-0.00108791 	0.000234617 	-0.163429
0.0138462 	-0.00108791 	0.000234617 	-0.163429
0.0138963 	-0.000996931 	0.000214704 	-0.159223
0.0138963 	-0.000996931 	0.000214704 	-0.159223
0.0139465 	-0.000899443 	0.000195908 	-0.154687
0.0139967 	-0.000797865 	0.000177903 	-0.149874
0.0139967 	-0.000797865 	0.000177903 	-0.149874
0.0140468 	-0.000692999 	0.000160755 	-0.144769
0.0140468 	-0.000692999 	0.000160755 	-0.144769
0.014097 	-0.00058551 	0.000144637 	-0.13935
0.0141472 	-0.000476042 	0.000129612 	-0.133593
0.0141973 	-0.000365211 	0.000115214 	-0.127471
0.0141973 	-0.000365211 	0.000115214 	-0.127471
0.0142475 	-0.00025505 	0.000100835 	-0.120889
0.0142977 	-0.000148789 	8.71825e-05 	-0.113887
0.0143478 	-4.95814e-05 	7.53388e-05 	-0.106458
0.0143478 	-4.95814e-05 	7.53388e-05 	-0.106458
0.014398 	3.96138e-05 	6.55134e-05 	-0.0986068
0.014398 	3.96138e-05 	6.55134e-05 	-0.0986068
0.0144482 	0.00011705 	5.67407e-05 	-0.0903674
0.0144983 	0.000182357 	4.80028e-05 	-0.0818072
0.0144983 	0.000182357 	4.80028e-05 	-0.0818072
0.0145485 	0.000235655 	3.91901e-05 	-0.0730283
0.0145987 	0.000276767 	3.063e-05 	-0.0641572
0.0145987 	0.000276767 	3.063e-05 	-0.0641572
0.0146488 	0.000305253 	2.24207e-05 	-0.0553256
0.014699 	0.000320571 	1.47255e-05 	-0.0466468
0.014699 	0.000320571 	1.47255e-05 	-0.0466468
0.0147492 	0.000322228 	7.84233e-06 	-0.0381994
0.0147993 	0.00030985 	2.00329e-06 	-0.0300264
0.0147993 	0.00030985 	2.00329e-06 	-0.0300264
0.0148495 	0.000282659 	-1.77887e-06 	-0.0221425
0.0148495 	0.000282659 	-1.77887e-06 	-0.0221425
0.0148997 	0.000230062 	-3.2561e-06 	-0.0145442
0.0148997 	0.000230062 	-3.2561e-06 	-0.0145442
0.0149498 	0.000131986 	-2.57575e-06 	-0.00720751
0.0149498 	0.000131986 	-2.57575e-06 	-0.00720751
0.015 	0 	0 	0
