/*--------------------------------*- C++ -*----------------------------------*\
| =========                 |                                                 |
| \\      /  F ield         | OpenFOAM: The Open Source CFD Toolbox           |
|  \\    /   O peration     | Version:  v1912                                 |
|   \\  /    A nd           | Website:  www.openfoam.com                      |
|    \\/     M anipulation  |                                                 |
\*---------------------------------------------------------------------------*/
FoamFile
{
    version     2.0;
    format      ascii;
    class       volScalarField;
    location    "199.2";
    object      alphat;
}
// * * * * * * * * * * * * * * * * * * * * * * * * * * * * * * * * * * * * * //

dimensions      [1 -1 -1 0 0 0 0];


internalField   nonuniform List<scalar> 
10077
(
1.16253e-08
6.10065e-09
1.94586e-09
5.29254e-09
5.16418e-09
6.10248e-09
6.28037e-09
6.52661e-09
6.50284e-09
6.5152e-09
6.25226e-09
6.06256e-09
5.11902e-09
5.25342e-09
1.93109e-09
6.06425e-09
1.96638e-08
1.3848e-08
1.71654e-08
1.96701e-08
1.93106e-08
2.01767e-08
2.04327e-08
2.0901e-08
2.08287e-08
2.08719e-08
2.03969e-08
2.01484e-08
1.92793e-08
1.96445e-08
1.71918e-08
1.38353e-08
2.35322e-07
1.74006e-07
3.10886e-07
3.07449e-07
3.02057e-07
3.03822e-07
3.05946e-07
3.11209e-07
3.10138e-07
3.10825e-07
3.05711e-07
3.03937e-07
3.02197e-07
3.07602e-07
3.11668e-07
1.74358e-07
1.86962e-06
1.21672e-06
2.25397e-06
2.23318e-06
2.19212e-06
2.20147e-06
2.21592e-06
2.25317e-06
2.24531e-06
2.25047e-06
2.21443e-06
2.2026e-06
2.19345e-06
2.23456e-06
2.25975e-06
1.21938e-06
8.9812e-06
5.12569e-06
9.60627e-06
9.64769e-06
9.46193e-06
9.51354e-06
9.57604e-06
9.73775e-06
9.70323e-06
9.72633e-06
9.56979e-06
9.51853e-06
9.46758e-06
9.65359e-06
9.63053e-06
5.13657e-06
3.12587e-05
1.56845e-05
2.92629e-05
3.00811e-05
2.94746e-05
2.97347e-05
2.99413e-05
3.04633e-05
3.03531e-05
3.04276e-05
2.99203e-05
2.97476e-05
2.94883e-05
3.0096e-05
2.93332e-05
1.57149e-05
8.6744e-05
3.83207e-05
6.98254e-05
7.43182e-05
7.27393e-05
7.38309e-05
7.44075e-05
7.57931e-05
7.55109e-05
7.57014e-05
7.4345e-05
7.38467e-05
7.27522e-05
7.43362e-05
6.99787e-05
3.83836e-05
0.000200833
7.84382e-05
0.000137054
0.000152455
0.000149005
0.00015256
0.00015395
0.000157092
0.000156485
0.000156891
0.000153786
0.00015254
0.000148969
0.000152435
0.00013732
7.85357e-05
0.000396658
0.000138534
0.000229244
0.000267455
0.000260948
0.000269862
0.000272734
0.000278874
0.000277754
0.000278493
0.000272365
0.000269716
0.000260759
0.000267305
0.000229631
0.000138647
0.000680736
0.000216505
0.000337499
0.000412128
0.000401321
0.000419143
0.000424236
0.000434695
0.000432882
0.000434064
0.000423538
0.000418744
0.000400852
0.000411725
0.000337997
0.000216595
0.00103876
0.00030575
0.000425651
0.000573137
0.000556939
0.000586899
0.000594833
0.0006107
0.000608054
0.000609764
0.000593691
0.000586128
0.000556077
0.00057237
0.00042613
0.000305576
0.00144613
0.000373768
0.000499021
0.000710438
0.000684798
0.000743288
0.000756966
0.000783608
0.000779462
0.000782084
0.000754831
0.000741468
0.00068298
0.000708763
0.000499587
0.000373574
0.00187981
0.000444573
0.000569255
0.000815197
0.000785014
0.000852898
0.000868462
0.000899008
0.000894229
0.000897289
0.000866012
0.000850815
0.000782951
0.000813286
0.000569917
0.000444374
0.00232343
0.000519505
0.000636679
0.000914625
0.000880476
0.000955914
0.000972944
0.00100658
0.00100127
0.00100472
0.000970259
0.000953654
0.000878246
0.000912555
0.000637436
0.000519309
0.00264344
0.000599117
0.000701335
0.00101115
0.000973126
0.00105624
0.00107473
0.00111142
0.00110559
0.00110944
0.00107182
0.00105381
0.000970743
0.00100894
0.000702189
0.000598931
0.00294358
0.000684246
0.000763695
0.00110555
0.00106365
0.00115472
0.00117468
0.00121442
0.00120806
0.00121235
0.00117155
0.00115212
0.00106113
0.0011032
0.000764647
0.000684081
0.00325664
0.000776111
0.000824682
0.0012001
0.00115411
0.00125363
0.00127494
0.00131775
0.0013108
0.00131559
0.00127162
0.00125088
0.00115144
0.00119761
0.000825733
0.000775975
0.00360512
0.000876376
0.000885642
0.00129938
0.00124857
0.00135793
0.00138033
0.00142631
0.00141867
0.00142408
0.00137688
0.00135504
0.00124573
0.00129674
0.000886795
0.000876276
0.00400441
0.000987091
0.000948218
0.00140978
0.00135262
0.00147502
0.00149807
0.00154763
0.00153907
0.00154531
0.00149454
0.00147194
0.00134954
0.00140691
0.000949474
0.000987027
0.00446839
0.00111057
0.00101418
0.00153783
0.00147226
0.00161267
0.0016355
0.00168834
0.00167872
0.00168593
0.00163202
0.00160932
0.00146879
0.0015346
0.00101554
0.00111052
0.00498974
0.00124911
0.00108529
0.00168603
0.00161229
0.00177174
0.00179085
0.0018385
0.00182929
0.0018363
0.00178807
0.00176812
0.00160839
0.00168242
0.00108676
0.00124907
0.00552991
0.00140485
0.00116326
0.00183031
0.0017681
0.00190759
0.0019254
0.0019768
0.00196649
0.00197441
0.00192263
0.00190458
0.00176487
0.00182734
0.00116484
0.00140477
0.00605774
0.00157967
0.00124977
0.00195741
0.0018938
0.00204142
0.0020597
0.00211637
0.0021047
0.00211368
0.00205688
0.00203842
0.00189045
0.00195442
0.00125145
0.00157951
0.0065573
0.00177373
0.00134642
0.00207981
0.002016
0.00217004
0.00218821
0.00224913
0.00223632
0.00224611
0.00218552
0.00216714
0.00201264
0.00207694
0.00134821
0.00177353
0.00702406
0.00197577
0.00145476
0.00219444
0.00213498
0.00228589
0.00230261
0.00236554
0.00235194
0.00236222
0.00230031
0.00228339
0.00213202
0.00219206
0.00145666
0.00197607
0.0074615
0.00216376
0.00157625
0.00229764
0.00224764
0.00238428
0.00239796
0.00246021
0.00244621
0.00245666
0.00239634
0.00238252
0.00224553
0.00229617
0.00157826
0.00216435
0.0078754
0.0023645
0.00171225
0.0023878
0.00235229
0.002464
0.00247309
0.00253194
0.00251797
0.00252833
0.00247244
0.00246331
0.00235149
0.00238762
0.00171436
0.00236535
0.00827084
0.00258491
0.00186371
0.00246546
0.00244915
0.00252659
0.00252985
0.00258275
0.00256925
0.00257928
0.00253039
0.00252728
0.0024501
0.00246692
0.00186592
0.00258603
0.00865028
0.00282753
0.00202897
0.0025349
0.00254021
0.00257604
0.00257257
0.00261728
0.00260468
0.00261417
0.0025745
0.00257833
0.00254327
0.00253817
0.00203125
0.00282891
0.00901403
0.00309388
0.00219143
0.00260436
0.00263049
0.00262096
0.0026102
0.00264433
0.00263308
0.00264177
0.00261359
0.00262499
0.00263576
0.00260944
0.00219369
0.00309556
0.00936193
0.00338509
0.00236486
0.00268001
0.00272703
0.00267293
0.00265488
0.00267669
0.00266716
0.00267484
0.00265973
0.00267874
0.0027344
0.00268686
0.00236724
0.00338705
0.00970164
0.00370151
0.00255608
0.00276389
0.00283449
0.00273955
0.00271513
0.00272447
0.00271684
0.00272342
0.00272139
0.00274712
0.0028438
0.00277242
0.00255859
0.00370372
0.0100681
0.00404292
0.0027673
0.00285721
0.0029549
0.00282453
0.00279535
0.0027929
0.0027873
0.00279271
0.00280292
0.00283376
0.002966
0.00286736
0.00276991
0.0040453
0.0105212
0.00440824
0.00299977
0.00296217
0.00309029
0.00293029
0.00289827
0.00288518
0.00288174
0.00288588
0.00290706
0.00294109
0.003103
0.00297384
0.00300242
0.00441071
0.0111187
0.00479572
0.00325477
0.00308234
0.00324367
0.00305981
0.00302672
0.00300399
0.00300286
0.00300557
0.00303665
0.0030721
0.00325777
0.00309545
0.0032574
0.00479813
0.0118779
0.00520222
0.00353345
0.00322222
0.00341895
0.00321771
0.00318533
0.00315373
0.00315514
0.00315618
0.00319635
0.00323136
0.00343419
0.00323663
0.00353599
0.00520438
0.012708
0.0056231
0.00383389
0.00338711
0.00362098
0.0034099
0.00338052
0.00334111
0.00334529
0.00334439
0.00339248
0.00342473
0.00363712
0.00340265
0.00383627
0.00562476
0.0130205
0.00605274
0.00413914
0.0035837
0.00385657
0.00364327
0.0036199
0.00357464
0.00358178
0.00357871
0.00363257
0.00365899
0.00387345
0.00360013
0.00414116
0.00605366
0.0131083
0.00647795
0.00437712
0.00382003
0.00413576
0.00392571
0.0039118
0.00386344
0.0038736
0.00386819
0.00392488
0.00394201
0.00415344
0.00383713
0.00437818
0.00647798
0.0131635
0.00688631
0.00461765
0.00410455
0.00447051
0.00426381
0.00426297
0.00421461
0.00422782
0.00421987
0.00427614
0.00428038
0.00448899
0.00412226
0.00461838
0.0068855
0.0131931
0.00728664
0.00486443
0.00443694
0.00485409
0.00465335
0.00466918
0.00462511
0.00464154
0.00463072
0.00468188
0.0046697
0.00487333
0.00445532
0.00486478
0.00728509
0.0132043
0.00767201
0.00511743
0.00475826
0.00521037
0.00502261
0.00505497
0.00503365
0.00505029
0.00503901
0.00506564
0.00503699
0.00523196
0.00477772
0.00511738
0.00767011
0.0132045
0.00805153
0.0053767
0.00503274
0.00550956
0.00533421
0.00537714
0.00535739
0.00537627
0.00536268
0.00538749
0.0053481
0.00553041
0.00505185
0.00537622
0.00804894
0.0132014
0.00843722
0.00564229
0.00532866
0.00582566
0.00566892
0.00572248
0.00570291
0.00572454
0.00570814
0.00573247
0.00568233
0.0058454
0.00534713
0.00564137
0.00843381
0.0132022
0.00882889
0.00591424
0.00564189
0.00615444
0.0060219
0.00608618
0.00606925
0.00609306
0.00607431
0.00609567
0.00603465
0.00617282
0.00565955
0.00591286
0.00882453
0.0132148
0.00922641
0.00619249
0.00596837
0.00649171
0.00638714
0.00646176
0.00644922
0.00647469
0.00645405
0.00647068
0.00639919
0.00650856
0.00598495
0.00619066
0.00922089
0.013246
0.00962723
0.00647681
0.00630369
0.0068334
0.00675971
0.00684387
0.00683659
0.0068633
0.00684117
0.00685221
0.0067711
0.00684863
0.00631899
0.00647453
0.00962097
0.0133019
0.0100288
0.00676675
0.00664365
0.00717592
0.00713633
0.00722988
0.00722828
0.00725605
0.00723266
0.00723771
0.00714697
0.00718958
0.00665756
0.00676405
0.010022
0.0133896
0.0104296
0.00706165
0.00698425
0.00751816
0.00751477
0.00761825
0.00762403
0.0076526
0.00762815
0.00762553
0.00752463
0.00753036
0.00699675
0.00705855
0.0104226
0.0135138
0.010829
0.00736164
0.00732367
0.00785952
0.00789346
0.00800656
0.00802084
0.00804988
0.00802466
0.00801328
0.00790247
0.00787034
0.00733481
0.00735815
0.0108217
0.0136772
0.0112262
0.00766781
0.00766135
0.00819757
0.00826931
0.00839156
0.0084151
0.0084443
0.00841859
0.00839773
0.00827748
0.00820709
0.00767122
0.00766392
0.0112188
0.0138812
0.0116209
0.00798022
0.00799527
0.00853001
0.00863987
0.00877059
0.00880386
0.00883297
0.00880702
0.00877624
0.00864723
0.00853835
0.00800394
0.00797596
0.0116134
0.0141254
0.0120128
0.008298
0.00832306
0.00885471
0.00900305
0.0091414
0.00918477
0.0092135
0.00918761
0.00914659
0.00900965
0.008862
0.00833061
0.00829342
0.0120053
0.0144088
0.0124022
0.00862024
0.00864244
0.00916963
0.00935697
0.00950191
0.00955585
0.00958385
0.00955838
0.00950674
0.00936289
0.00917604
0.00864902
0.00861537
0.0123947
0.01473
0.0127894
0.00894603
0.00895573
0.0094774
0.00970001
0.00985027
0.00991529
0.00994214
0.00991754
0.00985484
0.00970536
0.009483
0.00896135
0.00894092
0.0127819
0.0150859
0.0131739
0.00927448
0.00926419
0.0097793
0.0100307
0.010187
0.0102615
0.0102874
0.0102635
0.0101913
0.0100357
0.00978418
0.00926892
0.00926918
0.0131664
0.0154689
0.0135547
0.00960474
0.00956825
0.0100758
0.0103511
0.0105139
0.0105961
0.0106218
0.0105979
0.0105178
0.0103556
0.01008
0.00957218
0.00959931
0.0135472
0.0157576
0.0139304
0.009936
0.00986798
0.010367
0.0106625
0.0108316
0.0109203
0.010946
0.0109219
0.010835
0.0106665
0.0103707
0.00987119
0.00993049
0.0139229
0.0162011
0.0142998
0.0102674
0.0101632
0.0106528
0.0109652
0.01114
0.0112344
0.0112603
0.0112358
0.0111431
0.0109688
0.010656
0.0101658
0.0102619
0.0142923
0.0167245
0.0146615
0.0105983
0.0104535
0.0109328
0.0112593
0.0114391
0.0115382
0.0115645
0.0115395
0.0114419
0.0112626
0.0109357
0.0104556
0.0105928
0.0146541
0.0171534
0.0150139
0.0109278
0.0107384
0.0112064
0.0115442
0.0117282
0.0118315
0.011858
0.0118326
0.0117308
0.0115473
0.011209
0.01074
0.0109224
0.0150066
0.0175763
0.0153555
0.0112551
0.0110174
0.0114729
0.0118192
0.0120065
0.012113
0.0121398
0.012114
0.0120088
0.011822
0.0114753
0.0110187
0.01125
0.0153483
0.0179851
0.0156844
0.0115796
0.0112908
0.011732
0.0120836
0.0122729
0.0123816
0.0124087
0.0123823
0.012275
0.0120862
0.0117343
0.0112919
0.0115748
0.0156773
0.0183729
0.0159988
0.0119004
0.0115589
0.0119839
0.0123371
0.012527
0.0126357
0.0126636
0.0126363
0.0125289
0.0123396
0.0119862
0.01156
0.0118961
0.0159919
0.0187337
0.0162965
0.0122167
0.0118227
0.0122293
0.01258
0.0127687
0.0128757
0.012904
0.0128762
0.0127705
0.0125824
0.0122317
0.0118239
0.0122129
0.0162898
0.0190626
0.0165755
0.0125277
0.0120833
0.0124691
0.0128125
0.0129978
0.0131019
0.0131303
0.0131023
0.0129996
0.0128149
0.0124718
0.0120848
0.0125245
0.0165689
0.0193555
0.016833
0.0128322
0.0123417
0.0127045
0.0130348
0.0132147
0.0133147
0.0133429
0.0133152
0.0132164
0.0130374
0.0127077
0.0123438
0.0128297
0.0168266
0.0196091
0.0170664
0.013129
0.0125982
0.0129361
0.0132475
0.0134198
0.0135147
0.0135422
0.0135152
0.0134217
0.0132503
0.0129398
0.0126009
0.0131273
0.0170604
0.0198208
0.017273
0.0134167
0.0128518
0.013163
0.013451
0.0136136
0.0137022
0.0137286
0.0137027
0.0136156
0.0134542
0.0131672
0.0128553
0.0134159
0.0172672
0.0199886
0.0174497
0.0136939
0.0131001
0.0133829
0.0136455
0.0137961
0.0138772
0.0139022
0.0138778
0.0137984
0.0136492
0.0133878
0.0131044
0.0136938
0.0174443
0.0201108
0.0175939
0.0139574
0.0133419
0.0135958
0.013831
0.0139674
0.0140396
0.0140628
0.0140404
0.01397
0.0138352
0.0136013
0.0133471
0.0139586
0.0175888
0.0201858
0.0177028
0.0142039
0.0135763
0.0138011
0.0140072
0.0141273
0.0141894
0.0142104
0.0141903
0.0141303
0.0140119
0.0138074
0.0135826
0.0142063
0.0176982
0.0202118
0.017774
0.0144317
0.0138023
0.0139982
0.0141736
0.0142755
0.0143263
0.0143447
0.0143274
0.0142789
0.014179
0.0140054
0.0138097
0.0144354
0.0177698
0.0201864
0.0178054
0.0146391
0.0140184
0.0141861
0.0143296
0.0144117
0.01445
0.0144655
0.0144513
0.0144154
0.0143356
0.0141942
0.014027
0.0146441
0.0178018
0.0201059
0.0177955
0.0148242
0.0142227
0.0143636
0.0144744
0.0145351
0.01456
0.0145723
0.0145616
0.0145392
0.014481
0.0143726
0.0142325
0.0148306
0.0177926
0.0199671
0.0177433
0.0149856
0.0144133
0.014529
0.0146067
0.014645
0.0146559
0.0146647
0.0146577
0.0146496
0.0146141
0.0145389
0.0144243
0.0149934
0.0177412
0.0197691
0.0176479
0.0151217
0.0145879
0.0146805
0.0147254
0.0147406
0.014737
0.0147422
0.0147391
0.0147457
0.0147334
0.0146914
0.0146002
0.015131
0.0176466
0.0195136
0.0175082
0.0152317
0.0147443
0.0148165
0.0148291
0.0148211
0.0148029
0.0148043
0.0148052
0.0148266
0.0148378
0.0148283
0.0147579
0.0152424
0.0175077
9.88043e-09
7.12824e-09
5.38829e-09
4.99912e-09
5.22582e-09
5.31099e-09
5.36507e-09
5.39883e-09
5.40623e-09
5.40474e-09
5.3787e-09
5.33142e-09
5.24772e-09
5.0182e-09
5.40632e-09
7.14513e-09
7.4935e-08
2.24233e-08
2.20431e-08
2.61298e-08
2.63079e-08
2.82356e-08
2.88698e-08
2.96051e-08
2.95613e-08
2.95946e-08
2.88522e-08
2.82412e-08
2.62969e-08
2.61222e-08
2.20906e-08
2.24336e-08
1.28623e-06
3.23548e-07
3.51858e-07
4.38682e-07
4.37353e-07
4.73622e-07
4.84929e-07
4.98676e-07
4.97639e-07
4.98367e-07
4.84344e-07
4.7338e-07
4.36761e-07
4.38203e-07
3.52504e-07
3.23479e-07
8.92718e-06
2.27519e-06
2.53436e-06
3.15876e-06
3.13924e-06
3.39602e-06
3.47428e-06
3.57105e-06
3.56318e-06
3.56874e-06
3.46989e-06
3.394e-06
3.13471e-06
3.15506e-06
2.53888e-06
2.27463e-06
3.6461e-05
9.50717e-06
1.07713e-05
1.34173e-05
1.32975e-05
1.43681e-05
1.4687e-05
1.50877e-05
1.5053e-05
1.50776e-05
1.46677e-05
1.43584e-05
1.32773e-05
1.34007e-05
1.07898e-05
9.50467e-06
0.000107197
2.86793e-05
3.28692e-05
4.10485e-05
4.05779e-05
4.38152e-05
4.4756e-05
4.59571e-05
4.58477e-05
4.5925e-05
4.4694e-05
4.37806e-05
4.05112e-05
4.09934e-05
3.29224e-05
2.86705e-05
0.00024998
6.9027e-05
7.9551e-05
9.99206e-05
9.85377e-05
0.000106393
0.000108613
0.000111491
0.000111219
0.000111409
0.000108452
0.000106292
9.83597e-05
9.97728e-05
7.96689e-05
6.9e-05
0.000487936
0.000139872
0.000161171
0.000204153
0.000200852
0.000216876
0.000221284
0.000227086
0.00022652
0.000226909
0.000220929
0.000216629
0.00020045
0.000203817
0.000161383
0.000139801
0.000828199
0.000246584
0.000282795
0.000361767
0.000355096
0.000383605
0.000391237
0.000401423
0.000400408
0.00040109
0.000390557
0.000383086
0.000354313
0.000361111
0.000283119
0.000246426
0.0012607
0.000387674
0.000441172
0.000570197
0.000558454
0.000603863
0.000615731
0.000631752
0.000630134
0.000631194
0.000614571
0.000602915
0.000557106
0.000569066
0.000441604
0.000387374
0.00176402
0.00055526
0.000626509
0.000817206
0.000798728
0.000864937
0.000881926
0.000905045
0.000902696
0.000904195
0.000880132
0.000863395
0.000796642
0.000815455
0.000627039
0.000554765
0.00231246
0.000739186
0.000826949
0.00108569
0.00105907
0.00114905
0.00117186
0.00120305
0.00119988
0.00120186
0.0011693
0.00114677
0.00105611
0.00108321
0.000827565
0.000738485
0.00288121
0.00092981
0.00103158
0.00135855
0.00132283
0.00143836
0.00146746
0.00150736
0.00150332
0.00150578
0.00146403
0.00143524
0.00131895
0.00135526
0.00103228
0.0009289
0.00344943
0.00111975
0.00123255
0.00162582
0.00158034
0.00172007
0.00175519
0.0018034
0.00179857
0.00180144
0.00175089
0.00171612
0.00157553
0.00162171
0.00123333
0.00111865
0.00400186
0.00128849
0.00140239
0.00188056
0.00182487
0.00198805
0.00202908
0.0020854
0.00207981
0.00208305
0.0020239
0.00198328
0.00181916
0.00187565
0.00140314
0.00128663
0.00452826
0.00143476
0.00154334
0.00211961
0.0020534
0.00223878
0.00228546
0.00234949
0.00234321
0.00234679
0.00227942
0.00223323
0.00204683
0.00211395
0.00154418
0.00143279
0.00502258
0.00157401
0.00167474
0.0023425
0.00226548
0.00247162
0.00252357
0.00259483
0.0025879
0.00259181
0.00251673
0.00246534
0.0022581
0.00233613
0.0016757
0.00157211
0.00548187
0.00171068
0.00180203
0.00254671
0.00243726
0.00268771
0.00274448
0.00282243
0.00281489
0.00281911
0.00273688
0.00268075
0.00242695
0.00253763
0.00180313
0.00170891
0.00590517
0.00184735
0.00192822
0.00268346
0.0025637
0.00286197
0.00293227
0.0030342
0.00302575
0.00303063
0.00292207
0.00285197
0.00255282
0.00267387
0.00192947
0.00184578
0.00629254
0.00198661
0.00205619
0.00280604
0.00268157
0.00298712
0.00305881
0.00316726
0.00315621
0.00316204
0.00304826
0.00297666
0.00267074
0.00279659
0.00205759
0.00198528
0.00664436
0.00213124
0.00218885
0.00292699
0.00279907
0.00310183
0.00317163
0.00327953
0.0032678
0.00327403
0.00316133
0.00309157
0.00278848
0.00291772
0.00219042
0.00213019
0.00696095
0.00228362
0.00232854
0.00305156
0.0029188
0.00321835
0.0032856
0.00339163
0.00337967
0.0033862
0.00327563
0.00320842
0.00290834
0.00304244
0.00233027
0.00228287
0.00725814
0.00244307
0.0024738
0.00318111
0.00304231
0.00333997
0.00340472
0.00350913
0.00349696
0.00350382
0.00339505
0.0033303
0.00303189
0.00317208
0.0024757
0.00244272
0.00755537
0.00260141
0.00262531
0.00331628
0.00317038
0.0034676
0.00353002
0.00363334
0.00362088
0.00362811
0.00352059
0.00345811
0.00315994
0.00330731
0.00262741
0.0026015
0.00785272
0.00276469
0.00278729
0.0034582
0.00330411
0.0036021
0.00366231
0.00376497
0.00375213
0.00375977
0.00365307
0.00359273
0.0032936
0.00344922
0.00278963
0.00276528
0.00815043
0.00293489
0.00296207
0.00360886
0.00344529
0.0037453
0.0038033
0.00390551
0.00389224
0.0039003
0.00379421
0.00373598
0.00343465
0.00359984
0.00296466
0.00293605
0.00844873
0.00311323
0.00315115
0.00377108
0.00359639
0.00389969
0.00395538
0.00405709
0.00404336
0.00405187
0.00394641
0.00389036
0.00358555
0.00376194
0.00315402
0.00311501
0.00874783
0.00330085
0.00335538
0.0039467
0.00375951
0.00406558
0.00411838
0.004219
0.00420486
0.00421377
0.00410957
0.00405629
0.0037484
0.00393741
0.00335856
0.0033033
0.00904784
0.00349883
0.003575
0.00413359
0.0039339
0.00423685
0.004285
0.00438255
0.00436819
0.00437735
0.00427659
0.00422786
0.00392262
0.00412429
0.00357849
0.00350198
0.00934854
0.00370803
0.00380979
0.0043258
0.00411541
0.00440298
0.00444352
0.00453436
0.00452015
0.00452929
0.00443595
0.00439479
0.00410427
0.00431684
0.00381361
0.0037119
0.00964915
0.00392911
0.00405943
0.00451695
0.00429884
0.00455502
0.00458448
0.00466415
0.00465054
0.00465939
0.00457822
0.00454822
0.00428831
0.00450879
0.00406358
0.0039337
0.00994683
0.0041624
0.00432338
0.00470278
0.00448025
0.0046887
0.00470394
0.00476829
0.00475571
0.00476404
0.00469942
0.00468385
0.00447088
0.00469592
0.00432785
0.00416766
0.0102338
0.00440776
0.00460068
0.00488194
0.00465806
0.00480495
0.00480383
0.00484976
0.00483855
0.00484619
0.00480134
0.00480244
0.00465037
0.00487686
0.00460544
0.00441364
0.0104988
0.00466456
0.00488979
0.0050558
0.00483315
0.00491005
0.00489239
0.00491837
0.00490885
0.00491565
0.004892
0.00491005
0.00482758
0.00505286
0.0048948
0.00467095
0.0107309
0.00493173
0.00518851
0.00522841
0.00500895
0.00501617
0.00498348
0.00498985
0.00498219
0.00498806
0.00498504
0.00501859
0.00500569
0.00522776
0.0051937
0.00493849
0.0109254
0.0052079
0.00549397
0.00540721
0.00519178
0.00513571
0.00508981
0.00507818
0.0050723
0.00507732
0.00509309
0.00514028
0.00519078
0.00540874
0.00549925
0.00521486
0.011078
0.0054915
0.00580271
0.0056005
0.0053887
0.00527677
0.0052194
0.00519169
0.00518745
0.0051917
0.00522415
0.00528316
0.00538978
0.00560392
0.00580798
0.00549848
0.0111775
0.00578089
0.00611126
0.00581419
0.00560519
0.00544501
0.00537786
0.00533609
0.0053333
0.00533688
0.0053838
0.00545288
0.00560809
0.00581918
0.00611643
0.00578776
0.011215
0.00607422
0.00641761
0.00605196
0.00584482
0.00564394
0.00556873
0.00551512
0.00551355
0.0055166
0.00557558
0.00565293
0.00584927
0.00605822
0.00642261
0.00608096
0.011192
0.00636849
0.00672229
0.00631478
0.00610863
0.00587479
0.00579345
0.00573063
0.00572999
0.00573269
0.00580089
0.00588449
0.00611435
0.00632199
0.0067271
0.00637524
0.0111139
0.00665222
0.00702769
0.00660032
0.00639451
0.00613624
0.00605107
0.00598222
0.00598215
0.00598472
0.00605874
0.0061462
0.00640122
0.00660819
0.00703231
0.00665958
0.0109872
0.00691084
0.00733624
0.00690358
0.00669827
0.00642522
0.00633883
0.00626752
0.0062676
0.00627032
0.00634637
0.006435
0.00670573
0.00691185
0.00734071
0.00692112
0.010819
0.00712078
0.00764893
0.00721919
0.0070163
0.00673886
0.00665394
0.00658363
0.00658343
0.0065866
0.00666105
0.00674806
0.00702428
0.00722761
0.0076533
0.00713148
0.0106163
0.00732623
0.00796445
0.00754361
0.00734764
0.00707567
0.00699466
0.00692775
0.00692688
0.00693081
0.00700112
0.00708397
0.0073559
0.00755193
0.00796872
0.00733721
0.0103863
0.00752766
0.00827966
0.00787585
0.00769262
0.00743479
0.00735882
0.00729357
0.0072922
0.00729673
0.00736452
0.00744206
0.00770073
0.00788384
0.00828384
0.00753886
0.0101358
0.00772616
0.00859097
0.00821785
0.00805141
0.00781359
0.00773973
0.00766167
0.0076619
0.00766521
0.00774485
0.00782024
0.00805868
0.00822521
0.00859507
0.00773756
0.00987173
0.00792259
0.00889557
0.008574
0.00842461
0.00820161
0.00811651
0.00797619
0.0079858
0.00798118
0.00812191
0.00820932
0.00843038
0.00858023
0.00889961
0.00793416
0.00960079
0.00811721
0.00919244
0.00895072
0.00881299
0.00855866
0.00842354
0.0082814
0.00829029
0.00828627
0.00843163
0.00857225
0.00881687
0.00895527
0.00919647
0.00812893
0.00932995
0.00831035
0.00948345
0.00935446
0.00921287
0.00885711
0.008722
0.00858512
0.00859247
0.00858964
0.0087297
0.0088695
0.00921512
0.0093571
0.00948756
0.00832221
0.00906614
0.00850243
0.00977461
0.0097847
0.00960248
0.00915036
0.0090154
0.00888337
0.00888935
0.00888757
0.00902267
0.00916163
0.00960481
0.00978598
0.00977889
0.0085144
0.00881616
0.00869389
0.0100773
0.0102201
0.009908
0.00943624
0.00930169
0.00917432
0.00917906
0.00917823
0.00930849
0.00944644
0.00991545
0.0102222
0.0100818
0.00870594
0.00858673
0.00888517
0.010409
0.0105864
0.0101681
0.0097125
0.00957879
0.00945606
0.00945967
0.00945966
0.00958511
0.00972165
0.0101749
0.010595
0.010414
0.00889727
0.00838476
0.00907667
0.0107915
0.0108507
0.0104231
0.00997829
0.00984477
0.0097267
0.0097293
0.00973
0.00985054
0.00998661
0.0104293
0.0108587
0.0107968
0.00908878
0.00821603
0.00926875
0.0112418
0.0111111
0.0106739
0.0102345
0.0101005
0.00998564
0.00998749
0.00998868
0.0101058
0.0102422
0.0106796
0.0111188
0.0112477
0.00928084
0.00808698
0.00946175
0.0117538
0.0113654
0.010918
0.0104825
0.0103476
0.0102344
0.0102358
0.0102372
0.0103524
0.0104896
0.0109234
0.0113728
0.0117606
0.00947377
0.00800612
0.00965593
0.0122515
0.0116128
0.0111547
0.0107237
0.0105858
0.0104746
0.0104754
0.0104773
0.0105905
0.0107304
0.01116
0.0116202
0.0122596
0.00966783
0.00797356
0.00985142
0.0125282
0.0118532
0.0113841
0.0109565
0.0108142
0.0107052
0.0107048
0.0107077
0.0108188
0.0109629
0.0113894
0.0118605
0.0125386
0.00986316
0.00798851
0.0100484
0.0127591
0.0120868
0.0116064
0.0111805
0.0110331
0.0109258
0.010924
0.0109282
0.0110377
0.0111868
0.0116118
0.0120942
0.0127699
0.01006
0.0080491
0.0102473
0.0129839
0.0123141
0.0118222
0.0113962
0.0112432
0.0111372
0.0111341
0.0111396
0.0112479
0.0114025
0.0118277
0.0123216
0.012995
0.0102587
0.00815306
0.0104486
0.0132016
0.0125356
0.0120322
0.0116044
0.011446
0.0113407
0.0113363
0.0113431
0.0114508
0.0116109
0.0120381
0.0125434
0.0132129
0.0104597
0.00829913
0.0106528
0.0134116
0.0127522
0.0122374
0.0118067
0.0116428
0.0115377
0.0115322
0.0115401
0.0116478
0.0118133
0.0122436
0.0127603
0.0134231
0.0106636
0.00848874
0.0108609
0.0136135
0.0129642
0.0124387
0.0120044
0.0118353
0.0117301
0.0117235
0.0117326
0.0118405
0.0120114
0.0124453
0.0129726
0.0136253
0.0108714
0.00872875
0.0110737
0.0138076
0.013172
0.0126367
0.0121989
0.012025
0.0119199
0.0119122
0.0119225
0.0120304
0.0122062
0.0126438
0.0131807
0.0138195
0.0110839
0.00901759
0.0112921
0.0139941
0.0133755
0.0128317
0.012391
0.0122129
0.0121088
0.0120998
0.0121116
0.0122186
0.0123986
0.0128392
0.0133845
0.014006
0.011302
0.009333
0.011517
0.0141735
0.0135743
0.0130236
0.0125812
0.0123998
0.0122973
0.0122872
0.0123001
0.0124058
0.0125892
0.0130315
0.0135837
0.0141854
0.0115266
0.00966198
0.0117497
0.0143465
0.0137681
0.0132122
0.0127699
0.0125864
0.0124856
0.0124748
0.0124886
0.0125928
0.0127783
0.0132206
0.0137778
0.0143582
0.0117589
0.0100066
0.0119913
0.0145141
0.0139564
0.0133974
0.0129579
0.0127733
0.0126744
0.0126632
0.0126776
0.01278
0.0129667
0.0134062
0.0139664
0.0145253
0.0120001
0.0103684
0.0122427
0.0146764
0.0141391
0.0135791
0.0131452
0.0129609
0.0128643
0.0128527
0.0128676
0.0129679
0.0131544
0.0135882
0.0141493
0.0146871
0.012251
0.0107482
0.0125046
0.0148332
0.0143164
0.0137578
0.0133321
0.0131493
0.0130555
0.0130439
0.013059
0.0131566
0.0133417
0.0137675
0.0143269
0.0148434
0.0125124
0.0111463
0.0127775
0.0149838
0.0144896
0.0139352
0.0135185
0.0133387
0.0132486
0.0132371
0.0132523
0.0133464
0.0135285
0.0139453
0.0145004
0.0149935
0.0127847
0.0115624
0.0130614
0.0151287
0.0146582
0.0141102
0.0137042
0.0135292
0.0134436
0.0134325
0.0134475
0.0135372
0.0137145
0.0141207
0.0146691
0.0151376
0.013068
0.0119957
0.0133557
0.0152688
0.0148201
0.0142817
0.0138888
0.0137205
0.0136404
0.0136299
0.0136444
0.0137287
0.0138994
0.0142924
0.0148309
0.0152769
0.0133615
0.012444
0.013659
0.0154032
0.0149734
0.0144484
0.0140714
0.0139117
0.0138382
0.0138285
0.0138424
0.0139202
0.0140823
0.0144592
0.0149839
0.0154104
0.013664
0.0129045
0.0139694
0.0155308
0.0151166
0.0146088
0.0142509
0.0141018
0.0140361
0.0140275
0.0140403
0.0141106
0.014262
0.0146198
0.0151267
0.0155372
0.0139735
0.0133731
0.0142839
0.0156504
0.0152485
0.0147613
0.0144257
0.0142892
0.0142323
0.0142251
0.0142367
0.0142981
0.0144369
0.0147723
0.015258
0.0156559
0.014287
0.0138444
0.0145987
0.0157605
0.0153674
0.014904
0.0145938
0.0144717
0.0144248
0.0144191
0.0144292
0.0144807
0.0146049
0.0149149
0.0153762
0.015765
0.0146007
0.0143125
0.0149092
0.0158594
0.0154709
0.0150348
0.0147528
0.0146468
0.0146107
0.0146068
0.0146151
0.0146558
0.0147638
0.0150454
0.015479
0.0158629
0.01491
0.0147711
0.0152101
0.0159394
0.0155529
0.0151489
0.0148973
0.0148106
0.0147869
0.0147851
0.0147913
0.0148191
0.0149082
0.0151592
0.0155603
0.015942
0.0152096
0.0152132
0.0154948
0.0160054
0.01562
9.55496e-09
9.69201e-09
1.15546e-08
1.03322e-08
9.96826e-09
9.67639e-09
9.53336e-09
9.42583e-09
9.42844e-09
9.4363e-09
9.55305e-09
9.70503e-09
9.99437e-09
1.03537e-08
1.15806e-08
9.72026e-09
2.95593e-08
2.05871e-08
2.40181e-08
2.64953e-08
2.53852e-08
2.6069e-08
2.59585e-08
2.61264e-08
2.60443e-08
2.61322e-08
2.59617e-08
2.60909e-08
2.53892e-08
2.6499e-08
2.40697e-08
2.06167e-08
4.31161e-07
2.47018e-07
2.84064e-07
3.53719e-07
3.37809e-07
3.55988e-07
3.56182e-07
3.6121e-07
3.59556e-07
3.6115e-07
3.55917e-07
3.55946e-07
3.3746e-07
3.53444e-07
2.84659e-07
2.47135e-07
3.06423e-06
1.71944e-06
1.97223e-06
2.48188e-06
2.37078e-06
2.50172e-06
2.50423e-06
2.54044e-06
2.52868e-06
2.53993e-06
2.50218e-06
2.50119e-06
2.36811e-06
2.4798e-06
1.97633e-06
1.72006e-06
1.28969e-05
7.16495e-06
8.1819e-06
1.03434e-05
9.8884e-06
1.04373e-05
1.04517e-05
1.06034e-05
1.05548e-05
1.0601e-05
1.04427e-05
1.04343e-05
9.87677e-06
1.03344e-05
8.19856e-06
7.16691e-06
3.91067e-05
2.15466e-05
2.44137e-05
3.1023e-05
2.96958e-05
3.13625e-05
3.14241e-05
3.18865e-05
3.1743e-05
3.1878e-05
3.1395e-05
3.13505e-05
2.96585e-05
3.09941e-05
2.44614e-05
2.15498e-05
9.48071e-05
5.18567e-05
5.80857e-05
7.42986e-05
7.12385e-05
7.531e-05
7.55183e-05
7.66576e-05
7.63212e-05
7.66336e-05
7.54418e-05
7.52713e-05
7.1141e-05
7.42229e-05
5.81919e-05
5.18555e-05
0.00019494
0.000105925
0.000116906
0.00015066
0.000144742
0.000153255
0.000153835
0.000156232
0.00015557
0.000156174
0.000153663
0.000153152
0.000144524
0.000150489
0.000117101
0.000105901
0.000352478
0.000190348
0.000206496
0.000268223
0.000258245
0.000273906
0.000275258
0.000279699
0.000278566
0.000279579
0.000274918
0.000273673
0.000257815
0.000267884
0.000206805
0.000190264
0.000574998
0.000308412
0.00032846
0.000430073
0.000414954
0.0004409
0.000443606
0.00045102
0.000449285
0.000450798
0.000443005
0.000440445
0.000414197
0.000429473
0.000328892
0.000308211
0.000863233
0.000459449
0.000480052
0.000633644
0.000612533
0.000651995
0.000656775
0.000668137
0.000665704
0.000667766
0.000655804
0.000651207
0.000611319
0.000632676
0.000480603
0.000459059
0.00121181
0.000639328
0.000655374
0.000872097
0.000844384
0.00090038
0.000908004
0.000924247
0.000921056
0.000923676
0.000906555
0.000899143
0.000842584
0.000870657
0.000656026
0.000638672
0.00161187
0.000841917
0.000847084