/*--------------------------------*- C++ -*----------------------------------*\
| =========                 |                                                 |
| \\      /  F ield         | OpenFOAM: The Open Source CFD Toolbox           |
|  \\    /   O peration     | Version:  v1912                                 |
|   \\  /    A nd           | Website:  www.openfoam.com                      |
|    \\/     M anipulation  |                                                 |
\*---------------------------------------------------------------------------*/
FoamFile
{
    version     2.0;
    format      ascii;
    class       volVectorField;
    location    "199.2";
    object      U;
}
// * * * * * * * * * * * * * * * * * * * * * * * * * * * * * * * * * * * * * //

dimensions      [0 1 -1 0 0 0 0];


internalField   nonuniform List<vector> 
10077
(
(3.07939e-06 -0.000400758 -0.00718365)
(-0.00452335 -3.72715e-05 -0.00342126)
(-0.00010051 -1.16649e-05 -0.00268725)
(-0.000247267 -6.94574e-06 -0.00459579)
(6.15407e-05 -7.09063e-06 -0.00453858)
(4.93764e-05 -6.67219e-06 -0.00494473)
(8.10235e-05 -6.53442e-06 -0.00501665)
(3.36084e-05 -6.38068e-06 -0.0051162)
(-1.80828e-06 -6.4567e-06 -0.00510708)
(-3.75763e-05 -6.38503e-06 -0.00511165)
(-8.39202e-05 -6.54647e-06 -0.00500504)
(-5.10043e-05 -6.68638e-06 -0.0049279)
(-6.13268e-05 -7.11517e-06 -0.00451779)
(0.000249284 -6.95436e-06 -0.00457782)
(0.000103182 -1.16628e-05 -0.00267546)
(0.00452445 -3.72839e-05 -0.00340084)
(8.11498e-06 0.0042658 -0.0186632)
(-0.0104865 -0.000114478 -0.00723911)
(-0.00014573 -7.41686e-05 -0.00516708)
(-0.000605851 -3.90661e-05 -0.0108126)
(0.000242822 -4.21514e-05 -0.0106538)
(0.0001631 -3.85332e-05 -0.0118664)
(0.000234173 -3.8351e-05 -0.0120812)
(9.72193e-05 -3.74711e-05 -0.0123756)
(-4.43387e-06 -3.78747e-05 -0.0123485)
(-0.000107128 -3.74903e-05 -0.0123621)
(-0.000241402 -3.84161e-05 -0.0120469)
(-0.000167401 -3.86184e-05 -0.0118167)
(-0.000242507 -4.22661e-05 -0.0105927)
(0.000610892 -3.91379e-05 -0.0107599)
(0.000152971 -7.41478e-05 -0.00513283)
(0.0104882 -0.000114513 -0.00717966)
(1.25584e-05 1.54124e-05 -0.0278229)
(-0.0143656 -0.000229512 -0.00833231)
(2.28665e-05 -0.000189667 -0.00498821)
(-0.000883718 -8.85685e-05 -0.0143107)
(0.000428439 -9.71435e-05 -0.0140542)
(0.000269725 -8.76417e-05 -0.0160671)
(0.00036868 -8.73688e-05 -0.0164233)
(0.000152651 -8.52297e-05 -0.016909)
(-6.38731e-06 -8.61278e-05 -0.0168642)
(-0.000167121 -8.5274e-05 -0.0168869)
(-0.000379242 -8.75213e-05 -0.0163666)
(-0.00027624 -8.78439e-05 -0.015985)
(-0.000428078 -9.73749e-05 -0.0139535)
(0.000891186 -8.87238e-05 -0.0142239)
(-1.1719e-05 -0.000189645 -0.00493221)
(0.0143669 -0.000229677 -0.00823521)
(1.65224e-05 0.00361583 -0.0349259)
(-0.0175383 -0.000341333 -0.00702552)
(0.000191527 -0.000341801 -0.0023609)
(-0.00113804 -0.000146879 -0.0152719)
(0.000569473 -0.000164557 -0.0149165)
(0.000348458 -0.000147275 -0.0177157)
(0.000475942 -0.000147159 -0.0182098)
(0.000196351 -0.000143459 -0.0188821)
(-7.8226e-06 -0.000144985 -0.0188203)
(-0.000214267 -0.000143527 -0.0188514)
(-0.000488936 -0.00014741 -0.018131)
(-0.000356648 -0.00014761 -0.0176017)
(-0.000568925 -0.000164884 -0.014777)
(0.00114737 -0.000147102 -0.0151516)
(-0.000177306 -0.000341797 -0.00228374)
(0.0175383 -0.000341646 -0.00689217)
(1.98848e-05 0.00203247 -0.0398009)
(-0.0201208 -0.000456498 -0.00360043)
(0.000280694 -0.000521484 0.00248917)
(-0.00137288 -0.00020926 -0.0138803)
(0.000664254 -0.000238972 -0.0134261)
(0.000398579 -0.000211412 -0.0169908)
(0.000556212 -0.000211634 -0.0176178)
(0.000228517 -0.000206079 -0.0184706)
(-8.74851e-06 -0.000208344 -0.0183927)
(-0.000248773 -0.000206173 -0.0184314)
(-0.000570723 -0.000211996 -0.0175173)
(-0.000407888 -0.000211903 -0.0168454)
(-0.000663378 -0.000239438 -0.0132487)
(0.00138346 -0.000209602 -0.013727)
(-0.000264262 -0.000521452 0.00258668)
(0.0201187 -0.000456936 -0.00343245)
(2.25195e-05 0.00285931 -0.0422583)
(-0.0220436 -0.000569027 0.0017025)
(0.000301309 -0.000719851 0.00929933)
(-0.0015779 -0.000272849 -0.0103412)
(0.000722453 -0.000317181 -0.00978991)
(0.000424685 -0.000277498 -0.0140917)
(0.000611791 -0.000278221 -0.0148455)
(0.000250149 -0.000270544 -0.0158702)
(-9.16878e-06 -0.000273653 -0.0157775)
(-0.000271658 -0.000270662 -0.0158229)
(-0.000626937 -0.000278707 -0.0147239)
(-0.000434594 -0.000278168 -0.0139158)
(-0.000721148 -0.000317839 -0.00957615)
(0.00158911 -0.000273366 -0.010156)
(-0.000283475 -0.000719718 0.00941593)
(0.0220388 -0.000569599 0.00190312)
(2.43413e-05 0.00308665 -0.0422142)
(-0.023302 -0.000677518 0.00863172)
(0.000253684 -0.00092975 0.0177339)
(-0.00174971 -0.000335326 -0.00491322)
(0.000748156 -0.00039597 -0.00426831)
(0.00042937 -0.000343709 -0.00926452)
(0.000644206 -0.000345168 -0.0101371)
(0.000261951 -0.000335255 -0.0113228)
(-9.12108e-06 -0.000339286 -0.0112168)
(-0.000283705 -0.00033539 -0.0112679)
(-0.000659181 -0.000345774 -0.00999548)
(-0.000439406 -0.000344558 -0.00905993)
(-0.000746348 -0.000396798 -0.00402044)
(0.00176099 -0.000335987 -0.00469806)
(-0.000235204 -0.000929474 0.0178678)
(0.023294 -0.000678245 0.00886236)
(2.53398e-05 0.00337979 -0.0397692)
(-0.0239289 -0.000779523 0.0168855)
(0.000141133 -0.00114457 0.0273716)
(-0.00188662 -0.000393978 0.00206061)
(0.00074525 -0.000472135 0.0027943)
(0.00041562 -0.000406892 -0.00283941)
(0.000655541 -0.000409376 -0.00382117)
(0.000264891 -0.000397235 -0.0051555)
(-8.67088e-06 -0.000402243 -0.00503739)
(-0.000286015 -0.000397374 -0.00509329)
(-0.000669659 -0.000410085 -0.00366092)
(-0.000425376 -0.000407902 -0.0026084)
(-0.000742889 -0.000473099 0.00307311)
(0.0018975 -0.000394741 0.00230321)
(-0.000122687 -0.00114412 0.0275202)
(0.0239178 -0.000780414 0.0171427)
(2.56018e-05 0.00365294 -0.0352723)
(-0.0239749 -0.000872761 0.0261076)
(-2.81024e-05 -0.00135813 0.0377587)
(-0.00198889 -0.000446594 0.0101689)
(0.000718514 -0.000542891 0.0109854)
(0.000387179 -0.000464325 0.00477842)
(0.000648839 -0.000468101 0.00369674)
(0.000260352 -0.000453761 0.00222563)
(-7.909e-06 -0.000459784 0.00235468)
(-0.000280155 -0.000453891 0.00229466)
(-0.000661574 -0.000468895 0.00387413)
(-0.00039633 -0.000465479 0.00503313)
(-0.00071558 -0.000543959 0.0112916)
(0.00199899 -0.000447424 0.0104359)
(4.59499e-05 -0.00135747 0.0379193)
(0.023961 -0.000873829 0.0263874)
(2.5293e-05 0.003944 -0.0292485)
(-0.0235245 -0.00095561 0.0359374)
(-0.000241643 -0.00156432 0.0485036)
(-0.00205967 -0.000491423 0.0190124)
(0.000672818 -0.000605864 0.0199055)
(0.000347942 -0.000513775 0.0131859)
(0.000627783 -0.000519066 0.0120117)
(0.000249972 -0.000502556 0.0104128)
(-6.93668e-06 -0.000509622 0.0105521)
(-0.00026797 -0.000502667 0.0104884)
(-0.000638776 -0.000519928 0.012205)
(-0.000356251 -0.000515055 0.0134617)
(-0.000669304 -0.000607005 0.0202356)
(0.00206876 -0.00049229 0.0193009)
(0.000258461 -0.00156343 0.0486736)
(0.0235085 -0.000956862 0.0362355)
(2.45976e-05 0.0042361 -0.022213)
(-0.0226811 -0.00102609 0.0460747)
(-0.000486746 -0.00175934 0.0594042)
(-0.0021044 -0.000527096 0.0282841)
(0.000612162 -0.000658947 0.0292478)
(0.000301094 -0.000553348 0.022067)
(0.00059588 -0.000560324 0.0208055)
(0.00023528 -0.000541688 0.0190849)
(-5.84526e-06 -0.000549808 0.0192339)
(-0.00025118 -0.000541768 0.0191669)
(-0.000604925 -0.000561241 0.0210137)
(-0.000308405 -0.000554738 0.0223618)
(-0.000608068 -0.000660129 0.0295988)
(0.00211234 -0.000527971 0.0285919)
(0.000502235 -0.0017582 0.059582)
(0.0226636 -0.00102753 0.0463878)
(2.36683e-05 0.00452565 -0.0145383)
(-0.0215315 -0.00108227 0.0563799)
(-0.000753431 -0.00194044 0.0703804)
(-0.00212857 -0.000552753 0.037851)
(0.000539392 -0.00070075 0.0388869)
(0.000248798 -0.000581622 0.031253)
(0.000555879 -0.000590356 0.029902)
(0.000217454 -0.000569582 0.0280537)
(-4.7021e-06 -0.000578761 0.0282133)
(-0.000231105 -0.000569628 0.0281427)
(-0.000562873 -0.000591319 0.0301256)
(-0.000255008 -0.000583112 0.0315665)
(-0.00053472 -0.000701953 0.0392579)
(0.00213531 -0.000553612 0.0381772)
(0.000767401 -0.00193904 0.0705645)
(0.0215129 -0.00108393 0.0567048)
(2.26079e-05 0.00481579 -0.00644317)
(-0.0201404 -0.0011249 0.0667697)
(-0.00103018 -0.00210404 0.0813218)
(-0.00213572 -0.000567698 0.0477131)
(0.000456886 -0.000730325 0.0488182)
(0.000192336 -0.000597718 0.0407435)
(0.000509493 -0.000608246 0.0393018)
(0.000197188 -0.000585314 0.0373228)
(-3.53779e-06 -0.000595557 0.0374931)
(-0.000208509 -0.000585321 0.0374189)
(-0.000514387 -0.000609248 0.0395412)
(-0.000197381 -0.000599298 0.0410755)
(-0.000451651 -0.000731527 0.0492079)
(0.00214119 -0.000568518 0.048057)
(0.00104252 -0.00210236 0.0815107)
(0.0201214 -0.0011268 0.0671031)
(2.14837e-05 0.00510207 0.00195471)
(-0.0185633 -0.00115426 0.0771167)
(-0.00130418 -0.00224763 0.0921094)
(-0.00212734 -0.000571215 0.0578353)
(0.000367797 -0.000746772 0.0589912)
(0.000133165 -0.000600869 0.0505343)
(0.000458203 -0.000613193 0.0490085)
(0.000175066 -0.00058807 0.0469103)
(-2.36981e-06 -0.00059938 0.0470898)
(-0.000184018 -0.000588036 0.0470131)
(-0.000460991 -0.00061423 0.0492625)
(-0.000137019 -0.000602531 0.0508829)
(-0.000362042 -0.000747952 0.0593966)
(0.00213155 -0.000571973 0.0581945)
(0.00131487 -0.00224569 0.0923019)
(0.0185446 -0.00115641 0.0774552)
(2.03241e-05 0.00537651 0.0106957)
(-0.0168521 -0.00117029 0.0873155)
(-0.00156479 -0.00236996 0.102648)
(-0.00210449 -0.000563057 0.0681259)
(0.00027548 -0.000749724 0.0693098)
(7.32284e-05 -0.000590729 0.0605357)
(0.000403804 -0.000604785 0.058933)
(0.000151846 -0.000577398 0.05673)
(-1.22325e-06 -0.000589774 0.0569163)
(-0.000158447 -0.000577326 0.0568386)
(-0.000404531 -0.000605855 0.0592005)
(-7.58942e-05 -0.000592474 0.0608987)
(-0.000269253 -0.000750868 0.0697279)
(0.00210747 -0.00056374 0.0684977)
(0.00157391 -0.00236777 0.102843)
(0.0168343 -0.00117271 0.0876562)
(1.91337e-05 0.00564454 0.0198867)
(-0.0150579 -0.00117401 0.0972823)
(-0.00180374 -0.00247038 0.112864)
(-0.00206859 -0.000543483 0.0784976)
(0.000182623 -0.000739355 0.0796851)
(1.41272e-05 -0.000567515 0.0706601)
(0.000347861 -0.000583205 0.0689878)
(0.000128181 -0.000553455 0.0666948)
(-1.2147e-07 -0.000566895 0.0668858)
(-0.0001325 -0.000553352 0.0668085)
(-0.000346613 -0.000584314 0.0692674)
(-1.56345e-05 -0.000569342 0.0710355)
(-0.000175973 -0.000740455 0.0801129)
(0.00207042 -0.000544083 0.0788794)
(0.00181141 -0.00246796 0.113061)
(0.0150417 -0.00117674 0.0976225)
(1.7924e-05 0.00591425 0.0295151)
(-0.0132244 -0.00116631 0.106951)
(-0.00201473 -0.0025489 0.1227)
(-0.00202127 -0.000512935 0.0888676)
(9.15107e-05 -0.000716122 0.0900345)
(-4.28408e-05 -0.000531711 0.0808249)
(0.000291721 -0.000548922 0.0790902)
(0.000104632 -0.000516676 0.0767227)
(9.15613e-07 -0.00053118 0.0769159)
(-0.000106782 -0.000516552 0.0768406)
(-0.000288625 -0.000550076 0.0793805)
(4.24397e-05 -0.000533622 0.0812105)
(-8.44903e-05 -0.000717175 0.0904689)
(0.00202206 -0.000513447 0.0892569)
(0.00202113 -0.00254628 0.122898)
(0.0132103 -0.00116937 0.107289)
(1.67172e-05 0.0061865 0.0394731)
(-0.0113886 -0.00114831 0.116272)
(-0.00219345 -0.002606 0.132114)
(-0.00196415 -0.000471975 0.0991503)
(4.25079e-06 -0.000680766 0.100275)
(-9.64871e-05 -0.000483999 0.0909446)
(0.000236637 -0.000502582 0.0891555)
(8.17112e-05 -0.000467661 0.0867291)
(1.87199e-06 -0.000483236 0.0869224)
(-8.18411e-05 -0.000467534 0.0868503)
(-0.000231847 -0.00050379 0.089455)
(9.71213e-05 -0.000486003 0.0913383)
(3.08644e-06 -0.000681781 0.100713)
(0.00196403 -0.000472408 0.0995445)
(0.00219881 -0.00260322 0.132312)
(0.011377 -0.00115173 0.116605)
(1.55373e-05 0.00646037 0.0496206)
(-0.009582 -0.00112137 0.125206)
(-0.0023375 -0.00264249 0.141074)
(-0.001899 -0.000421422 0.109252)
(-7.72457e-05 -0.000634292 0.110318)
(-0.000145732 -0.000425275 0.100924)
(0.000183783 -0.000445015 0.09909)
(5.9895e-05 -0.000407138 0.0966196)
(2.73464e-06 -0.000423799 0.0968113)
(-5.81841e-05 -0.000407028 0.096743)
(-0.00017748 -0.000446294 0.0993968)
(0.000147316 -0.000427396 0.101324)
(8.4849e-05 -0.000635278 0.110758)
(0.00189814 -0.000421795 0.109649)
(0.00234206 -0.00263959 0.141271)
(0.00957338 -0.00112515 0.125532)
(1.44096e-05 0.00673621 0.0597982)
(-0.0078318 -0.00108645 0.133724)
(-0.0024462 -0.00265941 0.149559)
(-0.00182804 -0.000362109 0.119074)
(-0.000151379 -0.000577864 0.120073)
(-0.00018978 -0.000356639 0.110659)
(0.000134178 -0.000377351 0.108791)
(3.95875e-05 -0.000336253 0.106291)
(3.49293e-06 -0.000354015 0.106481)
(-3.62397e-05 -0.000336193 0.106416)
(-0.000126562 -0.000378717 0.109103)
(0.000192215 -0.000358899 0.111063)
(0.000159196 -0.000578849 0.120512)
(0.00182658 -0.000362451 0.119471)
(0.00245019 -0.00265643 0.149756)
(0.00782633 -0.00109061 0.134043)
(1.33563e-05 0.00701069 0.0698573)
(-0.00616159 -0.00104357 0.141806)
(-0.00252039 -0.00265799 0.157559)
(-0.00175396 -0.00029535 0.12852)
(-0.000217229 -0.000512844 0.129451)
(-0.00022827 -0.00027963 0.120053)
(8.85486e-05 -0.00030108 0.118168)
(2.10477e-05 -0.000256293 0.115665)
(4.14052e-06 -0.000275205 0.115849)
(-1.62825e-05 -0.000256328 0.11579)
(-7.98334e-05 -0.000302561 0.118482)
(0.000231448 -0.00028205 0.12046)
(0.000225209 -0.000513848 0.129888)
(0.00175206 -0.000295682 0.128918)
(0.00252406 -0.00265498 0.157755)
(0.00615937 -0.00104816 0.142116)
(1.23915e-05 0.00727845 0.0797044)
(-0.00459168 -0.000992837 0.149438)
(-0.0025622 -0.00263959 0.16507)
(-0.00167913 -0.000222426 0.13755)
(-0.000274711 -0.000440804 0.138385)
(-0.000261375 -0.000195451 0.129089)
(4.71019e-05 -0.000217415 0.127203)
(4.35887e-06 -0.000168442 0.124718)
(4.67835e-06 -0.00018857 0.124894)
(1.60628e-06 -0.000168616 0.124843)
(-3.74913e-05 -0.000219038 0.127518)
(0.000265189 -0.000198062 0.129496)
(0.0002828 -0.00044186 0.138817)
(0.00167695 -0.000222784 0.137945)
(0.00256577 -0.0026366 0.165265)
(0.00459267 -0.000997867 0.149739)
(1.15206e-05 0.00753699 0.0893061)
(-0.00313979 -0.000935179 0.156613)
(-0.00257467 -0.0026057 0.172099)
(-0.00160499 -0.000144132 0.146179)
(-0.00032447 -0.000362771 0.14689)
(-0.000289382 -0.000105036 0.137785)
(9.87517e-06 -0.000127369 0.135908)
(-1.04472e-05 -7.39783e-05 0.133444)
(5.11131e-06 -9.5327e-05 0.133613)
(1.7405e-05 -7.43286e-05 0.133568)
(4.4702e-07 -0.000129149 0.136221)
(0.000293736 -0.000107867 0.13819)
(0.000332633 -0.000363919 0.147314)
(0.00160269 -0.000144561 0.146567)
(0.00257834 -0.00260278 0.172292)
(0.00314381 -0.000940638 0.156906)
(1.0744e-05 0.00778618 0.0986573)
(-0.00182187 -0.000871828 0.163334)
(-0.00256152 -0.00255793 0.178656)
(-0.0015325 -6.12117e-05 0.154419)
(-0.000367062 -0.000279593 0.155002)
(-0.000312453 -9.59986e-06 0.146133)
(-2.30463e-05 -3.2181e-05 0.144271)
(-2.33598e-05 2.57207e-05 0.141831)
(5.44525e-06 3.12795e-06 0.141994)
(3.11142e-05 2.51542e-05 0.141955)
(3.391e-05 -3.41343e-05 0.144581)
(0.000317261 -1.26657e-05 0.146534)
(0.000375281 -0.000280865 0.155417)
(0.00153022 -6.17522e-05 0.1548)
(0.00256545 -0.00255512 0.178848)
(0.0018286 -0.000877726 0.163617)
(1.00601e-05 0.00802609 0.107759)
(-0.000646636 -0.00080213 0.169619)
(-0.00252674 -0.00249791 0.18476)
(-0.00146247 2.55186e-05 0.16227)
(-0.000402655 -0.000192467 0.162721)
(-0.000330859 8.99837e-05 0.154138)
(-5.17306e-05 6.72787e-05 0.1523)
(-3.44347e-05 0.000129633 0.149888)
(5.68788e-06 0.000105865 0.150046)
(4.28042e-05 0.000128829 0.150013)
(6.29811e-05 6.51374e-05 0.152606)
(0.000336042 8.66615e-05 0.154533)
(0.000410911 -0.000193908 0.163125)
(0.00146033 2.4816e-05 0.162641)
(0.00253107 -0.00249526 0.18495)
(0.000655859 -0.000808504 0.169892)
(9.46629e-06 0.00825668 0.116607)
(0.000389367 -0.000725666 0.175517)
(-0.00247436 -0.00242706 0.190432)
(-0.00139546 0.000115291 0.169739)
(-0.000431617 -0.000102333 0.170051)
(-0.000344954 0.000193026 0.161815)
(-7.63418e-05 0.000170336 0.160011)
(-4.37568e-05 0.00023702 0.157637)
(5.84834e-06 0.000212112 0.15779)
(5.25777e-05 0.00023597 0.157764)
(8.78433e-05 0.000167988 0.160311)
(0.000350444 0.000189422 0.162202)
(0.000439892 -0.000103998 0.170441)
(0.00139356 0.000114368 0.170098)
(0.0024792 -0.00242462 0.19062)
(-0.00037783 -0.000732498 0.175781)
(8.9599e-06 0.00847889 0.125188)
(0.00129403 -0.000645031 0.181069)
(-0.00240822 -0.00234684 0.195698)
(-0.00133181 0.000207342 0.176834)
(-0.000454514 -1.00726e-05 0.176999)
(-0.000355063 0.00029892 0.169179)
(-9.70562e-05 0.000276408 0.167421)
(-5.14084e-05 0.00034738 0.165101)
(5.93701e-06 0.00032137 0.165248)
(6.05371e-05 0.000346097 0.165229)
(0.000108694 0.000273831 0.167714)
(0.000360802 0.000295002 0.169556)
(0.000462798 -1.2026e-05 0.177374)
(0.00133024 0.000206129 0.177179)
(0.00241362 -0.00234464 0.195884)
(-0.00128034 -0.000652302 0.181322)
(8.53794e-06 0.00869324 0.133485)
(0.00207518 -0.000561314 0.186283)
(-0.00233215 -0.00225923 0.200584)
(-0.00127154 0.000300905 0.183566)
(-0.000471904 8.34367e-05 0.183575)
(-0.000361465 0.000407069 0.176241)
(-0.000114046 0.000384954 0.174544)
(-5.74636e-05 0.000460236 0.172295)
(5.96563e-06 0.000433171 0.172433)
(6.67781e-05 0.000458743 0.172424)
(0.000125729 0.000382115 0.174826)
(0.000367412 0.000402796 0.176605)
(0.000480197 8.11259e-05 0.183932)
(0.00127038 0.000299326 0.183894)
(0.00233816 -0.00225725 0.200768)
(-0.00205955 -0.000569048 0.186527)
(8.19708e-06 0.00889904 0.141476)
(0.00273924 -0.000474317 0.191169)
(-0.00224968 -0.00216618 0.20512)
(-0.00121444 0.000395138 0.189939)
(-0.000484298 0.000177292 0.189786)
(-0.000364407 0.000516839 0.183004)
(-0.000127481 0.000495402 0.18138)
(-6.1992e-05 0.000575119 0.179223)
(5.94693e-06 0.000547018 0.179351)
(7.13944e-05 0.000573434 0.179352)
(0.000139141 0.000492259 0.18165)
(0.000370533 0.00051216 0.183352)
(0.000492609 0.000174549 0.190124)
(0.00121375 0.00039311 0.190249)
(0.00225632 -0.00216445 0.205303)
(-0.00272188 -0.000482498 0.191403)
(7.93231e-06 0.00909495 0.149141)
(0.00329135 -0.000385219 0.195736)
(-0.00216335 -0.0020685 0.209346)
(-0.0011602 0.000489039 0.195951)
(-0.000492162 0.000270523 0.195638)
(-0.000364114 0.000627465 0.189458)
(-0.000137538 0.000607054 0.187921)
(-6.50652e-05 0.000691454 0.185877)
(5.89468e-06 0.000662319 0.185992)
(7.44836e-05 0.00068959 0.186005)
(0.000149134 0.000603554 0.188176)
(0.000370405 0.000622319 0.189789)
(0.000500512 0.000267268 0.195954)
(0.00116003 0.000486481 0.196242)
(0.00217062 -0.00206708 0.209527)
(-0.00327252 -0.0003938 0.195962)
(7.73714e-06 0.00927839 0.156465)
(0.00373789 -0.000294894 0.199999)
(-0.00207505 -0.00196667 0.213297)
(-0.00110851 0.000581359 0.201596)
(-0.000495947 0.000362014 0.20113)
(-0.000360838 0.000737886 0.195584)
(-0.000144431 0.000718911 0.194141)
(-6.67716e-05 0.000808377 0.192231)
(5.8233e-06 0.00077819 0.19233)
(7.61613e-05 0.000806335 0.192357)
(0.000155942 0.000714997 0.19438)
(0.000367292 0.000732207 0.195894)
(0.000504362 0.000358178 0.201424)
(0.00110889 0.000578196 0.201866)
(0.00208294 -0.00196557 0.213476)
(-0.00371783 -0.000303855 0.200216)
(7.60422e-06 0.00944751 0.163431)
(0.00408663 -0.000203726 0.203971)
(-0.00198605 -0.00186175 0.216995)
(-0.00105901 0.000670701 0.206868)
(-0.000496112 0.000450554 0.206262)
(-0.000354894 0.000846665 0.201352)
(-0.000148436 0.000829584 0.20001)
(-6.72328e-05 0.000924604 0.19825)
(5.74687e-06 0.00089333 0.19833)
(7.65758e-05 0.000922377 0.198372)
(0.000159867 0.000825197 0.200232)
(0.000361521 0.000840389 0.201643)
(0.000504622 0.000446082 0.206535)
(0.00105995 0.000666878 0.207119)
(0.00199454 -0.00186098 0.217172)
(-0.00406557 -0.000213052 0.20418)
(7.52416e-06 0.00960157 0.170019)
(0.00434668 -0.000111924 0.207671)
(-0.00189735 -0.00175488 0.220456)
(-0.00101131 0.000755873 0.211774)
(-0.000493123 0.000535024 0.21104)
(-0.00034665 0.000952074 0.206742)
(-0.0001499 0.000937324 0.205498)
(-6.66074e-05 0.00103842 0.203897)
(5.67798e-06 0.00100601 0.203957)
(7.59096e-05 0.00103599 0.204014)
(0.000161272 0.000932413 0.205704)
(0.000353466 0.000945148 0.207012)
(0.000501753 0.000529889 0.211292)
(0.0010128 0.000751365 0.212006)
(0.00190639 -0.00175446 0.220632)
(-0.00432485 -0.000121593 0.207872)
(7.48555e-06 0.00974313 0.176187)
(0.00452863 -1.95207e-05 0.211117)
(-0.00180998 -0.00164704 0.223697)
(-0.000964974 0.000835944 0.216325)
(-0.000487422 0.000614611 0.215475)
(-0.000336477 0.00105244 0.211742)
(-0.000149201 0.00104027 0.21059)
(-6.50749e-05 0.00114782 0.209148)
(5.62695e-06 0.00111424 0.209187)
(7.4362e-05 0.00114516 0.209259)
(0.000160548 0.00103481 0.210781)
(0.0003435 0.00104484 0.211992)
(0.000496198 0.000608813 0.215709)
(0.00096701 0.000830752 0.216541)
(0.00181955 -0.00164698 0.223871)
(-0.00450624 -2.95106e-05 0.211312)
(7.4762e-06 0.00987747 0.18188)
(0.00464446 7.35814e-05 0.21433)
(-0.00172483 -0.001539 0.226731)
(-0.00091961 0.000910361 0.220538)
(-0.000479432 0.00068876 0.219583)
(-0.000324717 0.00114641 0.216354)
(-0.00014671 0.00113693 0.215284)
(-6.28118e-05 0.00125106 0.213993)
(5.60158e-06 0.00121629 0.214011)
(7.21248e-05 0.00124816 0.214099)
(0.000158073 0.00113093 0.21546)
(0.00033197 0.00113815 0.216587)
(0.000488377 0.000682325 0.219802)
(0.000922183 0.000904513 0.220739)
(0.00173488 -0.0015393 0.226903)
(-0.00462172 6.32977e-05 0.214518)
(7.4863e-06 0.0100096 0.18705)
(0.00470652 0.000167637 0.217329)
(-0.00164263 -0.00143132 0.229572)
(-0.000874894 0.000978845 0.224429)
(-0.000469558 0.000757246 0.223383)
(-0.000311695 0.00123311 0.22059)
(-0.000142781 0.00122622 0.21959)
(-5.99846e-05 0.00134679 0.218439)
(5.60729e-06 0.00131086 0.218437)
(6.9376e-05 0.00134364 0.218539)
(0.00015421 0.00121971 0.219754)
(0.000319202 0.00122421 0.220808)
(0.000478691 0.000750213 0.223588)
(0.000877989 0.00097238 0.224618)
(0.00165311 -0.00143198 0.229743)
(-0.00468362 0.000157087 0.217512)
(7.51225e-06 0.0101235 0.191697)
(0.00472517 0.000263094 0.220136)
(-0.00156484 -0.00132459 0.232233)
(-0.000830635 0.00104128 0.22802)
(-0.000458182 0.00082 0.226894)
(-0.000297727 0.00131212 0.224467)
(-0.000137755 0.00130768 0.223523)
(-5.67513e-05 0.00143436 0.222499)
(5.64745e-06 0.0013973 0.222477)
(6.62807e-05 0.00143096 0.222593)
(0.000149303 0.00130071 0.223677)
(0.000305513 0.00130265 0.224671)
(0.000467516 0.000812419 0.227087)
(0.000834234 0.00103425 0.228197)
(0.00157571 -0.00132561 0.232403)
(-0.00470227 0.000252303 0.220314)
(7.55591e-06 0.0101995 0.195897)
(0.00470804 0.000359948 0.22277)
(-0.00149311 -0.00121993 0.234731)
(-0.000786813 0.00109769 0.231327)
(-0.000445662 0.000877104 0.230133)
(-0.000283126 0.0013834 0.228005)
(-0.000131952 0.00138124 0.227104)
(-5.32601e-05 0.00151359 0.22619)
(5.7234e-06 0.00147546 0.22615)
(6.2991e-05 0.00150995 0.226279)
(0.000143675 0.00137385 0.227249)
(0.000291214 0.00137341 0.228197)
(0.000455206 0.000869033 0.230319)
(0.000790891 0.00109015 0.231496)
(0.00150432 -0.00122131 0.234899)
(-0.00468527 0.000348946 0.222944)
(7.61776e-06 0.0102391 0.199775)
(0.00465992 0.000459043 0.225251)
(-0.00142753 -0.0011176 0.237096)
(-0.000743576 0.00114836 0.23437)
(-0.00043235 0.000928827 0.23312)
(-0.000268212 0.00144713 0.231225)
(-0.000125676 0.00144709 0.230356)
(-4.9649e-05 0.00158462 0.229535)
(5.8345e-06 0.0015455 0.229479)
(5.96445e-05 0.00158075 0.229619)
(0.000137625 0.00143934 0.230494)
(0.000276622 0.00143668 0.231408)
(0.000442106 0.000920326 0.233299)
(0.000748104 0.00114036 0.234533)
(0.00143903 -0.00111933 0.237264)
(-0.00463739 0.000447859 0.225421)
(7.69165e-06 0.0102534 0.203403)
(0.00458332 0.000561839 0.227602)
(-0.00136662 -0.00101745 0.239353)
(-0.000701338 0.00119375 0.237165)
(-0.000418688 0.000975541 0.235868)
(-0.000253373 0.00150374 0.234151)
(-0.000119231 0.00150565 0.233303)
(-4.60531e-05 0.00164784 0.232558)
(5.97759e-06 0.00160782 0.232488)
(5.63707e-05 0.00164377 0.232638)
(0.000131454 0.00149758 0.233435)
(0.000262122 0.0014929 0.234327)
(0.000428653 0.000966673 0.236042)
(0.000706279 0.00118536 0.237323)
(0.00137835 -0.00101952 0.23952)
(-0.00456111 0.00055051 0.227769)
(7.76749e-06 0.0102554 0.206797)
(0.00448186 0.000667772 0.229845)
(-0.0013082 -0.00091999 0.241509)
(-0.000660704 0.00123414 0.239729)
(-0.000405251 0.00101755 0.238394)
(-0.000239115 0.00155364 0.236808)
(-0.000112952 0.00155736 0.235971)
(-4.26162e-05 0.00170374 0.235286)
(6.14617e-06 0.00166289 0.235203)
(5.33018e-05 0.00169948 0.235363)
(0.000125487 0.00154903 0.2361)
(0.000248213 0.00154247 0.236979)
(0.000415419 0.00100838 0.238564)
(0.000666021 0.0012254 0.239884)
(0.00132011 -0.000922401 0.241675)
(-0.00446003 0.0006563 0.230009)
(7.83982e-06 0.0102386 0.209974)
(0.00435965 0.000775953 0.231989)
(-0.00125087 -0.000825587 0.24357)
(-0.000621722 0.00126976 0.242094)
(-0.000392439 0.00105532 0.24073)
(-0.000225781 0.00159747 0.239238)
(-0.000107083 0.00160287 0.238404)
(-3.94447e-05 0.00175293 0.237762)
(6.3326e-06 0.00171133 0.237669)
(5.05289e-05 0.0017485 0.237837)
(0.000119953 0.00159431 0.238531)
(0.00023523 0.00158602 0.239406)
(0.000402812 0.0010459 0.240898)
(0.000627393 0.00126074 0.242246)
(0.0012629 -0.000828332 0.243736)
(-0.00433826 0.000764318 0.23215)
(7.90457e-06 0.0101965 0.212957)
(0.00422048 0.000886166 0.234041)
(-0.00119397 -0.000734445 0.245542)
(-0.000583843 0.00130128 0.244299)
(-0.000380265 0.00108955 0.242918)
(-0.000213325 0.00163609 0.241493)
(-0.000101665 0.0016431 0.240658)
(-3.65373e-05 0.00179642 0.240045)
(6.53333e-06 0.00175414 0.239945)
(4.80443e-05 0.00179184 0.240118)
(0.000114888 0.00163435 0.240784)
(0.000223124 0.00162441 0.241659)
(0.000390848 0.00107993 0.243085)
(0.000589849 0.001292 0.24445)
(0.00120609 -0.000737515 0.245707)
(-0.00419962 0.000874379 0.2342)
(7.95801e-06 0.0101329 0.215769)
(0.00406928 0.000998039 0.236009)
(-0.00113681 -0.000646655 0.24743)
(-0.000546711 0.00132938 0.246375)
(-0.00036857 0.00112075 0.244988)
(-0.000201556 0.00167015 0.243608)
(-9.66485e-05 0.00167871 0.24277)
(-3.3847e-05 0.00183498 0.242179)
(6.74862e-06 0.00179208 0.242073)
(4.58028e-05 0.00183027 0.242251)
(0.000110246 0.00166981 0.242896)
(0.000211709 0.00165828 0.243772)
(0.000379364 0.00111097 0.245154)
(0.000553026 0.00131988 0.246525)
(0.00114898 -0.000650044 0.247594)
(-0.00404901 0.000986114 0.236165)
(7.99669e-06 0.0100484 0.218432)
(0.00391109 0.00111129 0.237899)
(-0.00107879 -0.000562271 0.249239)
(-0.000510145 0.00135459 0.248335)
(-0.000357256 0.00114933 0.246952)
(-0.000190369 0.00170017 0.2456)
(-9.20041e-05 0.00171026 0.244759)
(-3.13484e-05 0.00186913 0.244184)
(6.97823e-06 0.00182566 0.244073)
(4.37788e-05 0.00186431 0.244256)
(0.000105996 0.00170123 0.244884)
(0.000200881 0.00168814 0.245764)
(0.000368256 0.00113945 0.247117)
(0.000516744 0.00134491 0.248485)
(0.00109098 -0.000565972 0.249401)
(-0.00389145 0.00109924 0.238053)
(8.01864e-06 0.00994456 0.220973)
(0.00375073 0.00122558 0.239716)
(-0.00101943 -0.000481275 0.250971)
(-0.000474051 0.00137726 0.250192)
(-0.000346305 0.00117576 0.248821)
(-0.000179751 0.00172679 0.247486)
(-8.77345e-05 0.0017384 0.24664)
(-2.90326e-05 0.00189959 0.246078)
(7.22026e-06 0.0018556 0.245962)
(4.19602e-05 0.00189467 0.246148)
(0.000102137 0.00172926 0.246766)
(0.000190624 0.00171464 0.24765)
(0.000357503 0.0011658 0.248987)
(0.000480904 0.00136745 0.250342)
(0.0010316 -0.000485284 0.251133)
(-0.00373169 0.00121342 0.239867)
(8.0227e-06 0.00982277 0.223414)
(0.00359249 0.0013405 0.241465)
(-0.000958377 -0.000403569 0.252631)
(-0.000438455 0.00139778 0.251958)
(-0.00033571 0.00120044 0.250608)
(-0.000169703 0.0017506 0.24928)
(-8.38454e-05 0.00176375 0.248429)
(-2.68947e-05 0.00192696 0.247875)
(7.47242e-06 0.0018825 0.247756)
(4.03374e-05 0.00192196 0.247945)
(9.86726e-05 0.00175453 0.248555)
(0.000180941 0.00173835 0.249444)
(0.000347097 0.00119044 0.250775)
(0.000445535 0.00138784 0.252109)
(0.000970498 -0.000407882 0.252792)
(-0.00357401 0.00132825 0.241615)
(8.00843e-06 0.00968565 0.22578)
(0.00343972 0.0014556 0.243152)
(-0.000895453 -0.000328969 0.254223)
(-0.000403344 0.00141654 0.253644)
(-0.000325425 0.00122375 0.25232)
(-0.000160187 0.00177213 0.250993)
(-8.03204e-05 0.00178679 0.250138)
(-2.49209e-05 0.00195175 0.249589)
(7.7331e-06 0.00190686 0.249468)
(3.88936e-05 0.00194668 0.249659)
(9.55831e-05 0.0017775 0.250264)
(0.000171793 0.0017598 0.251157)
(0.000336994 0.00121373 0.252488)
(0.000410625 0.0014065 0.253795)
(0.000907493 -0.00033358 0.254382)
(-0.00342173 0.00144324 0.243299)
(7.97632e-06 0.00953653 0.228089)
(0.00329454 0.00157034 0.24478)
(-0.000830598 -0.000257244 0.255749)
(-0.000368679 0.00143389 0.255258)
(-0.000315386 0.00124607 0.253966)
(-0.000151147 0.00179176 0.252635)
(-7.71341e-05 0.00180794 0.251776)
(-2.30945e-05 0.00197437 0.25123)
(8.0011e-06 0.00192909 0.251108)
(3.76098e-05 0.00196924 0.2513)
(9.28411e-05 0.00179858 0.251903)
(0.000163122 0.00177938 0.252799)
(0.000327129 0.00123604 0.254135)
(0.000376136 0.00142376 0.25541)
(0.00084253 -0.000262148 0.255908)
(-0.00327698 0.0015579 0.244925)
(7.92814e-06 0.00937877 0.230353)
(0.00315812 0.0016842 0.246354)
(-0.000763855 -0.000188116 0.257214)
(-0.000334414 0.00145017 0.256808)
(-0.000305523 0.00126767 0.255552)
(-0.000142521 0.00180985 0.254214)
(-7.42574e-05 0.00182749 0.253353)
(-2.13986e-05 0.00199515 0.252808)
(8.27538e-06 0.00194953 0.252685)
(3.64668e-05 0.00198997 0.252878)
(9.0416e-05 0.00181809 0.25348)
(0.000154867 0.00179743 0.254378)
(0.000317432 0.00125765 0.255721)
(0.000342023 0.00143995 0.256961)
(0.000775652 -0.000193306 0.257371)
(-0.00314095 0.00167166 0.246496)
(7.86579e-06 0.0092154 0.232572)
(0.00303101 0.00179658 0.247876)
(-0.000695368 -0.000121297 0.25862)
(-0.000300506 0.0014657 0.2583)
(-0.000295766 0.00128879 0.25708)
(-0.000134251 0.00182663 0.255735)
(-7.16586e-05 0.0018457 0.254873)
(-1.98156e-05 0.0020144 0.254329)
(8.55505e-06 0.00196847 0.254206)
(3.54454e-05 0.00200918 0.254399)
(8.82747e-05 0.00183627 0.255001)
(0.000146969 0.0018142 0.2559)
(0.000307834 0.00127879 0.25725)
(0.00030825 0.0014554 0.258453)
(0.000707007 -0.000126767 0.258775)
(-0.00301421 0.00178396 0.248016)
(7.79083e-06 0.00904841 0.234745)
(0.00291347 0.0019069 0.24935)
(-0.000625403 -5.64847e-05 0.259969)
(-0.000266924 0.00148072 0.259738)
(-0.000286047 0.00130958 0.258556)