/*--------------------------------*- C++ -*----------------------------------*\
| =========                 |                                                 |
| \\      /  F ield         | OpenFOAM: The Open Source CFD Toolbox           |
|  \\    /   O peration     | Version:  v1912                                 |
|   \\  /    A nd           | Website:  www.openfoam.com                      |
|    \\/     M anipulation  |                                                 |
\*---------------------------------------------------------------------------*/
FoamFile
{
    version     2.0;
    format      ascii;
    class       volSymmTensorField;
    location    "199.2";
    object      UPrime2Mean;
}
// * * * * * * * * * * * * * * * * * * * * * * * * * * * * * * * * * * * * * //

dimensions      [0 2 -2 0 0 0 0];


internalField   nonuniform List<symmTensor> 
10077
(
(1.72963e-09 -1.70719e-10 4.71359e-09 6.62674e-08 -2.48833e-07 1.88125e-06)
(1.20109e-05 1.68884e-07 3.84202e-07 2.42581e-09 7.00542e-09 1.42695e-07)
(2.87479e-07 2.94563e-09 3.62149e-08 3.11007e-11 5.3604e-11 1.91363e-07)
(3.70499e-08 8.76349e-11 1.27255e-08 3.25216e-13 2.66314e-11 5.92204e-08)
(2.32599e-08 1.45873e-10 7.82452e-09 9.78223e-13 2.69333e-11 7.52974e-08)
(4.22944e-09 2.46587e-11 1.15926e-09 1.68141e-13 7.90902e-13 7.02999e-08)
(1.04513e-09 6.61549e-12 1.33792e-10 5.51001e-14 -5.19425e-12 7.07774e-08)
(4.92525e-10 1.44915e-12 -2.67489e-09 2.75421e-14 6.67667e-13 7.42079e-08)
(6.86463e-10 -6.57605e-13 -5.26286e-09 3.25177e-14 -1.01382e-12 8.23295e-08)
(8.80537e-10 -2.63173e-12 -6.3671e-09 2.95706e-14 2.50358e-12 8.51857e-08)
(1.84653e-09 -6.7035e-12 -7.06344e-09 5.86167e-14 -3.81116e-12 9.01603e-08)
(4.99827e-09 -2.67028e-11 -8.24522e-09 1.79941e-13 8.80926e-12 8.87138e-08)
(2.40942e-08 -1.45979e-10 -1.4446e-08 1.00948e-12 1.63207e-11 1.00627e-07)
(3.66773e-08 -8.29665e-11 -8.97347e-09 2.69321e-13 2.00485e-12 9.30034e-08)
(2.84523e-07 -2.93322e-09 -2.84325e-08 3.10494e-11 -2.22292e-11 2.92454e-07)
(1.20236e-05 -1.69164e-07 -3.51884e-07 2.43223e-09 6.90434e-09 1.74075e-07)
(1.06291e-08 3.2505e-09 4.54483e-08 6.0975e-07 -1.65241e-06 6.58389e-06)
(2.87406e-05 7.17965e-07 7.00091e-07 1.94616e-08 4.49186e-08 1.1298e-06)
(1.24814e-06 -5.20666e-10 1.59444e-07 5.27284e-11 -6.89437e-09 1.60226e-06)
(8.70983e-08 4.01627e-10 3.84008e-08 2.8622e-12 7.93198e-11 4.52989e-07)
(5.03365e-08 4.3739e-10 3.07462e-08 4.77112e-12 8.34476e-11 6.0296e-07)
(1.02142e-08 7.32656e-11 1.3865e-10 9.40515e-13 -4.34026e-11 5.73923e-07)
(3.35081e-09 3.67959e-11 -3.42562e-09 8.34281e-13 -6.60566e-11 5.76986e-07)
(3.0238e-09 1.80268e-12 -2.24466e-08 8.89999e-13 3.48469e-11 6.04211e-07)
(4.55728e-09 -6.11773e-13 -3.91391e-08 5.80234e-13 -1.01219e-10 6.66625e-07)
(5.09175e-09 -9.9688e-12 -4.57733e-08 6.10432e-13 -1.44441e-10 6.89367e-07)
(8.54798e-09 -1.93369e-11 -4.89223e-08 5.84022e-13 -2.3805e-10 7.28672e-07)
(1.46373e-08 -5.7036e-11 -5.38226e-08 6.16548e-13 -9.67721e-11 7.15006e-07)
(5.42175e-08 -3.74401e-10 -8.18155e-08 4.98832e-12 -4.04225e-10 8.07499e-07)
(8.43507e-08 -3.9505e-10 -8.51565e-09 2.92885e-12 -3.68934e-10 7.36245e-07)
(1.23666e-06 4.09843e-10 -1.01907e-07 5.66593e-11 -9.25741e-09 2.47705e-06)
(2.8805e-05 -7.18926e-07 -4.59326e-07 1.95037e-08 4.42907e-08 1.4116e-06)
(2.41777e-08 -4.97523e-09 1.21343e-07 5.62664e-07 -1.56491e-06 9.14118e-06)
(2.32823e-05 1.07205e-06 -9.02727e-07 6.2576e-08 8.49938e-08 2.80919e-06)
(1.34001e-06 2.29593e-09 2.90941e-07 3.91215e-10 -3.10628e-08 4.23137e-06)
(7.84031e-08 1.17284e-09 5.69964e-08 3.42167e-11 2.17357e-10 1.13036e-06)
(4.19011e-08 6.63389e-10 5.51062e-08 1.93145e-11 2.26518e-12 1.53281e-06)
(1.05055e-08 1.55376e-10 -6.73261e-09 4.5598e-12 -3.50326e-10 1.4753e-06)
(5.36724e-09 9.6654e-11 -1.33102e-08 4.15634e-12 -4.06623e-10 1.48063e-06)
(7.12849e-09 1.74295e-12 -5.7486e-08 4.45544e-12 -5.20571e-11 1.54878e-06)
(1.04789e-08 1.47898e-12 -9.3821e-08 3.33545e-12 -4.28336e-10 1.70129e-06)
(1.0877e-08 -1.74338e-11 -1.08365e-07 3.24778e-12 -6.78213e-10 1.75929e-06)
(1.65414e-08 -3.1009e-11 -1.14056e-07 3.0062e-12 -9.80235e-10 1.85751e-06)
(1.95945e-08 -9.11896e-11 -1.23962e-07 3.02682e-12 -4.41453e-10 1.82016e-06)
(4.97256e-08 -4.46505e-10 -1.7999e-07 2.12907e-11 -1.94704e-09 2.06065e-06)
(7.24857e-08 -1.16911e-09 1.86065e-08 3.41842e-11 -1.56338e-09 1.87482e-06)
(1.32211e-06 -2.82738e-09 -1.61438e-07 4.1508e-10 -4.156e-08 6.59563e-06)
(2.33877e-05 -1.07349e-06 1.47949e-06 6.27126e-08 8.22337e-08 3.58527e-06)
(4.06602e-08 3.62435e-09 2.19436e-07 1.52925e-06 -3.11996e-06 1.34589e-05)
(2.02821e-05 1.27412e-06 -2.90961e-06 1.32035e-07 1.2511e-07 5.02368e-06)
(1.18888e-06 -3.40155e-09 4.55498e-07 1.32637e-09 -8.15877e-08 7.87568e-06)
(8.26038e-08 1.33064e-09 8.17819e-08 8.92545e-11 9.83986e-11 1.99572e-06)
(3.87449e-08 6.8844e-10 8.17117e-08 4.06548e-11 -7.82331e-11 2.73913e-06)
(1.15541e-08 2.25091e-10 -1.72953e-08 1.27261e-11 -8.61781e-10 2.65812e-06)
(7.74377e-09 1.7303e-10 -2.89779e-08 1.23845e-11 -9.48332e-10 2.6622e-06)
(1.24226e-08 -1.08104e-11 -1.02518e-07 1.36276e-11 -1.85236e-10 2.78131e-06)
(1.73121e-08 1.3479e-11 -1.58197e-07 9.59574e-12 -1.04739e-09 3.04251e-06)
(1.69161e-08 -1.05323e-11 -1.81692e-07 9.76585e-12 -1.72407e-09 3.14755e-06)
(2.45246e-08 -2.96063e-11 -1.8925e-07 8.41523e-12 -2.32402e-09 3.32055e-06)
(2.49861e-08 -8.53543e-11 -2.05861e-07 6.89842e-12 -1.05396e-09 3.25153e-06)
(5.11788e-08 -2.3984e-10 -2.92836e-07 4.55566e-11 -4.74081e-09 3.70963e-06)
(7.29904e-08 -1.37775e-09 5.62239e-08 8.97877e-11 -3.64487e-09 3.37147e-06)
(1.1645e-06 2.11223e-09 -2.4815e-07 1.39971e-09 -1.08363e-07 1.23772e-05)
(2.03981e-05 -1.27558e-06 3.89594e-06 1.32304e-07 1.19895e-07 6.50821e-06)
(5.85221e-08 -4.10844e-09 3.31057e-07 1.90915e-06 -3.39719e-06 2.04626e-05)
(2.15592e-05 1.55853e-06 -4.7253e-06 2.24982e-07 1.74762e-07 7.56343e-06)
(1.14879e-06 -1.31715e-08 6.09127e-07 3.32149e-09 -1.6334e-07 1.22969e-05)
(1.03552e-07 1.44949e-09 1.07472e-07 1.88709e-10 -2.6839e-10 2.95255e-06)
(3.94333e-08 7.14522e-10 1.05177e-07 7.22507e-11 -6.55555e-10 4.09395e-06)
(1.28909e-08 2.82838e-10 -2.92567e-08 2.77673e-11 -1.89047e-09 3.99886e-06)
(9.93364e-09 2.533e-10 -4.84004e-08 2.76541e-11 -1.95794e-09 3.9953e-06)
(1.83357e-08 -3.29102e-11 -1.51618e-07 3.0599e-11 -6.01484e-10 4.16794e-06)
(2.42384e-08 3.4418e-11 -2.23022e-07 2.21391e-11 -1.91673e-09 4.54091e-06)
(2.22219e-08 1.19462e-11 -2.55689e-07 2.27964e-11 -3.1996e-09 4.70179e-06)
(3.07099e-08 -2.49566e-11 -2.63655e-07 1.89648e-11 -4.16934e-09 4.95829e-06)
(2.95252e-08 -7.64632e-11 -2.87414e-07 1.44415e-11 -1.83833e-09 4.85483e-06)
(5.66908e-08 -2.41611e-11 -3.98429e-07 8.25348e-11 -9.16394e-09 5.60629e-06)
(8.97154e-08 -1.57414e-09 1.07365e-07 1.89176e-10 -6.59617e-09 5.08248e-06)
(1.11925e-06 1.10038e-08 -3.25251e-07 3.48072e-09 -2.16402e-07 1.94928e-05)
(2.16426e-05 -1.55994e-06 6.14929e-06 2.25431e-07 1.65568e-07 9.92005e-06)
(7.6433e-08 -3.4901e-09 4.49875e-07 3.04228e-06 -4.56681e-06 2.94715e-05)
(2.37377e-05 1.90661e-06 -6.34975e-06 3.44248e-07 2.39194e-07 1.01787e-05)
(1.12852e-06 -2.24257e-08 6.98565e-07 6.72154e-09 -2.77076e-07 1.7216e-05)
(1.31312e-07 1.31385e-09 1.27996e-07 3.30754e-10 -1.12487e-09 3.91124e-06)
(3.79604e-08 7.09795e-10 1.21644e-07 1.16188e-10 -1.6487e-09 5.47464e-06)
(1.35802e-08 2.72379e-10 -3.95326e-08 5.06364e-11 -3.41767e-09 5.37448e-06)
(1.15831e-08 2.93314e-10 -6.8415e-08 5.01338e-11 -3.43246e-09 5.35443e-06)
(2.43784e-08 -7.78651e-11 -1.98852e-07 5.49923e-11 -1.43516e-09 5.57573e-06)
(3.07051e-08 8.33372e-11 -2.80998e-07 3.92475e-11 -3.24698e-09 6.05015e-06)
(2.62909e-08 8.90977e-11 -3.22569e-07 4.15393e-11 -5.28181e-09 6.2726e-06)
(3.41657e-08 3.81052e-11 -3.28954e-07 3.41672e-11 -6.64318e-09 6.61575e-06)
(3.2049e-08 -6.57584e-12 -3.5893e-07 2.52657e-11 -3.02431e-09 6.48119e-06)
(5.97402e-08 2.10725e-10 -4.79072e-07 1.35097e-10 -1.53456e-08 7.60588e-06)
(1.12666e-07 -1.59756e-09 1.74522e-07 3.30995e-10 -1.02635e-08 6.86587e-06)
(1.09648e-06 1.94834e-08 -3.45606e-07 7.01408e-09 -3.66731e-07 2.75333e-05)
(2.37405e-05 -1.90785e-06 8.20005e-06 3.44912e-07 2.25408e-07 1.35094e-05)
(9.33602e-08 -7.24125e-09 5.70913e-07 4.15183e-06 -5.37038e-06 3.9642e-05)
(2.57412e-05 2.28318e-06 -7.73497e-06 4.88583e-07 3.17457e-07 1.26753e-05)
(1.10128e-06 -2.94712e-08 6.84486e-07 1.17818e-08 -4.21111e-07 2.23115e-05)
(1.62712e-07 8.60752e-10 1.40469e-07 5.3077e-10 -1.95687e-09 4.79259e-06)
(3.38049e-08 6.79009e-10 1.29858e-07 1.73952e-10 -2.60376e-09 6.76869e-06)
(1.3866e-08 1.56165e-10 -4.50724e-08 8.0291e-11 -5.27904e-09 6.67195e-06)
(1.27217e-08 2.65846e-10 -8.57844e-08 7.84685e-11 -5.23205e-09 6.62578e-06)
(3.01957e-08 -1.47577e-10 -2.39346e-07 8.46256e-11 -2.6855e-09 6.88557e-06)
(3.63937e-08 1.59121e-10 -3.27041e-07 5.97897e-11 -4.86563e-09 7.44187e-06)
(2.90607e-08 2.31395e-10 -3.7681e-07 6.49599e-11 -7.76791e-09 7.72823e-06)
(3.49331e-08 1.721e-10 -3.79315e-07 5.37239e-11 -9.44442e-09 8.15676e-06)
(3.30813e-08 1.32363e-10 -4.13473e-07 3.96141e-11 -4.37158e-09 8.00019e-06)
(5.93398e-08 3.98441e-10 -5.23168e-07 2.03285e-10 -2.22887e-08 9.57118e-06)
(1.38455e-07 -1.37029e-09 2.56532e-07 5.27581e-10 -1.37086e-08 8.59141e-06)
(1.06927e-06 2.61156e-08 -2.72257e-07 1.22297e-08 -5.56624e-07 3.59973e-05)
(2.56204e-05 -2.28394e-06 9.96403e-06 4.89483e-07 2.98858e-07 1.70189e-05)
(1.08578e-07 -1.1701e-08 6.89547e-07 5.44041e-06 -5.95944e-06 4.97567e-05)
(2.70392e-05 2.6518e-06 -8.8777e-06 6.5673e-07 4.05868e-07 1.49561e-05)
(1.06118e-06 -3.28007e-08 5.45953e-07 1.86719e-08 -5.91488e-07 2.72688e-05)
(1.95889e-07 -3.19983e-11 1.43271e-07 7.91241e-10 -2.86055e-09 5.5402e-06)
(2.832e-08 6.09239e-10 1.30209e-07 2.45903e-10 -3.63152e-09 7.89037e-06)
(1.44315e-08 -7.44308e-11 -4.38144e-08 1.16669e-10 -7.37135e-09 7.80529e-06)
(1.35987e-08 1.69825e-10 -9.79909e-08 1.13171e-10 -7.22587e-09 7.72493e-06)
(3.55596e-08 -2.31912e-10 -2.70003e-07 1.20053e-10 -4.21669e-09 8.01124e-06)
(4.11946e-08 2.54297e-10 -3.58652e-07 8.48778e-11 -6.55034e-09 8.62789e-06)
(3.08109e-08 4.24848e-10 -4.1548e-07 9.47532e-11 -1.0307e-08 8.97737e-06)
(3.37638e-08 3.52995e-10 -4.11815e-07 7.8843e-11 -1.21786e-08 9.48773e-06)
(3.39268e-08 3.34979e-10 -4.47365e-07 5.81328e-11 -5.55176e-09 9.32311e-06)
(5.64836e-08 5.16708e-10 -5.25987e-07 2.82825e-10 -2.93264e-08 1.14004e-05)
(1.65034e-07 -7.24391e-10 3.50983e-07 7.83028e-10 -1.63611e-08 1.01699e-05)
(1.03053e-06 2.96126e-08 -8.34288e-08 1.92503e-08 -7.80006e-07 4.43724e-05)
(2.67664e-05 -2.65179e-06 1.14102e-05 6.57883e-07 3.82849e-07 2.0304e-05)
(1.21663e-07 -1.76851e-08 8.00436e-07 6.92845e-06 -6.23966e-06 5.862e-05)
(2.73761e-05 2.97569e-06 -9.80632e-06 8.4497e-07 4.97697e-07 1.702e-05)
(1.01617e-06 -3.14939e-08 2.83088e-07 2.74775e-08 -7.82842e-07 3.18666e-05)
(2.29476e-07 -1.41206e-09 1.354e-07 1.1087e-09 -3.83536e-09 6.13082e-06)
(2.35847e-08 4.97593e-10 1.24028e-07 3.31623e-10 -4.9506e-09 8.79673e-06)
(1.60493e-08 -4.17591e-10 -3.50675e-08 1.5952e-10 -9.78898e-09 8.73194e-06)
(1.45661e-08 8.04077e-12 -1.03627e-07 1.54472e-10 -9.51356e-09 8.61231e-06)
(4.03683e-08 -3.15666e-10 -2.896e-07 1.60966e-10 -6.17978e-09 8.91522e-06)
(4.51735e-08 3.78765e-10 -3.75808e-07 1.15002e-10 -8.4412e-09 9.57609e-06)
(3.20103e-08 6.77494e-10 -4.38301e-07 1.31853e-10 -1.29457e-08 9.98669e-06)
(3.17913e-08 5.94526e-10 -4.26545e-07 1.10664e-10 -1.48813e-08 1.05765e-05)
(3.60661e-08 6.346e-10 -4.60264e-07 8.1822e-11 -6.68337e-09 1.04223e-05)
(5.30718e-08 6.03212e-10 -4.89416e-07 3.71957e-10 -3.64119e-08 1.30573e-05)
(1.91009e-07 4.05333e-10 4.55783e-07 1.09664e-09 -1.81351e-08 1.15781e-05)
(9.8655e-07 2.92006e-08 2.24139e-07 2.8128e-08 -1.02993e-06 5.22955e-05)
(2.69437e-05 -2.97503e-06 1.25515e-05 8.46418e-07 4.70916e-07 2.3346e-05)
(1.32472e-07 -2.45299e-08 8.98294e-07 8.56817e-06 -6.22679e-06 6.56594e-05)
(2.6848e-05 3.25079e-06 -1.05246e-05 1.05097e-06 5.8827e-07 1.89021e-05)
(9.77473e-07 -2.48959e-08 -8.76019e-08 3.81031e-08 -9.88667e-07 3.60064e-05)
(2.62772e-07 -3.20957e-09 1.16532e-07 1.47744e-09 -4.805e-09 6.57081e-06)
(2.16396e-08 3.69126e-10 1.12781e-07 4.30677e-10 -6.75722e-09 9.4861e-06)
(1.93236e-08 -8.59585e-10 -1.92374e-08 2.08825e-10 -1.26739e-08 9.44964e-06)
(1.59546e-08 -2.0952e-10 -1.02298e-07 2.0286e-10 -1.22556e-08 9.28789e-06)
(4.46258e-08 -3.83881e-10 -2.98178e-07 2.07368e-10 -8.77192e-09 9.60055e-06)
(4.84978e-08 5.40014e-10 -3.79969e-07 1.50989e-10 -1.07492e-08 1.0297e-05)
(3.31191e-08 9.97453e-10 -4.46664e-07 1.77493e-10 -1.58491e-08 1.0768e-05)
(3.01033e-08 9.10743e-10 -4.25331e-07 1.50795e-10 -1.77222e-08 1.14385e-05)
(4.06217e-08 1.06227e-09 -4.53712e-07 1.12138e-10 -7.98779e-09 1.1317e-05)
(5.11354e-08 6.83768e-10 -4.1881e-07 4.70245e-10 -4.36243e-08 1.45622e-05)
(2.15846e-07 1.96097e-09 5.69408e-07 1.46632e-09 -1.90556e-08 1.28428e-05)
(9.47084e-07 2.42844e-08 6.38213e-07 3.87347e-08 -1.29839e-06 5.96114e-05)
(2.62675e-05 -3.24991e-06 1.33896e-05 1.05272e-06 5.58418e-07 2.61832e-05)
(1.41086e-07 -3.19475e-08 9.79482e-07 1.03239e-05 -5.98995e-06 7.09933e-05)
(2.5762e-05 3.4988e-06 -1.09957e-05 1.26928e-06 6.7563e-07 2.06174e-05)
(9.51043e-07 -1.25097e-08 -5.4566e-07 5.04422e-08 -1.20756e-06 3.98366e-05)
(2.95575e-07 -5.20243e-09 8.72082e-08 1.90548e-09 -5.67669e-09 6.88096e-06)
(2.38638e-08 2.75856e-10 9.75744e-08 5.43127e-10 -9.1796e-09 9.97875e-06)
(2.45711e-08 -1.3786e-09 2.73025e-09 2.64683e-10 -1.61516e-08 9.97648e-06)
(1.79907e-08 -4.6872e-10 -9.42634e-08 2.59163e-10 -1.55841e-08 9.77011e-06)
(4.84016e-08 -4.23704e-10 -2.96387e-07 2.59831e-10 -1.21434e-08 1.00875e-05)
(5.13605e-08 7.41161e-10 -3.73033e-07 1.94439e-10 -1.36406e-08 1.08158e-05)
(3.44616e-08 1.3868e-09 -4.42417e-07 2.33584e-10 -1.91443e-08 1.13487e-05)
(2.94568e-08 1.30754e-09 -4.10238e-07 2.01488e-10 -2.08402e-08 1.21053e-05)
(4.81324e-08 1.63828e-09 -4.29535e-07 1.51305e-10 -9.63412e-09 1.20406e-05)
(5.21583e-08 7.52694e-10 -3.19736e-07 5.78283e-10 -5.09491e-08 1.5953e-05)
(2.39629e-07 3.73422e-09 6.90276e-07 1.90423e-09 -1.91807e-08 1.40028e-05)
(9.17131e-07 1.43591e-08 1.14213e-06 5.09322e-08 -1.58353e-06 6.65246e-05)
(2.50564e-05 -3.49805e-06 1.38952e-05 1.27131e-06 6.4344e-07 2.88361e-05)
(1.47749e-07 -3.95179e-08 1.0427e-06 1.21574e-05 -5.61845e-06 7.50206e-05)
(2.43568e-05 3.73682e-06 -1.11924e-05 1.49189e-06 7.58437e-07 2.21689e-05)
(9.4319e-07 5.47989e-09 -1.07374e-06 6.43498e-08 -1.4368e-06 4.34057e-05)
(3.27651e-07 -7.12799e-09 4.72719e-08 2.41375e-09 -6.3776e-09 7.10709e-06)
(3.07407e-08 2.64665e-10 7.88652e-08 6.70697e-10 -1.24824e-08 1.03278e-05)
(3.18592e-08 -1.9601e-09 3.06023e-08 3.28658e-10 -2.04871e-08 1.03644e-05)
(2.08039e-08 -7.61095e-10 -7.95607e-08 3.25471e-10 -1.97416e-08 1.01059e-05)
(5.1815e-08 -4.30383e-10 -2.84563e-07 3.20222e-10 -1.65238e-08 1.0423e-05)
(5.39547e-08 9.82053e-10 -3.56537e-07 2.47533e-10 -1.73312e-08 1.11796e-05)
(3.62249e-08 1.84687e-09 -4.27367e-07 3.02512e-10 -2.30422e-08 1.17809e-05)
(3.02533e-08 1.79003e-09 -3.8306e-07 2.65444e-10 -2.44678e-08 1.26393e-05)
(5.86564e-08 2.37701e-09 -3.89096e-07 2.02085e-10 -1.18804e-08 1.26635e-05)
(5.67636e-08 7.99666e-10 -1.95897e-07 7.01141e-10 -5.89466e-08 1.73637e-05)
(2.62325e-07 5.45578e-09 8.20789e-07 2.43511e-09 -1.87796e-08 1.51709e-05)
(9.02532e-07 -4.28276e-10 1.72161e-06 6.45753e-08 -1.8841e-06 7.31989e-05)
(2.35542e-05 -3.73661e-06 1.40569e-05 1.4943e-06 7.24398e-07 3.1342e-05)
(1.52806e-07 -4.69129e-08 1.08823e-06 1.4089e-05 -5.19844e-06 7.81931e-05)
(2.27523e-05 3.97803e-06 -1.10494e-05 1.72202e-06 8.37544e-07 2.33785e-05)
(9.54685e-07 2.83598e-08 -1.6436e-06 7.94711e-08 -1.6637e-06 4.63587e-05)
(3.58535e-07 -8.84079e-09 -2.40914e-09 3.00552e-09 -6.83611e-09 7.25181e-06)
(4.21677e-08 3.52348e-10 5.64581e-08 8.15723e-10 -1.67007e-08 1.05333e-05)
(4.11284e-08 -2.59563e-09 6.34849e-08 4.02436e-10 -2.57066e-08 1.06087e-05)
(2.44611e-08 -1.08265e-09 -5.87678e-08 4.04181e-10 -2.47646e-08 1.02891e-05)
(5.49926e-08 -4.03353e-10 -2.63475e-07 3.91032e-10 -2.19452e-08 1.05984e-05)
(5.64363e-08 1.2602e-09 -3.31434e-07 3.13412e-10 -2.18656e-08 1.13769e-05)
(3.84972e-08 2.37512e-09 -4.01866e-07 3.87352e-10 -2.75605e-08 1.20571e-05)
(3.26449e-08 2.358e-09 -3.43608e-07 3.46071e-10 -2.86526e-08 1.30351e-05)
(7.20457e-08 3.28616e-09 -3.31589e-07 2.68164e-10 -1.478e-08 1.31793e-05)
(6.49702e-08 8.22797e-10 -4.76816e-08 8.43616e-10 -6.7583e-08 1.87835e-05)
(2.83626e-07 6.98369e-09 9.59415e-07 3.06531e-09 -1.79446e-08 1.63446e-05)
(9.03966e-07 -1.9412e-08 2.34885e-06 7.92908e-08 -2.18608e-06 7.91298e-05)
(2.18822e-05 -3.97855e-06 1.38178e-05 1.72485e-06 8.0178e-07 3.34999e-05)
(1.56602e-07 -5.39535e-08 1.117e-06 1.60727e-05 -4.82947e-06 8.103e-05)
(2.09618e-05 4.20541e-06 -1.05345e-05 1.96141e-06 9.12255e-07 2.40161e-05)
(9.79967e-07 5.53221e-08 -2.21807e-06 9.54673e-08 -1.87644e-06 4.84041e-05)
(3.87345e-07 -1.03009e-08 -5.91369e-08 3.65851e-09 -7.07686e-09 7.2871e-06)
(5.7658e-08 5.19689e-10 3.07416e-08 9.80471e-10 -2.16812e-08 1.05588e-05)
(5.21799e-08 -3.27471e-09 9.89912e-08 4.87766e-10 -3.16682e-08 1.06663e-05)
(2.89698e-08 -1.42968e-09 -3.35922e-08 4.97837e-10 -3.05522e-08 1.02813e-05)
(5.80344e-08 -3.45584e-10 -2.3515e-07 4.75146e-10 -2.83136e-08 1.05742e-05)
(5.89171e-08 1.57106e-09 -2.99365e-07 3.95785e-10 -2.72547e-08 1.13656e-05)
(4.13276e-08 2.96534e-09 -3.66413e-07 4.91665e-10 -3.27047e-08 1.21306e-05)
(3.66878e-08 3.00591e-09 -2.92029e-07 4.47297e-10 -3.34387e-08 1.32342e-05)
(8.80344e-08 4.36396e-09 -2.57488e-07 3.53982e-10 -1.84036e-08 1.35171e-05)
(7.65183e-08 8.46447e-10 1.21506e-07 1.01128e-09 -7.64343e-08 2.00438e-05)
(3.02945e-07 8.27692e-09 1.09788e-06 3.77463e-09 -1.69754e-08 1.73906e-05)
(9.16202e-07 -4.18688e-08 2.98386e-06 9.47307e-08 -2.47425e-06 8.37396e-05)
(2.00563e-05 -4.20685e-06 1.31454e-05 1.96467e-06 8.74914e-07 3.4977e-05)
(1.59463e-07 -6.04513e-08 1.12971e-06 1.79913e-05 -4.6123e-06 8.36259e-05)
(1.90225e-05 4.39938e-06 -9.70551e-06 2.20808e-06 9.80117e-07 2.40337e-05)
(1.01475e-06 8.52462e-08 -2.76207e-06 1.12021e-07 -2.06723e-06 4.94685e-05)
(4.13021e-07 -1.1495e-08 -1.20847e-07 4.35017e-09 -7.1336e-09 7.22696e-06)
(7.64575e-08 7.34387e-10 2.55746e-09 1.16755e-09 -2.73486e-08 1.04213e-05)
(6.46477e-08 -3.98672e-09 1.35123e-07 5.87849e-10 -3.83091e-08 1.05522e-05)
(3.42729e-08 -1.8e-09 -5.70326e-09 6.10073e-10 -3.70592e-08 1.00989e-05)
(6.10199e-08 -2.66179e-10 -2.01825e-07 5.76479e-10 -3.55613e-08 1.03669e-05)
(6.14802e-08 1.90478e-09 -2.62573e-07 4.98667e-10 -3.3532e-08 1.116e-05)
(4.47126e-08 3.603e-09 -3.23045e-07 6.1911e-10 -3.85666e-08 1.20092e-05)
(4.23222e-08 3.71678e-09 -2.30528e-07 5.73092e-10 -3.89764e-08 1.32386e-05)
(1.06115e-07 5.5844e-09 -1.69923e-07 4.64024e-10 -2.29277e-08 1.36729e-05)
(9.09579e-08 8.90247e-10 3.0521e-07 1.21251e-09 -8.56611e-08 2.10979e-05)
(3.19578e-07 9.30229e-09 1.23097e-06 4.54226e-09 -1.64463e-08 1.82707e-05)
(9.35633e-07 -6.68443e-08 3.58979e-06 1.10613e-07 -2.73932e-06 8.68332e-05)
(1.81154e-05 -4.40214e-06 1.21048e-05 2.21181e-06 9.41176e-07 3.56627e-05)
(1.61693e-07 -6.6292e-08 1.12633e-06 1.98803e-05 -4.46235e-06 8.55294e-05)
(1.70342e-05 4.56041e-06 -8.63657e-06 2.46377e-06 1.03949e-06 2.34395e-05)
(1.05522e-06 1.16753e-07 -3.24519e-06 1.28805e-07 -2.22967e-06 4.95532e-05)
(4.34824e-07 -1.23801e-08 -1.85518e-07 5.08526e-09 -6.98324e-09 7.08986e-06)
(9.76761e-08 9.74999e-10 -2.71097e-08 1.38115e-09 -3.35191e-08 1.01453e-05)
(7.80861e-08 -4.71984e-09 1.70073e-07 7.06764e-10 -4.54705e-08 1.02905e-05)
(4.02579e-08 -2.19105e-09 2.3255e-08 7.45305e-10 -4.41426e-08 9.76762e-06)
(6.40063e-08 -1.76434e-10 -1.6574e-07 6.99887e-10 -4.35246e-08 1.00038e-05)
(6.41731e-08 2.24846e-09 -2.23281e-07 6.27056e-10 -4.06102e-08 1.07879e-05)
(4.85858e-08 4.26612e-09 -2.7404e-07 7.74012e-10 -4.51225e-08 1.1719e-05)
(4.93508e-08 4.4622e-09 -1.61794e-07 7.28224e-10 -4.53088e-08 1.30713e-05)
(1.25629e-07 6.90376e-09 -7.23968e-08 6.03812e-10 -2.84025e-08 1.36651e-05)
(1.07708e-07 9.48831e-10 4.96566e-07 1.45716e-09 -9.5332e-08 2.19362e-05)
(3.33093e-07 1.00022e-08 1.35573e-06 5.37449e-09 -1.67379e-08 1.89828e-05)
(9.59344e-07 -9.31502e-08 4.13463e-06 1.26647e-07 -2.97375e-06 8.83614e-05)
(1.61571e-05 -4.56473e-06 1.07857e-05 2.468e-06 9.98614e-07 3.55402e-05)
(1.63554e-07 -7.14899e-08 1.10757e-06 2.18601e-05 -4.23534e-06 8.64236e-05)
(1.50655e-05 4.68328e-06 -7.41246e-06 2.72757e-06 1.0884e-06 2.22889e-05)
(1.09686e-06 1.48457e-07 -3.64393e-06 1.4552e-07 -2.35929e-06 4.87181e-05)
(4.52268e-07 -1.29155e-08 -2.51061e-07 5.87083e-09 -6.60082e-09 6.89376e-06)
(1.20305e-07 1.22247e-09 -5.71472e-08 1.62623e-09 -3.99692e-08 9.7569e-06)
(9.20022e-08 -5.46349e-09 2.02319e-07 8.49709e-10 -5.29811e-08 9.90838e-06)
(4.67676e-08 -2.6012e-09 5.17854e-08 9.09013e-10 -5.16322e-08 9.31614e-06)
(6.70244e-08 -9.0601e-11 -1.28975e-07 8.51507e-10 -5.20011e-08 9.51532e-06)
(6.70091e-08 2.58697e-09 -1.83522e-07 7.87067e-10 -4.83552e-08 1.02816e-05)
(5.28292e-08 4.92909e-09 -2.21674e-07 9.61902e-10 -5.23019e-08 1.12912e-05)
(5.7465e-08 5.2066e-09 -8.86326e-08 9.18521e-10 -5.24375e-08 1.27604e-05)
(1.45826e-07 8.2678e-09 3.13772e-08 7.8004e-10 -3.48283e-08 1.35168e-05)
(1.26047e-07 1.0042e-09 6.88749e-07 1.75611e-09 -1.05494e-07 2.25586e-05)
(3.43263e-07 1.03243e-08 1.4697e-06 6.28094e-09 -1.81491e-08 1.9533e-05)
(9.83836e-07 -1.19602e-07 4.593e-06 1.42573e-07 -3.17209e-06 8.83686e-05)
(1.42454e-05 -4.68932e-06 9.28741e-06 2.73237e-06 1.04507e-06 3.46547e-05)
(1.65253e-07 -7.60375e-08 1.07536e-06 2.39484e-05 -3.92632e-06 8.63014e-05)
(1.31547e-05 4.75779e-06 -6.12195e-06 2.99707e-06 1.1251e-06 2.06882e-05)
(1.13509e-06 1.79076e-07 -3.9435e-06 1.61899e-07 -2.45385e-06 4.70825e-05)
(4.64993e-07 -1.31095e-08 -3.15377e-07 6.70571e-09 -6.00716e-09 6.65598e-06)
(1.43247e-07 1.45286e-09 -8.6374e-08 1.90676e-09 -4.65498e-08 9.28309e-06)
(1.05875e-07 -6.21011e-09 2.3075e-07 1.02354e-09 -6.06875e-08 9.43435e-06)
(5.36096e-08 -3.03034e-09 7.86634e-08 1.10809e-09 -5.93708e-08 8.77572e-06)
(7.00793e-08 -2.41214e-11 -9.33122e-08 1.03897e-09 -6.07929e-08 8.93501e-06)
(6.99714e-08 2.90457e-09 -1.45073e-07 9.86122e-10 -5.66087e-08 9.67633e-06)
(5.72862e-08 5.56613e-09 -1.68199e-07 1.18981e-09 -6.00106e-08 1.07599e-05)
(6.62742e-08 5.91185e-09 -1.3932e-08 1.15104e-09 -6.03442e-08 1.23368e-05)
(1.65896e-07 9.61751e-09 1.37473e-07 1.00078e-09 -4.21922e-08 1.32534e-05)
(1.45125e-07 1.03257e-09 8.75185e-07 2.11942e-09 -1.16328e-07 2.2973e-05)
(3.49947e-07 1.02645e-08 1.57072e-06 7.2637e-09 -2.09747e-08 1.99313e-05)
(1.00557e-06 -1.45128e-07 4.94826e-06 1.5818e-07 -3.33148e-06 8.69931e-05)
(1.24133e-05 -4.7656e-06 7.71102e-06 3.00253e-06 1.07869e-06 3.31137e-05)
(1.66944e-07 -7.98514e-08 1.03227e-06 2.61156e-05 -3.54403e-06 8.52983e-05)
(1.13181e-05 4.76986e-06 -4.84883e-06 3.26889e-06 1.14862e-06 1.87841e-05)
(1.1659e-06 2.07467e-07 -4.13854e-06 1.77691e-07 -2.51335e-06 4.48141e-05)
(4.72817e-07 -1.30039e-08 -3.76247e-07 7.57464e-09 -5.37316e-09 6.39337e-06)
(1.65405e-07 1.64232e-09 -1.13651e-07 2.22785e-09 -5.31134e-08 8.75376e-06)
(1.19186e-07 -6.956e-09 2.54826e-07 1.23637e-09 -6.85299e-08 8.89982e-06)
(6.05683e-08 -3.48012e-09 1.03064e-07 1.35068e-09 -6.72536e-08 8.18081e-06)
(7.31525e-08 6.1532e-12 -6.00858e-08 1.27194e-09 -6.97071e-08 8.29953e-06)
(7.30185e-08 3.18669e-09 -1.09376e-07 1.23333e-09 -6.51953e-08 9.00963e-06)
(6.17753e-08 6.15545e-09 -1.15856e-07 1.46655e-09 -6.81327e-08 1.01604e-05)
(7.53372e-08 6.54168e-09 5.93394e-08 1.43391e-09 -6.90201e-08 1.18328e-05)
(1.85024e-07 1.08938e-08 2.41693e-07 1.27525e-09 -5.05292e-08 1.29016e-05)
(1.64032e-07 1.00426e-09 1.04978e-06 2.55882e-09 -1.28075e-07 2.31963e-05)
(3.53132e-07 9.85323e-09 1.65659e-06 8.31254e-09 -2.56556e-08 2.01876e-05)
(1.02142e-06 -1.68792e-07 5.19346e-06 1.73284e-07 -3.45146e-06 8.44594e-05)
(1.06714e-05 -4.77943e-06 6.14977e-06 3.27511e-06 1.09846e-06 3.10778e-05)
(1.6873e-07 -8.28396e-08 9.81249e-07 2.83585e-05 -3.11684e-06 8.36351e-05)
(9.56165e-06 4.70417e-06 -3.66167e-06 3.53926e-06 1.15866e-06 1.67311e-05)
(1.18614e-06 2.32677e-07 -4.23228e-06 1.92667e-07 -2.53963e-06 4.20997e-05)
(4.75911e-07 -1.26654e-08 -4.30763e-07 8.44924e-09 -4.82091e-09 6.11978e-06)
(1.85784e-07 1.76418e-09 -1.37988e-07 2.59373e-09 -5.95574e-08 8.20125e-06)
(1.31473e-07 -7.69912e-09 2.74744e-07 1.49695e-09 -7.63871e-08 8.33749e-06)
(6.74203e-08 -3.95154e-09 1.24658e-07 1.64563e-09 -7.51388e-08 7.56742e-06)
(7.6207e-08 -1.23294e-11 -3.00351e-08 1.55975e-09 -7.85541e-08 7.6454e-06)
(7.6092e-08 3.42171e-09 -7.74563e-08 1.53745e-09 -7.39774e-08 8.31598e-06)
(6.61094e-08 6.67474e-09 -6.68552e-08 1.80059e-09 -7.65966e-08 9.52224e-06)
(8.42028e-08 7.06285e-09 1.2809e-07 1.77632e-09 -7.8412e-08 1.12739e-05)
(2.0247e-07 1.20444e-08 3.39336e-07 1.61364e-09 -5.97727e-08 1.24786e-05)
(1.819e-07 8.95416e-10 1.20675e-06 3.08448e-09 -1.40835e-07 2.32392e-05)
(3.53083e-07 9.13897e-09 1.72436e-06 9.40526e-09 -3.23736e-08 2.02946e-05)
(1.02898e-06 -1.89822e-07 5.32997e-06 1.87726e-07 -3.53324e-06 8.10245e-05)
(9.01961e-06 -4.71541e-06 4.67981e-06 3.54628e-06 1.10413e-06 2.87268e-05)
(1.70667e-07 -8.49384e-08 9.25102e-07 3.06409e-05 -2.68555e-06 8.15129e-05)
(7.89251e-06 4.54745e-06 -2.60506e-06 3.80453e-06 1.15559e-06 1.46448e-05)
(1.19378e-06 2.53981e-07 -4.23399e-06 2.06628e-07 -2.53554e-06 3.91091e-05)
(4.74895e-07 -1.20562e-08 -4.74514e-07 9.33758e-09 -4.53305e-09 5.83662e-06)
(2.03643e-07 1.80501e-09 -1.58151e-07 3.00784e-09 -6.56918e-08 7.65169e-06)
(1.4238e-07 -8.43166e-09 2.913e-07 1.81232e-09 -8.42069e-08 7.76501e-06)
(7.39614e-08 -4.44366e-09 1.43523e-07 2.00073e-09 -8.28995e-08 6.95899e-06)
(7.91971e-08 -8.78297e-11 -3.50542e-09 1.912e-09 -8.70962e-08 6.9955e-06)
(7.91274e-08 3.60531e-09 -4.99225e-08 1.90736e-09 -8.27591e-08 7.61538e-06)
(7.01243e-08 7.10759e-09 -2.29824e-08 2.20073e-09 -8.52702e-08 8.85862e-06)
(9.24679e-08 7.44022e-09 1.88903e-07 2.1876e-09 -8.85312e-08 1.06573e-05)
(2.17663e-07 1.29982e-08 4.24445e-07 2.0255e-09 -7.00776e-08 1.19564e-05)
(1.98042e-07 6.61572e-10 1.33974e-06 3.70966e-09 -1.54484e-07 2.30595e-05)
(3.50415e-07 8.05637e-09 1.76984e-06 1.05569e-08 -4.14895e-08 2.01982e-05)
(1.02667e-06 -2.07627e-07 5.36501e-06 2.01375e-07 -3.57896e-06 7.69309e-05)
(7.45927e-06 -4.56013e-06 3.35308e-06 3.8124e-06 1.09612e-06 2.62046e-05)
(1.72772e-07 -8.60832e-08 8.65989e-07 3.28728e-05 -2.2854e-06 7.90161e-05)
(6.32815e-06 4.29156e-06 -1.70371e-06 4.06138e-06 1.14037e-06 1.25821e-05)
(1.18789e-06 2.7089e-07 -4.15623e-06 2.19422e-07 -2.50418e-06 3.59758e-05)
(4.70533e-07 -1.10923e-08 -5.0518e-07 1.02745e-08 -4.51292e-09 5.52269e-06)
(2.18558e-07 1.79983e-09 -1.70669e-07 3.47727e-09 -7.1226e-08 7.0863e-06)
(1.51704e-07 -9.16423e-09 3.03378e-07 2.19125e-09 -9.17014e-08 7.19215e-06)
(8.00438e-08 -4.96217e-09 1.59031e-07 2.42511e-09 -9.02378e-08 6.36846e-06)
(8.20768e-08 -2.25152e-10 1.90927e-08 2.33737e-09 -9.5076e-08 6.3644e-06)
(8.20643e-08 3.73621e-09 -2.70209e-08 2.35254e-09 -9.12439e-08 6.92851e-06)
(7.36957e-08 7.4429e-09 1.54184e-08 2.67628e-09 -9.38958e-08 8.19414e-06)
(9.98364e-08 7.65633e-09 2.41407e-07 2.67985e-09 -9.90908e-08 1.00158e-05)
(2.30253e-07 1.37215e-08 4.96971e-07 2.52345e-09 -8.113e-08 1.13701e-05)
(2.11999e-07 2.27903e-10 1.44345e-06 4.45147e-09 -1.68999e-07 2.25916e-05)
(3.45762e-07 6.51527e-09 1.79427e-06 1.18114e-08 -5.29935e-08 1.98824e-05)
(1.01376e-06 -2.21793e-07 5.30979e-06 2.1413e-07 -3.59124e-06 7.23903e-05)
(6.00206e-06 -4.30533e-06 2.202e-06 4.07014e-06 1.07552e-06 2.35959e-05)
(1.75037e-07 -8.62589e-08 8.05499e-07 3.49737e-05 -1.93457e-06 7.6151e-05)
(4.90256e-06 3.9386e-06 -9.70506e-07 4.30669e-06 1.11453e-06 1.05785e-05)
(1.16853e-06 2.83161e-07 -4.01266e-06 2.30949e-07 -2.44852e-06 3.27945e-05)
(4.63405e-07 -9.77393e-09 -5.26027e-07 1.12711e-08 -4.43725e-09 5.18887e-06)
(2.30402e-07 1.76534e-09 -1.75715e-07 4.00662e-09 -7.59511e-08 6.50765e-06)
(1.59348e-07 -9.91471e-09 3.10047e-07 2.64153e-09 -9.84681e-08 6.63841e-06)
(8.55614e-08 -5.51702e-09 1.70593e-07 2.92698e-09 -9.67849e-08 5.81046e-06)
(8.48033e-08 -4.24271e-10 3.75078e-08 2.84215e-09 -1.02211e-07 5.76728e-06)
(8.48505e-08 3.82057e-09 -8.63953e-09 2.88096e-09 -9.90778e-08 6.27868e-06)
(7.67347e-08 7.68307e-09 4.8837e-08 3.23544e-09 -1.02115e-07 7.56128e-06)
(1.06101e-07 7.72951e-09 2.87382e-07 3.26471e-09 -1.09538e-07 9.40584e-06)
(2.40048e-07 1.4243e-08 5.60829e-07 3.11946e-09 -9.21809e-08 1.08017e-05)
(2.23534e-07 -4.07833e-10 1.52112e-06 5.31586e-09 -1.8396e-07 2.19382e-05)
(3.39537e-07 4.54192e-09 1.80508e-06 1.31894e-08 -6.60127e-08 1.94502e-05)
(9.90281e-07 -2.32116e-07 5.17738e-06 2.25927e-07 -3.57274e-06 6.75607e-05)
(4.67635e-06 -3.95265e-06 1.24542e-06 4.31624e-06 1.04414e-06 2.09587e-05)
(1.77437e-07 -8.55032e-08 7.44946e-07 3.69158e-05 -1.63554e-06 7.29437e-05)
(3.67445e-06 3.51473e-06 -4.03291e-07 4.54207e-06 1.08109e-06 8.67172e-06)
(1.13654e-06 2.90825e-07 -3.81586e-06 2.41178e-07 -2.37095e-06 2.96165e-05)
(4.53983e-07 -8.17502e-09 -5.39872e-07 1.22938e-08 -4.03354e-09 4.85736e-06)
(2.39177e-07 1.68118e-09 -1.75812e-07 4.59634e-09 -7.97733e-08 5.94145e-06)
(1.65274e-07 -1.0686e-08 3.12272e-07 3.16566e-09 -1.04254e-07 6.11711e-06)
(9.04337e-08 -6.11243e-09 1.78432e-07 3.50941e-09 -1.02311e-07 5.29341e-06)
(8.73407e-08 -6.8078e-10 5.17927e-08 3.42925e-09 -1.08312e-07 5.21222e-06)
(8.74448e-08 3.87035e-09 5.53309e-09 3.49724e-09 -1.06041e-07 5.67703e-06)
(7.91892e-08 7.83516e-09 7.76097e-08 3.88355e-09 -1.09721e-07 6.97407e-06)
(1.11122e-07 7.67797e-09 3.2732e-07 3.95001e-09 -1.19554e-07 8.84374e-06)
(2.46975e-07 1.45786e-08 6.16738e-07 3.8212e-09 -1.02837e-07 1.02717e-05)
(2.32532e-07 -1.19946e-09 1.57801e-06 6.30441e-09 -1.98845e-07 2.12181e-05)
(3.32064e-07 2.22422e-09 1.8065e-06 1.46662e-08 -7.97886e-08 1.89728e-05)
(9.56919e-07 -2.38626e-07 4.98104e-06 2.36756e-07 -3.52572e-06 6.25453e-05)
(3.53644e-06 -3.52782e-06 4.84777e-07 4.55241e-06 1.00516e-06 1.83422e-05)
(1.79942e-07 -8.38853e-08 6.85451e-07 3.8703e-05 -1.38447e-06 6.94704e-05)
(2.68527e-06 3.05106e-06 1.22163e-08 4.75763e-06 1.04215e-06 6.90328e-06)
(1.09338e-06 2.94178e-07 -3.57709e-06 2.50139e-07 -2.2733e-06 2.64691e-05)