/*--------------------------------*- C++ -*----------------------------------*\
| =========                 |                                                 |
| \\      /  F ield         | OpenFOAM: The Open Source CFD Toolbox           |
|  \\    /   O peration     | Version:  v1912                                 |
|   \\  /    A nd           | Website:  www.openfoam.com                      |
|    \\/     M anipulation  |                                                 |
\*---------------------------------------------------------------------------*/
FoamFile
{
    version     2.0;
    format      ascii;
    class       volSymmTensorField;
    location    "198";
    object      UPrime2Mean;
}
// * * * * * * * * * * * * * * * * * * * * * * * * * * * * * * * * * * * * * //

dimensions      [0 2 -2 0 0 0 0];


internalField   nonuniform List<symmTensor> 
10077
(
(1.61944e-07 2.70505e-09 6.18511e-08 1.10596e-07 -7.50005e-07 9.20081e-06)
(1.0702e-07 1.21993e-08 -4.44295e-07 1.4271e-08 -2.31374e-07 7.94282e-06)
(5.74694e-08 -1.00088e-08 -2.48039e-07 1.54754e-08 1.14283e-07 4.71594e-06)
(2.47208e-08 3.06311e-09 -1.65457e-07 1.49057e-08 -4.36207e-08 2.4066e-06)
(1.94238e-08 1.43409e-08 -4.28174e-08 2.9927e-08 -7.00711e-09 3.73234e-07)
(2.51733e-08 3.78453e-09 -2.29956e-08 2.82019e-08 2.62971e-08 1.74354e-07)
(4.34302e-08 -7.40888e-09 -2.98588e-08 2.33291e-08 5.46009e-08 3.35606e-07)
(1.03544e-07 -2.30184e-08 -2.72305e-08 1.60055e-08 5.00247e-08 4.90732e-07)
(1.23194e-07 6.90813e-09 7.01281e-09 2.88159e-09 -1.27371e-08 8.44996e-07)
(8.27548e-08 2.52397e-08 9.16246e-09 1.49663e-08 -3.18158e-08 9.83877e-07)
(6.60124e-08 2.69319e-08 -9.931e-09 2.16942e-08 -5.59822e-08 8.45049e-07)
(4.85703e-08 2.35953e-08 -7.89415e-09 2.73096e-08 -6.14728e-08 5.31079e-07)
(3.29771e-08 1.48736e-08 5.96687e-09 2.72756e-08 -6.39943e-08 3.31362e-07)
(3.3921e-08 7.58369e-09 4.706e-08 3.27065e-08 -3.65853e-08 3.87068e-07)
(5.90748e-08 1.68749e-08 1.2111e-07 3.77964e-08 4.2535e-08 9.4448e-07)
(1.79355e-07 -1.55037e-08 3.7872e-07 2.82143e-08 -1.30212e-07 3.652e-06)
(1.6198e-07 1.77778e-09 8.2643e-08 1.03537e-07 -6.93447e-07 8.75871e-06)
(1.04111e-07 1.14232e-08 -4.11531e-07 1.37024e-08 -2.19908e-07 7.8014e-06)
(5.64141e-08 -9.42105e-09 -2.35288e-07 1.47859e-08 1.08335e-07 4.83751e-06)
(2.37882e-08 2.86759e-09 -1.58871e-07 1.4512e-08 -4.68583e-08 2.44728e-06)
(2.00383e-08 1.43229e-08 -3.9787e-08 2.99444e-08 -1.93098e-09 3.55005e-07)
(2.62125e-08 4.09065e-09 -1.77195e-08 2.86318e-08 3.53891e-08 2.07969e-07)
(4.48199e-08 -6.77129e-09 -2.41232e-08 2.39609e-08 6.47028e-08 4.18973e-07)
(1.06095e-07 -2.27372e-08 -2.04114e-08 1.68139e-08 5.76355e-08 5.9157e-07)
(1.2291e-07 5.97565e-09 7.13297e-09 2.52173e-09 -1.35157e-08 9.46286e-07)
(8.12344e-08 2.44477e-08 8.49579e-09 1.40747e-08 -3.45434e-08 1.06921e-06)
(6.46867e-08 2.63486e-08 -1.12122e-08 2.07397e-08 -5.82112e-08 8.99058e-07)
(4.81017e-08 2.33598e-08 -8.23137e-09 2.64116e-08 -6.20061e-08 5.42359e-07)
(3.36777e-08 1.48658e-08 1.19952e-08 2.65948e-08 -5.94254e-08 3.21518e-07)
(3.56378e-08 7.85004e-09 5.73914e-08 3.19579e-08 -3.07149e-08 4.16415e-07)
(6.17648e-08 1.69485e-08 1.34111e-07 3.63941e-08 4.5237e-08 1.02124e-06)
(1.81269e-07 -1.51251e-08 3.80921e-07 2.70671e-08 -1.21907e-07 3.56587e-06)
(1.62279e-07 9.4625e-10 1.02575e-07 9.69289e-08 -6.39916e-07 8.33e-06)
(1.01437e-07 1.06453e-08 -3.78382e-07 1.31583e-08 -2.08561e-07 7.65099e-06)
(5.54212e-08 -8.83178e-09 -2.20811e-07 1.41453e-08 1.02477e-07 4.93907e-06)
(2.29168e-08 2.65026e-09 -1.51653e-07 1.40813e-08 -4.97123e-08 2.48099e-06)
(2.04924e-08 1.41987e-08 -3.68193e-08 2.98509e-08 2.99351e-09 3.42343e-07)
(2.70952e-08 4.35958e-09 -1.21046e-08 2.89533e-08 4.41403e-08 2.51515e-07)
(4.61102e-08 -6.11946e-09 -1.75351e-08 2.45101e-08 7.44597e-08 5.13315e-07)
(1.0873e-07 -2.23221e-08 -1.23418e-08 1.76064e-08 6.52178e-08 7.01786e-07)
(1.22721e-07 5.09848e-09 7.81988e-09 2.21153e-09 -1.38585e-08 1.05298e-06)
(7.97149e-08 2.36421e-08 7.56105e-09 1.32102e-08 -3.70564e-08 1.15835e-06)
(6.33184e-08 2.57652e-08 -1.31121e-08 1.97975e-08 -6.02054e-08 9.57002e-07)
(4.75441e-08 2.31434e-08 -9.39415e-09 2.54991e-08 -6.25288e-08 5.57963e-07)
(3.44087e-08 1.48407e-08 1.76966e-08 2.58923e-08 -5.52306e-08 3.14974e-07)
(3.74005e-08 8.0435e-09 6.75761e-08 3.11854e-08 -2.55775e-08 4.48456e-07)
(6.4453e-08 1.68997e-08 1.46486e-07 3.50499e-08 4.70735e-08 1.09229e-06)
(1.8332e-07 -1.47583e-08 3.82113e-07 2.59414e-08 -1.13786e-07 3.47394e-06)
(1.62839e-07 2.13722e-10 1.21658e-07 9.0752e-08 -5.89294e-07 7.91652e-06)
(9.90091e-08 9.88031e-09 -3.45089e-07 1.26369e-08 -1.97416e-07 7.49501e-06)
(5.45124e-08 -8.23945e-09 -2.04827e-07 1.3546e-08 9.68363e-08 5.02296e-06)
(2.21103e-08 2.41503e-09 -1.4383e-07 1.36112e-08 -5.21497e-08 2.50905e-06)
(2.0763e-08 1.39664e-08 -3.40446e-08 2.96476e-08 7.72327e-09 3.34569e-07)
(2.77713e-08 4.58693e-09 -6.37951e-09 2.91647e-08 5.2526e-08 3.03462e-07)
(4.72323e-08 -5.46539e-09 -1.03922e-08 2.49718e-08 8.38322e-08 6.1669e-07)
(1.11348e-07 -2.17829e-08 -3.3722e-09 1.83758e-08 7.27427e-08 8.19559e-07)
(1.22634e-07 4.28251e-09 9.09712e-09 1.95097e-09 -1.37485e-08 1.16454e-06)
(7.82039e-08 2.28239e-08 6.44284e-09 1.23765e-08 -3.93336e-08 1.25112e-06)
(6.19143e-08 2.51778e-08 -1.55188e-08 1.88738e-08 -6.19518e-08 1.01887e-06)
(4.68984e-08 2.29323e-08 -1.12936e-08 2.45806e-08 -6.30191e-08 5.77951e-07)
(3.51643e-08 1.47898e-08 2.30567e-08 2.51757e-08 -5.13868e-08 3.11067e-07)
(3.9195e-08 8.16015e-09 7.75391e-08 3.03968e-08 -2.11105e-08 4.81965e-07)
(6.71211e-08 1.67349e-08 1.58218e-07 3.37655e-08 4.81924e-08 1.1574e-06)
(1.85469e-07 -1.44145e-08 3.82414e-07 2.48454e-08 -1.05908e-07 3.37829e-06)
(1.63655e-07 -4.22405e-10 1.39887e-07 8.49727e-08 -5.41525e-07 7.52e-06)
(9.68357e-08 9.13512e-09 -3.11888e-07 1.21385e-08 -1.86535e-07 7.33629e-06)
(5.3709e-08 -7.64573e-09 -1.8756e-07 1.2982e-08 9.14717e-08 5.0912e-06)
(2.13773e-08 2.16411e-09 -1.3545e-07 1.31103e-08 -5.41641e-08 2.53253e-06)
(2.08522e-08 1.36278e-08 -3.15424e-08 2.93435e-08 1.22083e-08 3.3097e-07)
(2.82249e-08 4.76329e-09 -7.01863e-10 2.92745e-08 6.04903e-08 3.62311e-07)
(4.81606e-08 -4.82628e-09 -2.90193e-09 2.53493e-08 9.27491e-08 7.2724e-07)
(1.13911e-07 -2.11419e-08 6.25787e-09 1.91209e-08 8.01428e-08 9.43144e-07)
(1.22665e-07 3.52745e-09 1.09847e-08 1.74296e-09 -1.31993e-08 1.28035e-06)
(7.67131e-08 2.19959e-08 5.22903e-09 1.15778e-08 -4.13664e-08 1.34732e-06)
(6.04849e-08 2.45854e-08 -1.83133e-08 1.79741e-08 -6.34483e-08 1.0846e-06)
(4.61673e-08 2.27182e-08 -1.38257e-08 2.36626e-08 -6.3461e-08 6.02349e-07)
(3.59362e-08 1.47102e-08 2.80671e-08 2.44516e-08 -4.7875e-08 3.0929e-07)
(4.10056e-08 8.20319e-09 8.72188e-08 2.95964e-08 -1.72544e-08 5.16003e-07)
(6.97495e-08 1.64646e-08 1.69297e-07 3.25338e-08 4.87175e-08 1.21661e-06)
(1.8768e-07 -1.40942e-08 3.81942e-07 2.37754e-08 -9.82932e-08 3.28079e-06)
(1.64716e-07 -9.63224e-10 1.57248e-07 7.95694e-08 -4.9655e-07 7.14194e-06)
(9.49221e-08 8.41857e-09 -2.79004e-07 1.16591e-08 -1.75961e-07 7.17707e-06)
(5.30317e-08 -7.05023e-09 -1.69238e-07 1.24459e-08 8.64409e-08 5.14554e-06)
(2.073e-08 1.90139e-09 -1.2657e-07 1.258e-08 -5.57392e-08 2.55223e-06)
(2.07735e-08 1.31853e-08 -2.93597e-08 2.8942e-08 1.64332e-08 3.30933e-07)
(2.84586e-08 4.8807e-09 4.81609e-09 2.92847e-08 6.8006e-08 4.26734e-07)
(4.88905e-08 -4.21593e-09 4.78301e-09 2.56413e-08 1.01175e-07 8.43322e-07)
(1.16404e-07 -2.04212e-08 1.63724e-08 1.98345e-08 8.73759e-08 1.07099e-06)
(1.22857e-07 2.8448e-09 1.3664e-08 1.58717e-09 -1.22014e-08 1.40004e-06)
(7.52629e-08 2.1165e-08 4.10422e-09 1.08173e-08 -4.31233e-08 1.44687e-06)
(5.90431e-08 2.39911e-08 -2.13144e-08 1.71048e-08 -6.46574e-08 1.15424e-06)
(4.53532e-08 2.2493e-08 -1.68498e-08 2.27513e-08 -6.38184e-08 6.31235e-07)
(3.67138e-08 1.45987e-08 3.27239e-08 2.37256e-08 -4.46716e-08 3.09278e-07)
(4.28145e-08 8.17631e-09 9.65648e-08 2.87891e-08 -1.39507e-08 5.49882e-07)
(7.23183e-08 1.61001e-08 1.79725e-07 3.13525e-08 4.87546e-08 1.27011e-06)
(1.89913e-07 -1.37986e-08 3.80815e-07 2.27331e-08 -9.09707e-08 3.18313e-06)
(1.66012e-07 -1.41153e-09 1.73717e-07 7.45186e-08 -4.54315e-07 6.78353e-06)
(9.32716e-08 7.73763e-09 -2.46654e-07 1.11958e-08 -1.6573e-07 7.01905e-06)
(5.24996e-08 -6.45339e-09 -1.50095e-07 1.19321e-08 8.17767e-08 5.18749e-06)
(2.01825e-08 1.63101e-09 -1.17262e-07 1.2024e-08 -5.68686e-08 2.56877e-06)
(2.05457e-08 1.2646e-08 -2.7529e-08 2.84496e-08 2.03867e-08 3.3396e-07)
(2.84844e-08 4.93508e-09 1.0086e-08 2.91991e-08 7.50511e-08 4.95593e-07)
(4.94271e-08 -3.64357e-09 1.25356e-08 2.58481e-08 1.09082e-07 9.63527e-07)
(1.18825e-07 -1.96399e-08 2.68144e-08 2.05105e-08 9.43977e-08 1.20175e-06)
(1.2327e-07 2.24957e-09 1.74294e-08 1.48419e-09 -1.07336e-08 1.52359e-06)
(7.38795e-08 2.03369e-08 3.3104e-09 1.00968e-08 -4.45725e-08 1.54996e-06)
(5.7604e-08 2.33975e-08 -2.43056e-08 1.62703e-08 -6.55225e-08 1.22805e-06)
(4.44587e-08 2.22499e-08 -2.02135e-08 2.18517e-08 -6.40432e-08 6.64859e-07)
(3.74845e-08 1.44542e-08 3.70271e-08 2.30027e-08 -4.17578e-08 3.10793e-07)
(4.46025e-08 8.08543e-09 1.05537e-07 2.79784e-08 -1.11472e-08 5.83138e-07)
(7.48075e-08 1.56539e-08 1.89507e-07 3.02182e-08 4.83907e-08 1.31825e-06)
(1.9213e-07 -1.35275e-08 3.79151e-07 2.1719e-08 -8.39626e-08 3.08676e-06)
(1.67525e-07 -1.77122e-09 1.89265e-07 6.97973e-08 -4.14761e-07 6.44556e-06)
(9.18852e-08 7.09809e-09 -2.15048e-07 1.07456e-08 -1.55863e-07 6.86346e-06)
(5.21296e-08 -5.85586e-09 -1.30366e-07 1.14356e-08 7.7497e-08 5.21835e-06)
(1.97495e-08 1.35749e-09 -1.07609e-07 1.14468e-08 -5.75506e-08 2.58257e-06)
(2.01914e-08 1.20198e-08 -2.60747e-08 2.78743e-08 2.40646e-08 3.39642e-07)
(2.83203e-08 4.9256e-09 1.50345e-08 2.90225e-08 8.16132e-08 5.67928e-07)
(4.97832e-08 -3.11485e-09 2.02438e-08 2.59711e-08 1.16455e-07 1.08669e-06)
(1.21179e-07 -1.88135e-08 3.74288e-08 2.11426e-08 1.01167e-07 1.33427e-06)
(1.23936e-07 1.7475e-09 2.20981e-08 1.43355e-09 -8.80562e-09 1.65044e-06)
(7.25877e-08 1.95176e-08 2.80504e-09 9.41716e-09 -4.57084e-08 1.65637e-06)
(5.61896e-08 2.28082e-08 -2.72577e-08 1.54737e-08 -6.60526e-08 1.30588e-06)
(4.34918e-08 2.19833e-08 -2.38427e-08 2.09674e-08 -6.41025e-08 7.03144e-07)
(3.82341e-08 1.42773e-08 4.0978e-08 2.22868e-08 -3.91171e-08 3.13691e-07)
(4.63488e-08 7.93825e-09 1.14104e-07 2.71668e-08 -8.79552e-09 6.15479e-07)
(7.71966e-08 1.51396e-08 1.98658e-07 2.91275e-08 4.76995e-08 1.36141e-06)
(1.94296e-07 -1.32783e-08 3.77066e-07 2.07331e-08 -7.72839e-08 2.99287e-06)
(1.69235e-07 -2.04685e-09 2.03854e-07 6.53838e-08 -3.77822e-07 6.12843e-06)
(9.07601e-08 6.50482e-09 -1.84395e-07 1.0306e-08 -1.46371e-07 6.71115e-06)
(5.19346e-08 -5.25857e-09 -1.10294e-07 1.09528e-08 7.36089e-08 5.23921e-06)
(1.94452e-08 1.08555e-09 -9.77088e-08 1.08529e-08 -5.7789e-08 2.59386e-06)
(1.97353e-08 1.13174e-08 -2.50109e-08 2.72243e-08 2.74695e-08 3.47635e-07)
(2.79885e-08 4.85261e-09 1.96068e-08 2.87597e-08 8.76884e-08 6.42932e-07)
(4.99761e-08 -2.63444e-09 2.78152e-08 2.60121e-08 1.23288e-07 1.21188e-06)
(1.23477e-07 -1.79566e-08 4.80769e-08 2.17246e-08 1.07648e-07 1.46754e-06)
(1.24859e-07 1.33503e-09 2.70304e-08 1.43122e-09 -6.49103e-09 1.77854e-06)
(7.1414e-08 1.87154e-08 2.30947e-09 8.77943e-09 -4.65349e-08 1.76464e-06)
(5.48286e-08 2.22264e-08 -3.02842e-08 1.47161e-08 -6.6324e-08 1.38632e-06)
(4.24682e-08 2.16911e-08 -2.76859e-08 2.01013e-08 -6.39859e-08 7.45061e-07)
(3.89476e-08 1.40696e-08 4.45798e-08 2.15807e-08 -3.67347e-08 3.17867e-07)
(4.80318e-08 7.74398e-09 1.22237e-07 2.63561e-08 -6.8487e-09 6.46703e-07)
(7.94647e-08 1.45716e-08 2.0719e-07 2.80766e-08 4.67464e-08 1.40003e-06)
(1.96371e-07 -1.30469e-08 3.74662e-07 1.97752e-08 -7.09403e-08 2.90238e-06)
(1.71115e-07 -2.24374e-09 2.17435e-07 6.12569e-08 -3.4342e-07 5.83213e-06)
(8.98894e-08 5.96176e-09 -1.54892e-07 9.87471e-09 -1.37256e-07 6.56263e-06)
(5.19228e-08 -4.66267e-09 -9.01255e-08 1.0481e-08 7.01131e-08 5.25102e-06)
(1.92822e-08 8.19971e-10 -8.7668e-08 1.02474e-08 -5.7593e-08 2.60277e-06)
(1.92019e-08 1.05502e-08 -2.4338e-08 2.65082e-08 3.06099e-08 3.57659e-07)
(2.75127e-08 4.71825e-09 2.37705e-08 2.84162e-08 9.32798e-08 7.19944e-07)
(5.00254e-08 -2.20497e-09 3.51848e-08 2.59738e-08 1.29582e-07 1.33831e-06)
(1.25737e-07 -1.70817e-08 5.86581e-08 2.2251e-08 1.13814e-07 1.60077e-06)
(1.26042e-07 9.97382e-10 3.17933e-08 1.47096e-09 -3.90126e-09 1.90559e-06)
(7.03814e-08 1.793e-08 1.68916e-09 8.18254e-09 -4.70579e-08 1.87285e-06)
(5.35453e-08 2.1649e-08 -3.33924e-08 1.39938e-08 -6.6398e-08 1.46752e-06)
(4.14047e-08 2.13703e-08 -3.16297e-08 1.92545e-08 -6.36954e-08 7.8925e-07)
(3.961e-08 1.38337e-08 4.7837e-08 2.0886e-08 -3.45942e-08 3.23207e-07)
(4.96303e-08 7.5126e-09 1.29905e-07 2.5547e-08 -5.25831e-09 6.76646e-07)
(8.15916e-08 1.39646e-08 2.15111e-07 2.70613e-08 4.55919e-08 1.43447e-06)
(1.98324e-07 -1.28279e-08 3.72018e-07 1.88448e-08 -6.49283e-08 2.81591e-06)
(1.73133e-07 -2.36757e-09 2.29952e-07 5.73968e-08 -3.11462e-07 5.55629e-06)
(8.92611e-08 5.47197e-09 -1.26732e-07 9.44998e-09 -1.28509e-07 6.4182e-06)
(5.20961e-08 -4.06966e-09 -7.01071e-08 1.00182e-08 6.70044e-08 5.25451e-06)
(1.927e-08 5.65222e-10 -7.76033e-08 9.63544e-09 -5.69768e-08 2.6093e-06)
(1.86141e-08 9.72972e-09 -2.40429e-08 2.57345e-08 3.35002e-08 3.69494e-07)
(2.69165e-08 4.52615e-09 2.75152e-08 2.79978e-08 9.83968e-08 7.98441e-07)
(4.99507e-08 -1.82744e-09 4.2315e-08 2.58593e-08 1.35345e-07 1.46538e-06)
(1.27975e-07 -1.61992e-08 6.91154e-08 2.2717e-08 1.19647e-07 1.73337e-06)
(1.27492e-07 7.20563e-10 3.63049e-08 1.54581e-09 -1.13479e-09 2.03006e-06)
(6.95068e-08 1.71587e-08 9.82405e-10 7.62453e-09 -4.72906e-08 1.97954e-06)
(5.23582e-08 2.10726e-08 -3.64908e-08 1.33024e-08 -6.62951e-08 1.54814e-06)
(4.03152e-08 2.10189e-08 -3.55514e-08 1.84269e-08 -6.32354e-08 8.34689e-07)
(4.02066e-08 1.3573e-08 5.07547e-08 2.02033e-08 -3.26753e-08 3.29567e-07)
(5.11247e-08 7.25405e-09 1.37076e-07 2.47398e-08 -3.97326e-09 7.05148e-07)
(8.35599e-08 1.33328e-08 2.22417e-07 2.60781e-08 4.4293e-08 1.46505e-06)
(2.00126e-07 -1.2616e-08 3.69187e-07 1.79416e-08 -5.92365e-08 2.73382e-06)
(1.75255e-07 -2.42456e-09 2.41344e-07 5.37845e-08 -2.81846e-07 5.30026e-06)
(8.88576e-08 5.03735e-09 -1.00089e-07 9.03054e-09 -1.2012e-07 6.27792e-06)
(5.245e-08 -3.4813e-09 -5.04822e-08 9.56346e-09 6.42702e-08 5.25028e-06)
(1.94145e-08 3.2528e-10 -6.76378e-08 9.02233e-09 -5.5959e-08 2.61337e-06)
(1.79934e-08 8.86716e-09 -2.41075e-08 2.49118e-08 3.6157e-08 3.82975e-07)
(2.62225e-08 4.28037e-09 3.08475e-08 2.75108e-08 1.03055e-07 8.78041e-07)
(4.97705e-08 -1.50244e-09 4.91922e-08 2.56721e-08 1.40588e-07 1.59263e-06)
(1.30206e-07 -1.53184e-08 7.94244e-08 2.31184e-08 1.25136e-07 1.86487e-06)
(1.29224e-07 4.99213e-10 4.06654e-08 1.64923e-09 1.74798e-09 2.15129e-06)
(6.88024e-08 1.64017e-08 2.90041e-10 7.10368e-09 -4.72495e-08 2.08384e-06)
(5.12804e-08 2.0498e-08 -3.94687e-08 1.26397e-08 -6.60095e-08 1.62743e-06)
(3.92103e-08 2.06378e-08 -3.93591e-08 1.7619e-08 -6.26045e-08 8.808e-07)
(4.07241e-08 1.32909e-08 5.33378e-08 1.9533e-08 -3.09529e-08 3.36771e-07)
(5.2498e-08 6.9776e-09 1.43717e-07 2.39348e-08 -2.94107e-09 7.32057e-07)
(8.5355e-08 1.2689e-08 2.291e-07 2.51235e-08 4.2902e-08 1.49199e-06)
(2.01754e-07 -1.24064e-08 3.66196e-07 1.70655e-08 -5.3848e-08 2.65624e-06)
(1.77441e-07 -2.42115e-09 2.51553e-07 5.04024e-08 -2.5446e-07 5.06315e-06)
(8.86562e-08 4.6588e-09 -7.51231e-08 8.61559e-09 -1.12074e-07 6.14174e-06)
(5.29733e-08 -2.89976e-09 -3.14826e-08 9.11633e-09 6.18917e-08 5.23883e-06)
(1.97173e-08 1.03477e-10 -5.78978e-08 8.41319e-09 -5.45644e-08 2.6149e-06)
(1.73621e-08 7.97413e-09 -2.45185e-08 2.40487e-08 3.85952e-08 3.97965e-07)
(2.54528e-08 3.98638e-09 3.37872e-08 2.69612e-08 1.07273e-07 9.58515e-07)
(4.95039e-08 -1.22867e-09 5.58145e-08 2.5416e-08 1.45326e-07 1.71975e-06)
(1.32444e-07 -1.44457e-08 8.95751e-08 2.34517e-08 1.30272e-07 1.9949e-06)
(1.31255e-07 3.34316e-10 4.50176e-08 1.77572e-09 4.71565e-09 2.26906e-06)
(6.82769e-08 1.56613e-08 -2.93993e-10 6.61842e-09 -4.6955e-08 2.18534e-06)
(5.03229e-08 1.9928e-08 -4.22275e-08 1.20048e-08 -6.55275e-08 1.70516e-06)
(3.80984e-08 2.02293e-08 -4.29941e-08 1.68315e-08 -6.18002e-08 9.27282e-07)
(4.11505e-08 1.29914e-08 5.55906e-08 1.88749e-08 -2.93981e-08 3.4465e-07)
(5.37361e-08 6.69163e-09 1.49796e-07 2.31324e-08 -2.10989e-09 7.57231e-07)
(8.69654e-08 1.20447e-08 2.35141e-07 2.41948e-08 4.14668e-08 1.5155e-06)
(2.03194e-07 -1.21951e-08 3.63053e-07 1.62165e-08 -4.87407e-08 2.58313e-06)
(1.79647e-07 -2.36404e-09 2.60529e-07 4.72336e-08 -2.29181e-07 4.84388e-06)
(8.86304e-08 4.33599e-09 -5.19649e-08 8.20484e-09 -1.04353e-07 6.00949e-06)
(5.36497e-08 -2.32764e-09 -1.33211e-08 8.6769e-09 5.98449e-08 5.2206e-06)
(2.0175e-08 -9.77012e-11 -4.85065e-08 7.81297e-09 -5.28228e-08 2.61381e-06)
(1.67433e-08 7.06269e-09 -2.52721e-08 2.31539e-08 4.08264e-08 4.14325e-07)
(2.46293e-08 3.65079e-09 3.63495e-08 2.63554e-08 1.11073e-07 1.03971e-06)
(4.9171e-08 -1.00286e-09 6.21725e-08 2.50947e-08 1.49573e-07 1.84645e-06)
(1.34702e-07 -1.3585e-08 9.95633e-08 2.37143e-08 1.35052e-07 2.12322e-06)
(1.336e-07 2.26377e-10 4.94828e-08 1.9202e-09 7.7433e-09 2.38341e-06)
(6.79371e-08 1.49388e-08 -7.00078e-10 6.16663e-09 -4.64332e-08 2.28388e-06)
(4.94946e-08 1.93646e-08 -4.47034e-08 1.13967e-08 -6.48497e-08 1.78117e-06)
(3.6987e-08 1.97958e-08 -4.64201e-08 1.60649e-08 -6.08256e-08 9.73953e-07)
(4.14758e-08 1.2678e-08 5.75149e-08 1.82292e-08 -2.79804e-08 3.5303e-07)
(5.48275e-08 6.40347e-09 1.55283e-07 2.23335e-08 -1.4307e-09 7.80543e-07)
(8.83824e-08 1.14096e-08 2.40522e-07 2.32898e-08 4.00304e-08 1.53571e-06)
(2.04436e-07 -1.1979e-08 3.59749e-07 1.53946e-08 -4.38906e-08 2.51434e-06)
(1.8183e-07 -2.26e-09 2.68227e-07 4.42625e-08 -2.0588e-07 4.64127e-06)
(8.87502e-08 4.06746e-09 -3.07161e-08 7.79842e-09 -9.69434e-08 5.88099e-06)
(5.44581e-08 -1.76791e-09 3.81552e-09 8.24568e-09 5.81035e-08 5.19604e-06)
(2.07799e-08 -2.76727e-10 -3.95788e-08 7.22623e-09 -5.07686e-08 2.61006e-06)
(1.61581e-08 6.1449e-09 -2.6366e-08 2.22359e-08 4.28616e-08 4.31924e-07)
(2.3774e-08 3.28163e-09 3.85375e-08 2.56996e-08 1.14472e-07 1.12146e-06)
(4.87919e-08 -8.19961e-10 6.82501e-08 2.47121e-08 1.53343e-07 1.97242e-06)
(1.36992e-07 -1.27376e-08 1.09394e-07 2.39045e-08 1.3947e-07 2.24972e-06)
(1.36262e-07 1.73037e-10 5.41174e-08 2.0773e-09 1.07995e-08 2.49435e-06)
(6.77873e-08 1.42348e-08 -8.92213e-10 5.74601e-09 -4.5712e-08 2.37937e-06)
(4.88028e-08 1.88084e-08 -4.68718e-08 1.08139e-08 -6.39913e-08 1.85528e-06)
(3.58847e-08 1.93401e-08 -4.96137e-08 1.53195e-08 -5.96882e-08 1.02068e-06)
(4.16933e-08 1.23547e-08 5.91089e-08 1.75958e-08 -2.66706e-08 3.61727e-07)
(5.57639e-08 6.11944e-09 1.60151e-07 2.15389e-08 -8.5923e-10 8.01891e-07)
(8.95999e-08 1.07921e-08 2.45226e-07 2.24067e-08 3.86293e-08 1.55278e-06)
(2.05471e-07 -1.17555e-08 3.56263e-07 1.46e-08 -3.92741e-08 2.44963e-06)
(1.83947e-07 -2.11587e-09 2.74618e-07 4.14745e-08 -1.84429e-07 4.45409e-06)
(8.8984e-08 3.85069e-09 -1.14446e-08 7.39681e-09 -8.98298e-08 5.75607e-06)
(5.53739e-08 -1.22384e-09 1.97717e-08 7.82342e-09 5.6639e-08 5.16563e-06)
(2.15201e-08 -4.33053e-10 -3.12181e-08 6.65715e-09 -4.84415e-08 2.60367e-06)
(1.56212e-08 5.22962e-09 -2.77778e-08 2.13019e-08 4.47181e-08 4.50661e-07)
(2.29051e-08 2.88494e-09 4.03639e-08 2.49993e-08 1.17483e-07 1.20357e-06)
(4.83818e-08 -6.77218e-10 7.40505e-08 2.42717e-08 1.56649e-07 2.09736e-06)
(1.39319e-07 -1.19075e-08 1.19101e-07 2.40201e-08 1.43524e-07 2.3744e-06)
(1.39237e-07 1.7097e-10 5.89335e-08 2.24186e-09 1.38491e-08 2.60186e-06)
(6.78294e-08 1.35507e-08 -8.58661e-10 5.35441e-09 -4.48184e-08 2.47178e-06)
(4.82546e-08 1.82606e-08 -4.87194e-08 1.02552e-08 -6.297e-08 1.92742e-06)
(3.48009e-08 1.88656e-08 -5.25612e-08 1.45957e-08 -5.83991e-08 1.06738e-06)
(4.17987e-08 1.20253e-08 6.037e-08 1.69751e-08 -2.54428e-08 3.7057e-07)
(5.65395e-08 5.84491e-09 1.6438e-07 2.07496e-08 -3.57576e-10 8.21197e-07)
(9.06135e-08 1.0199e-08 2.49238e-07 2.15442e-08 3.72932e-08 1.56685e-06)
(2.06297e-07 -1.15227e-08 3.5257e-07 1.38329e-08 -3.48691e-08 2.38871e-06)
(1.85956e-07 -1.93839e-09 2.79685e-07 3.88564e-08 -1.64697e-07 4.2811e-06)
(8.92995e-08 3.68213e-09 5.81525e-09 7.0008e-09 -8.30011e-08 5.63456e-06)
(5.63707e-08 -6.98873e-10 3.44263e-08 7.41104e-09 5.54212e-08 5.12992e-06)
(2.23803e-08 -5.67041e-10 -2.35128e-08 6.10935e-09 -4.58839e-08 2.59472e-06)
(1.51431e-08 4.3248e-09 -2.94778e-08 2.03591e-08 4.64181e-08 4.70483e-07)
(2.2038e-08 2.46748e-09 4.18478e-08 2.42596e-08 1.20119e-07 1.28585e-06)
(4.79529e-08 -5.70494e-10 7.95877e-08 2.37777e-08 1.59508e-07 2.22104e-06)
(1.41684e-07 -1.10959e-08 1.28724e-07 2.40597e-08 1.47218e-07 2.49729e-06)
(1.42515e-07 2.17527e-10 6.39457e-08 2.40921e-09 1.68608e-08 2.70605e-06)
(6.80643e-08 1.28882e-08 -5.8922e-10 4.98998e-09 -4.37771e-08 2.56118e-06)
(4.78569e-08 1.77223e-08 -5.02375e-08 9.71958e-09 -6.18044e-08 1.9976e-06)
(3.37457e-08 1.83762e-08 -5.52572e-08 1.3894e-08 -5.69725e-08 1.11406e-06)
(4.17902e-08 1.16936e-08 6.12966e-08 1.63672e-08 -2.42761e-08 3.79416e-07)
(5.71525e-08 5.58447e-09 1.67946e-07 1.9967e-08 1.00088e-10 8.38404e-07)
(9.14211e-08 9.63571e-09 2.52549e-07 2.07014e-08 3.60442e-08 1.57807e-06)
(2.06914e-07 -1.12785e-08 3.48628e-07 1.30934e-08 -3.06609e-08 2.33126e-06)
(1.87815e-07 -1.73408e-09 2.83428e-07 3.63956e-08 -1.46558e-07 4.12113e-06)
(8.96651e-08 3.55744e-09 2.10608e-08 6.61135e-09 -7.64491e-08 5.51636e-06)
(5.74216e-08 -1.96519e-10 4.76937e-08 7.00942e-09 5.44193e-08 5.08952e-06)
(2.3343e-08 -6.79922e-10 -1.65338e-08 5.58592e-09 -4.31402e-08 2.58332e-06)
(1.47333e-08 3.43762e-09 -3.14477e-08 1.94141e-08 4.79849e-08 4.91372e-07)
(2.11864e-08 2.03601e-09 4.30085e-08 2.34859e-08 1.22393e-07 1.36809e-06)
(4.75174e-08 -4.9545e-10 8.4867e-08 2.32339e-08 1.61947e-07 2.3434e-06)
(1.44086e-07 -1.03025e-08 1.38292e-07 2.40232e-08 1.50558e-07 2.61842e-06)
(1.46089e-07 3.09805e-10 6.91813e-08 2.57497e-09 1.98082e-08 2.80714e-06)
(6.84936e-08 1.22487e-08 -6.54475e-11 4.65097e-09 -4.2613e-08 2.64777e-06)
(4.76158e-08 1.71946e-08 -5.14158e-08 9.20626e-09 -6.05122e-08 2.06599e-06)
(3.27294e-08 1.78756e-08 -5.77031e-08 1.32148e-08 -5.54258e-08 1.16079e-06)
(4.16684e-08 1.13631e-08 6.18915e-08 1.57726e-08 -2.31557e-08 3.88162e-07)
(5.76038e-08 5.34185e-09 1.70826e-07 1.91921e-08 5.28443e-10 8.53473e-07)
(9.20247e-08 9.10675e-09 2.5514e-07 1.98778e-08 3.48915e-08 1.58661e-06)
(2.07331e-07 -1.10205e-08 3.44364e-07 1.23817e-08 -2.66468e-08 2.27688e-06)
(1.89486e-07 -1.50919e-09 2.85859e-07 3.40812e-08 -1.2989e-07 3.97302e-06)
(9.00515e-08 3.47145e-09 3.4318e-08 6.22959e-09 -7.01685e-08 5.40139e-06)
(5.85004e-08 2.7971e-10 5.95229e-08 6.61937e-09 5.36006e-08 5.04508e-06)
(2.43899e-08 -7.73718e-10 -1.03327e-08 5.08928e-09 -4.02544e-08 2.56961e-06)
(1.44003e-08 2.57418e-09 -3.3679e-08 1.84727e-08 4.94414e-08 5.1333e-07)
(2.03619e-08 1.59659e-09 4.38639e-08 2.26832e-08 1.24326e-07 1.45014e-06)
(4.70863e-08 -4.4779e-10 8.98848e-08 2.26437e-08 1.64005e-07 2.46455e-06)
(1.46526e-07 -9.5276e-09 1.47805e-07 2.39108e-08 1.53559e-07 2.7379e-06)
(1.49948e-07 4.45133e-10 7.468e-08 2.73509e-09 2.2671e-08 2.90547e-06)
(6.91179e-08 1.16333e-08 7.37606e-10 4.33578e-09 -4.13515e-08 2.73191e-06)
(4.75375e-08 1.66785e-08 -5.22357e-08 8.71445e-09 -5.91087e-08 2.13285e-06)
(3.17623e-08 1.73678e-08 -5.99026e-08 1.25586e-08 -5.37781e-08 1.20776e-06)
(4.14361e-08 1.1037e-08 6.21626e-08 1.51915e-08 -2.20711e-08 3.96761e-07)
(5.78968e-08 5.11981e-09 1.73016e-07 1.84267e-08 9.38601e-10 8.66415e-07)
(9.24293e-08 8.61513e-09 2.56985e-07 1.90732e-08 3.38316e-08 1.59262e-06)
(2.07558e-07 -1.07468e-08 3.39713e-07 1.16979e-08 -2.28289e-08 2.22521e-06)
(1.90939e-07 -1.26785e-09 2.87004e-07 3.19028e-08 -1.14572e-07 3.83567e-06)
(9.04326e-08 3.41914e-09 4.56369e-08 5.85654e-09 -6.4154e-08 5.28959e-06)
(5.95831e-08 7.27211e-10 6.98945e-08 6.24161e-09 5.29367e-08 4.99726e-06)
(2.55038e-08 -8.50974e-10 -4.94511e-09 4.621e-09 -3.72643e-08 2.55363e-06)
(1.41502e-08 1.7391e-09 -3.6166e-08 1.75398e-08 5.08053e-08 5.36323e-07)
(1.95741e-08 1.15411e-09 4.44317e-08 2.18559e-08 1.25948e-07 1.53201e-06)
(4.66685e-08 -4.2396e-10 9.46426e-08 2.20114e-08 1.6571e-07 2.58461e-06)
(1.49008e-07 -8.77207e-09 1.57236e-07 2.37233e-08 1.56244e-07 2.85589e-06)
(1.5408e-07 6.20793e-10 8.0479e-08 2.88589e-09 2.54338e-08 3.00145e-06)
(6.99341e-08 1.10429e-08 1.83643e-09 4.04298e-09 -4.00175e-08 2.81403e-06)
(4.76259e-08 1.61747e-08 -5.2685e-08 8.24353e-09 -5.76098e-08 2.19849e-06)
(3.08542e-08 1.68564e-08 -6.18623e-08 1.19257e-08 -5.20479e-08 1.25517e-06)
(4.10988e-08 1.07188e-08 6.21191e-08 1.46237e-08 -2.10069e-08 4.05203e-07)
(5.80374e-08 4.92001e-09 1.7453e-07 1.76727e-08 1.33554e-09 8.77282e-07)
(9.26409e-08 8.16269e-09 2.58081e-07 1.82881e-08 3.28574e-08 1.5963e-06)
(2.07599e-07 -1.04568e-08 3.3464e-07 1.10421e-08 -1.92052e-08 2.17594e-06)
(1.9216e-07 -1.00989e-09 2.86855e-07 2.9851e-08 -1.00487e-07 3.70773e-06)
(9.07877e-08 3.3968e-09 5.50801e-08 5.49302e-09 -5.8393e-08 5.18064e-06)
(6.06497e-08 1.14533e-09 7.88153e-08 5.87695e-09 5.2406e-08 4.94651e-06)
(2.66704e-08 -9.14146e-10 -4.01341e-10 4.18186e-09 -3.41984e-08 2.53524e-06)
(1.39866e-08 9.35762e-10 -3.89023e-08 1.662e-08 5.20881e-08 5.60284e-07)
(1.88306e-08 7.1276e-10 4.47302e-08 2.10081e-08 1.27292e-07 1.61377e-06)
(4.62702e-08 -4.2039e-10 9.91474e-08 2.13416e-08 1.67083e-07 2.70363e-06)
(1.51531e-07 -8.03669e-09 1.66564e-07 2.34623e-08 1.58631e-07 2.97258e-06)
(1.5846e-07 8.33029e-10 8.65943e-08 3.02394e-09 2.80809e-08 3.09542e-06)
(7.09334e-08 1.04772e-08 3.23104e-09 3.77106e-09 -3.86356e-08 2.89453e-06)
(4.78803e-08 1.56828e-08 -5.27717e-08 7.79268e-09 -5.60374e-08 2.26316e-06)
(3.0013e-08 1.6344e-08 -6.35962e-08 1.13162e-08 -5.02568e-08 1.30322e-06)
(4.06631e-08 1.04129e-08 6.17596e-08 1.40678e-08 -1.99215e-08 4.13382e-07)
(5.80333e-08 4.74414e-09 1.7539e-07 1.69312e-08 1.72679e-09 8.86167e-07)
(9.26671e-08 7.75159e-09 2.5844e-07 1.75217e-08 3.1969e-08 1.59789e-06)
(2.07466e-07 -1.01499e-08 3.2907e-07 1.04139e-08 -1.57604e-08 2.12877e-06)
(1.93155e-07 -7.34434e-10 2.85314e-07 2.79181e-08 -8.7537e-08 3.58746e-06)
(9.1105e-08 3.39956e-09 6.26741e-08 5.1398e-09 -5.28675e-08 5.07343e-06)
(6.16905e-08 1.53437e-09 8.62716e-08 5.52628e-09 5.19816e-08 4.89253e-06)
(2.78774e-08 -9.65885e-10 3.26087e-09 3.77203e-09 -3.10785e-08 2.51404e-06)
(1.39116e-08 1.66779e-10 -4.188e-08 1.57175e-08 5.32971e-08 5.85123e-07)
(1.81371e-08 2.77258e-10 4.47782e-08 2.01446e-08 1.28378e-07 1.69549e-06)
(4.58953e-08 -4.32811e-10 1.03408e-07 2.06388e-08 1.68134e-07 2.82163e-06)
(1.54085e-07 -7.32009e-09 1.75785e-07 2.3131e-08 1.60731e-07 3.08811e-06)
(1.63058e-07 1.07695e-09 9.30147e-08 3.14619e-09 3.05957e-08 3.1877e-06)
(7.21026e-08 9.93528e-09 4.90197e-09 3.51854e-09 -3.72295e-08 2.97369e-06)
(4.82955e-08 1.52014e-08 -5.25214e-08 7.36104e-09 -5.44188e-08 2.3271e-06)
(2.92442e-08 1.58324e-08 -6.51322e-08 1.07298e-08 -4.84326e-08 1.35207e-06)
(4.01364e-08 1.01248e-08 6.10747e-08 1.35208e-08 -1.87631e-08 4.21176e-07)
(5.78934e-08 4.59465e-09 1.75581e-07 1.62015e-08 2.14939e-09 8.93115e-07)
(9.252e-08 7.38435e-09 2.58023e-07 1.6772e-08 3.11877e-08 1.59737e-06)
(2.07179e-07 -9.82197e-09 3.22859e-07 9.81136e-09 -1.24631e-08 2.08328e-06)
(1.93917e-07 -4.42799e-10 2.82214e-07 2.61016e-08 -7.56609e-08 3.47315e-06)
(9.1369e-08 3.42343e-09 6.8396e-08 4.79741e-09 -4.75553e-08 4.96639e-06)
(6.26977e-08 1.89511e-09 9.21926e-08 5.19032e-09 5.16344e-08 4.83468e-06)
(2.91108e-08 -1.00929e-09 5.99121e-09 3.39135e-09 -2.79266e-08 2.48962e-06)
(1.39264e-08 -5.65963e-10 -4.50929e-08 1.48355e-08 5.44328e-08 6.10709e-07)
(1.74976e-08 -1.47869e-10 4.45916e-08 1.927e-08 1.29214e-07 1.77713e-06)
(4.55457e-08 -4.57042e-10 1.07433e-07 1.99076e-08 1.68866e-07 2.93858e-06)
(1.56657e-07 -6.62023e-09 1.84901e-07 2.27327e-08 1.62545e-07 3.20259e-06)
(1.67836e-07 1.34763e-09 9.97155e-08 3.25021e-09 3.2963e-08 3.27852e-06)
(7.34253e-08 9.41621e-09 6.81881e-09 3.284e-09 -3.58204e-08 3.05175e-06)
(4.88637e-08 1.47288e-08 -5.19688e-08 6.94778e-09 -5.27828e-08 2.39049e-06)
(2.85513e-08 1.53229e-08 -6.65039e-08 1.0166e-08 -4.66021e-08 1.40188e-06)
(3.95285e-08 9.858e-09 6.0071e-08 1.29816e-08 -1.75193e-08 4.28704e-07)
(5.76264e-08 4.47416e-09 1.7508e-07 1.54824e-08 2.64341e-09 8.98221e-07)
(9.22108e-08 7.06229e-09 2.56785e-07 1.60372e-08 3.05339e-08 1.5947e-06)
(2.0675e-07 -9.47228e-09 3.15928e-07 9.23292e-09 -9.29224e-09 2.03926e-06)
(1.94415e-07 -1.39411e-10 2.77468e-07 2.43993e-08 -6.48197e-08 3.36402e-06)
(9.15533e-08 3.46387e-09 7.22688e-08 4.46664e-09 -4.24489e-08 4.85882e-06)
(6.36525e-08 2.2276e-09 9.65435e-08 4.86922e-09 5.13371e-08 4.77286e-06)
(3.03543e-08 -1.04742e-09 7.76081e-09 3.03956e-09 -2.47697e-08 2.46211e-06)
(1.40313e-08 -1.26084e-09 -4.8538e-08 1.39775e-08 5.54861e-08 6.36825e-07)
(1.6913e-08 -5.58229e-10 4.41806e-08 1.83887e-08 1.298e-07 1.85858e-06)
(4.52202e-08 -4.89081e-10 1.1122e-07 1.91526e-08 1.69276e-07 3.05446e-06)
(1.59228e-07 -5.93471e-09 1.93905e-07 2.22716e-08 1.64067e-07 3.31611e-06)
(1.72755e-07 1.64047e-09 1.06673e-07 3.33431e-09 3.51701e-08 3.36816e-06)
(7.48842e-08 8.91919e-09 8.94827e-09 3.06627e-09 -3.44269e-08 3.12897e-06)
(4.9575e-08 1.42636e-08 -5.11504e-08 6.55242e-09 -5.11527e-08 2.45348e-06)
(2.79369e-08 1.48165e-08 -6.77398e-08 9.62442e-09 -4.47862e-08 1.45261e-06)
(3.88521e-08 9.61303e-09 5.87848e-08 1.24514e-08 -1.62283e-08 4.36326e-07)
(5.72415e-08 4.38295e-09 1.73953e-07 1.47751e-08 3.18874e-09 9.01888e-07)
(9.17448e-08 6.78381e-09 2.54813e-07 1.53175e-08 2.99814e-08 1.59026e-06)
(2.06168e-07 -9.10333e-09 3.08393e-07 8.67794e-09 -6.2604e-09 1.99673e-06)
(1.94623e-07 1.72345e-10 2.71293e-07 2.28108e-08 -5.49865e-08 3.2608e-06)
(9.1644e-08 3.51896e-09 7.45043e-08 4.14828e-09 -3.75594e-08 4.75166e-06)
(6.45405e-08 2.53296e-09 9.94713e-08 4.5624e-09 5.10863e-08 4.70829e-06)
(3.15972e-08 -1.08295e-09 8.65563e-09 2.71607e-09 -2.16395e-08 2.4326e-06)
(1.42254e-08 -1.91684e-09 -5.2213e-08 1.31464e-08 5.64402e-08 6.63153e-07)
(1.6382e-08 -9.49972e-10 4.35463e-08 1.75051e-08 1.30128e-07 1.93966e-06)