-0.0075 	0 	0 	0
-0.0075 	7.43289e-35 	-3.46587e-36 	1.85794e-31
-0.00745622 	6.10565e-06 	-2.84699e-07 	0.0152619
-0.00745622 	6.10565e-06 	-2.84699e-07 	0.0152619
-0.00741165 	1.12418e-05 	-8.94784e-07 	0.0296632
-0.00741165 	1.12418e-05 	-8.94784e-07 	0.0296632
-0.00736628 	1.605e-05 	-1.92099e-06 	0.0433164
-0.00736628 	1.605e-05 	-1.92099e-06 	0.0433164
-0.0073201 	2.0845e-05 	-3.36948e-06 	0.0562562
-0.0073201 	2.0845e-05 	-3.36948e-06 	0.0562562
-0.00727309 	2.55906e-05 	-5.27066e-06 	0.0685129
-0.00727309 	2.55906e-05 	-5.27066e-06 	0.0685129
-0.00722524 	3.02037e-05 	-7.63194e-06 	0.0801167
-0.00722524 	3.02037e-05 	-7.63194e-06 	0.0801167
-0.00717653 	3.46431e-05 	-1.04639e-05 	0.0910892
-0.00717653 	3.46431e-05 	-1.04639e-05 	0.0910892
-0.00712695 	3.88752e-05 	-1.37813e-05 	0.101432
-0.00712695 	3.88752e-05 	-1.37813e-05 	0.101432
-0.00707647 	4.28674e-05 	-1.76115e-05 	0.111126
-0.00707647 	4.28674e-05 	-1.76115e-05 	0.111126
-0.0070251 	4.65928e-05 	-2.20027e-05 	0.120151
-0.0070251 	4.65928e-05 	-2.20027e-05 	0.120151
-0.0069728 	5.00366e-05 	-2.70205e-05 	0.128499
-0.0069728 	5.00366e-05 	-2.70205e-05 	0.128499
-0.00691956 	5.31982e-05 	-3.27349e-05 	0.136187
-0.00691956 	5.31982e-05 	-3.27349e-05 	0.136187
-0.00686537 	5.60878e-05 	-3.92079e-05 	0.14325
-0.00686537 	5.60878e-05 	-3.92079e-05 	0.14325
-0.00681021 	5.87234e-05 	-4.64934e-05 	0.149738
-0.00681021 	5.87234e-05 	-4.64934e-05 	0.149738
-0.00675406 	6.11269e-05 	-5.46491e-05 	0.155705
-0.00675406 	6.11269e-05 	-5.46491e-05 	0.155705
-0.0066969 	6.33195e-05 	-6.37319e-05 	0.161208
-0.0066969 	6.33195e-05 	-6.37319e-05 	0.161208
-0.00663871 	6.53198e-05 	-7.37837e-05 	0.166293
-0.00663871 	6.53198e-05 	-7.37837e-05 	0.166293
-0.00657949 	6.71447e-05 	-8.48135e-05 	0.171
-0.00657949 	6.71447e-05 	-8.48135e-05 	0.171
-0.0065192 	6.88121e-05 	-9.67945e-05 	0.175373
-0.0065192 	6.88121e-05 	-9.67945e-05 	0.175373
-0.00645783 	7.03398e-05 	-0.000109682 	0.179452
-0.00645783 	7.03398e-05 	-0.000109682 	0.179452
-0.00639535 	7.17436e-05 	-0.000123424 	0.183275
-0.00639535 	7.17436e-05 	-0.000123424 	0.183275
-0.00633176 	7.30361e-05 	-0.000137972 	0.186872
-0.00633176 	7.30361e-05 	-0.000137972 	0.186872
-0.00626703 	7.42287e-05 	-0.000153273 	0.19027
-0.00626703 	7.42287e-05 	-0.000153273 	0.19027
-0.00620114 	7.53312e-05 	-0.000169268 	0.193492
-0.00620114 	7.53312e-05 	-0.000169268 	0.193492
-0.00613406 	7.63526e-05 	-0.000185897 	0.196559
-0.00613406 	7.63526e-05 	-0.000185897 	0.196559
-0.00606579 	7.73012e-05 	-0.000203101 	0.199488
-0.00606579 	7.73012e-05 	-0.000203101 	0.199488
-0.00599629 	7.8185e-05 	-0.000220812 	0.202296
-0.00599629 	7.8185e-05 	-0.000220812 	0.202296
-0.00592554 	7.90117e-05 	-0.000238962 	0.204998
-0.00592554 	7.90117e-05 	-0.000238962 	0.204998
-0.00585352 	7.97881e-05 	-0.000257477 	0.20761
-0.00585352 	7.97881e-05 	-0.000257477 	0.20761
-0.00578022 	8.05197e-05 	-0.000276269 	0.210144
-0.00578022 	8.05197e-05 	-0.000276269 	0.210144
-0.00570559 	8.12111e-05 	-0.000295238 	0.212609
-0.00570559 	8.12111e-05 	-0.000295238 	0.212609
-0.00562963 	8.18668e-05 	-0.000314282 	0.215015
-0.00562963 	8.18668e-05 	-0.000314282 	0.215015
-0.00555231 	8.24909e-05 	-0.000333299 	0.217367
-0.00555231 	8.24909e-05 	-0.000333299 	0.217367
-0.0054736 	8.30872e-05 	-0.000352185 	0.219673
-0.0054736 	8.30872e-05 	-0.000352185 	0.219673
-0.00539348 	8.36592e-05 	-0.000370835 	0.221936
-0.00539348 	8.36592e-05 	-0.000370835 	0.221936
-0.00531193 	8.42103e-05 	-0.000389142 	0.224161
-0.00531193 	8.42103e-05 	-0.000389142 	0.224161
-0.00522891 	8.47433e-05 	-0.000407 	0.22635
-0.00522891 	8.47433e-05 	-0.000407 	0.22635
-0.0051444 	8.52611e-05 	-0.000424307 	0.228506
-0.0051444 	8.52611e-05 	-0.000424307 	0.228506
-0.00505838 	8.5766e-05 	-0.000440961 	0.23063
-0.00505838 	8.5766e-05 	-0.000440961 	0.23063
-0.00497081 	8.62603e-05 	-0.000456867 	0.232722
-0.00497081 	8.62603e-05 	-0.000456867 	0.232722
-0.00488168 	8.67459e-05 	-0.000471936 	0.234784
-0.00488168 	8.67459e-05 	-0.000471936 	0.234784
-0.00479094 	8.72247e-05 	-0.000486082 	0.236813
-0.00479094 	8.72247e-05 	-0.000486082 	0.236813
-0.00469858 	8.76985e-05 	-0.000499224 	0.23881
-0.00469858 	8.76985e-05 	-0.000499224 	0.23881
-0.00460456 	8.81692e-05 	-0.000511288 	0.240772
-0.00460456 	8.81692e-05 	-0.000511288 	0.240772
-0.00450886 	8.86385e-05 	-0.000522207 	0.242699
-0.00450886 	8.86385e-05 	-0.000522207 	0.242699
-0.00441144 	8.91082e-05 	-0.000531944 	0.244587
-0.00441144 	8.91082e-05 	-0.000531944 	0.244587
-0.00431227 	8.95795e-05 	-0.000540496 	0.246436
-0.00431227 	8.95795e-05 	-0.000540496 	0.246436
-0.00421133 	9.00531e-05 	-0.000547894 	0.248243
-0.00421133 	9.00531e-05 	-0.000547894 	0.248243
-0.00410857 	9.05291e-05 	-0.000554196 	0.250005
-0.00410857 	9.05291e-05 	-0.000554196 	0.250005
-0.00400397 	9.10089e-05 	-0.000559482 	0.251721
-0.00400397 	9.10089e-05 	-0.000559482 	0.251721
-0.0038975 	9.1496e-05 	-0.000563854 	0.253387
-0.0038975 	9.1496e-05 	-0.000563854 	0.253387
-0.00378912 	9.19941e-05 	-0.000567414 	0.255005
-0.00378912 	9.19941e-05 	-0.000567414 	0.255005
-0.00367879 	9.25042e-05 	-0.000570245 	0.256579
-0.00367879 	9.25042e-05 	-0.000570245 	0.256579
-0.00356649 	9.30237e-05 	-0.000572417 	0.258109
-0.00356649 	9.30237e-05 	-0.000572417 	0.258109
-0.00345217 	9.35495e-05 	-0.000573989 	0.259593
-0.00345217 	9.35495e-05 	-0.000573989 	0.259593
-0.0033358 	9.40794e-05 	-0.000575027 	0.26103
-0.0033358 	9.40794e-05 	-0.000575027 	0.26103
-0.00321735 	9.46116e-05 	-0.000575604 	0.262415
-0.00321735 	9.46116e-05 	-0.000575604 	0.262415
-0.00309677 	9.51437e-05 	-0.000575798 	0.263747
-0.00309677 	9.51437e-05 	-0.000575798 	0.263747
-0.00297403 	9.56727e-05 	-0.00057569 	0.265022
-0.00297403 	9.56727e-05 	-0.00057569 	0.265022
-0.00284909 	9.61953e-05 	-0.000575369 	0.266239
-0.00284909 	9.61953e-05 	-0.000575369 	0.266239
-0.0027219 	9.67074e-05 	-0.000574921 	0.267394
-0.0027219 	9.67074e-05 	-0.000574921 	0.267394
-0.00259244 	9.7205e-05 	-0.000574432 	0.268484
-0.00259244 	9.7205e-05 	-0.000574432 	0.268484
-0.00246065 	9.76838e-05 	-0.000573983 	0.269507
-0.00246065 	9.76838e-05 	-0.000573983 	0.269507
-0.00232651 	9.81391e-05 	-0.000573645 	0.270461
-0.00232651 	9.81391e-05 	-0.000573645 	0.270461
-0.00218995 	9.85665e-05 	-0.000573478 	0.271343
-0.00218995 	9.85665e-05 	-0.000573478 	0.271343
-0.00205095 	9.89612e-05 	-0.000573528 	0.272151
-0.00205095 	9.89612e-05 	-0.000573528 	0.272151
-0.00190946 	9.93189e-05 	-0.000573824 	0.272884
-0.00190946 	9.93189e-05 	-0.000573824 	0.272884
-0.00176543 	9.96354e-05 	-0.00057438 	0.27354
-0.00176543 	9.96354e-05 	-0.00057438 	0.27354
-0.00161881 	9.99057e-05 	-0.000575189 	0.27412
-0.00161881 	9.99057e-05 	-0.000575189 	0.27412
-0.00146957 	0.000100124 	-0.000576223 	0.274623
-0.00146957 	0.000100124 	-0.000576223 	0.274623
-0.00131765 	0.000100282 	-0.000577435 	0.275049
-0.00131765 	0.000100282 	-0.000577435 	0.275049
-0.001163 	0.000100374 	-0.000578768 	0.275399
-0.001163 	0.000100374 	-0.000578768 	0.275399
-0.00100559 	0.000100389 	-0.000580158 	0.275671
-0.00100559 	0.000100389 	-0.000580158 	0.275671
-0.000845345 	0.00010032 	-0.000581466 	0.275867
-0.000845345 	0.00010032 	-0.000581466 	0.275867
-0.000682232 	0.000100155 	-0.00058268 	0.275985
-0.000682232 	0.000100155 	-0.00058268 	0.275985
-0.000516194 	9.98841e-05 	-0.000583827 	0.276022
-0.000516194 	9.98841e-05 	-0.000583827 	0.276022
-0.000347178 	9.94953e-05 	-0.00058473 	0.275978
-0.000347178 	9.94953e-05 	-0.00058473 	0.275978
-0.000175132 	9.89711e-05 	-0.000585551 	0.275849
-0.000175132 	9.89711e-05 	-0.000585551 	0.275849
0 	9.82943e-05 	-0.0005861 	0.275634
0 	9.82943e-05 	-0.0005861 	0.275634
0 	9.82943e-05 	-0.0005861 	0.275634
0 	9.82943e-05 	-0.0005861 	0.275634
0.000175132 	9.74713e-05 	-0.000586086 	0.275333
0.000175132 	9.95892e-05 	-0.000525201 	0.271267
0.000347178 	9.65222e-05 	-0.000585713 	0.274953
0.000347178 	0.00010008 	-0.000526574 	0.270965
0.000516194 	9.54727e-05 	-0.000584777 	0.2745
0.000516194 	0.000100375 	-0.000527434 	0.270581
0.000682232 	9.43459e-05 	-0.000583332 	0.273978
0.000682232 	0.000100499 	-0.000527855 	0.270122
0.000845345 	9.31552e-05 	-0.000581582 	0.27339
0.000845345 	0.000100468 	-0.000527918 	0.26959
0.00100559 	9.19133e-05 	-0.000579448 	0.27274
0.00100559 	0.000100299 	-0.000527576 	0.26899
0.001163 	9.06328e-05 	-0.000576948 	0.272029
0.001163 	0.00010001 	-0.000526826 	0.268326
0.00131765 	8.93246e-05 	-0.000574101 	0.271261
0.00131765 	9.96165e-05 	-0.000525674 	0.2676
0.00146957 	8.79987e-05 	-0.000570921 	0.270437
0.00146957 	9.9133e-05 	-0.000524129 	0.266815
0.00161881 	8.66638e-05 	-0.000567424 	0.269559
0.00161881 	9.8572e-05 	-0.0005222 	0.265974
0.00176543 	8.53275e-05 	-0.000563623 	0.26863
0.00176543 	9.79445e-05 	-0.000519898 	0.265078
0.00190946 	8.39961e-05 	-0.000559531 	0.26765
0.00190946 	9.72604e-05 	-0.000517232 	0.264129
0.00205095 	8.26752e-05 	-0.000555158 	0.266621
0.00205095 	9.65285e-05 	-0.000514208 	0.263129
0.00218995 	8.13691e-05 	-0.00055051 	0.265545
0.00218995 	9.57564e-05 	-0.000510833 	0.26208
0.00232651 	8.00818e-05 	-0.000545594 	0.264422
0.00232651 	9.49511e-05 	-0.000507111 	0.260982
0.00246065 	7.88164e-05 	-0.000540415 	0.263252
0.00246065 	9.41187e-05 	-0.000503044 	0.259836
0.00259244 	7.75755e-05 	-0.000534973 	0.262037
0.00259244 	9.32644e-05 	-0.000498633 	0.258643
0.0027219 	7.63614e-05 	-0.00052927 	0.260777
0.0027219 	9.2393e-05 	-0.000493875 	0.257405
0.00284909 	7.51759e-05 	-0.000523302 	0.259473
0.00284909 	9.15084e-05 	-0.000488763 	0.256121
0.00297403 	7.40204e-05 	-0.000517067 	0.258123
0.00297403 	9.06141e-05 	-0.000483291 	0.254792
0.00309677 	7.28961e-05 	-0.000510559 	0.25673
0.00309677 	8.97128e-05 	-0.000477449 	0.253417
0.00321735 	7.18038e-05 	-0.000503772 	0.255291
0.00321735 	8.88073e-05 	-0.000471226 	0.251997
0.0033358 	7.0744e-05 	-0.000496701 	0.253807
0.0033358 	8.78995e-05 	-0.000464614 	0.250531
0.00345217 	8.69917e-05 	-0.000457614 	0.249018
0.00345217 	6.9717e-05 	-0.000489343 	0.252277
0.00356649 	6.87229e-05 	-0.000481686 	0.2507
0.00356649 	8.60874e-05 	-0.000450222 	0.247458
0.00367879 	6.77619e-05 	-0.000473713 	0.249075
0.00367879 	8.51911e-05 	-0.000442424 	0.245851
0.00378912 	6.68339e-05 	-0.000465399 	0.247402
0.00378912 	8.43056e-05 	-0.000434199 	0.244199
0.0038975 	6.5938e-05 	-0.000456701 	0.245676
0.0038975 	8.34289e-05 	-0.000425485 	0.242495
0.00400397 	6.50724e-05 	-0.000447552 	0.243894
0.00400397 	8.25562e-05 	-0.000416181 	0.240728
0.00410857 	8.16843e-05 	-0.000406175 	0.238887
0.00410857 	6.42359e-05 	-0.000437871 	0.242049
0.00421133 	6.34273e-05 	-0.000427574 	0.240136
0.00421133 	8.08117e-05 	-0.000395378 	0.236964
0.00431227 	6.26434e-05 	-0.000416579 	0.238147
0.00431227 	7.99369e-05 	-0.000383726 	0.234956
0.00441144 	6.18804e-05 	-0.00040484 	0.236077
0.00441144 	7.90583e-05 	-0.000371202 	0.232858
0.00450886 	6.11348e-05 	-0.000392347 	0.233919
0.00450886 	7.81743e-05 	-0.000357837 	0.230667
0.00460456 	6.04041e-05 	-0.000379108 	0.231669
0.00460456 	7.7283e-05 	-0.000343679 	0.228379
0.00469858 	5.96861e-05 	-0.000365142 	0.229321
0.00469858 	7.63824e-05 	-0.00032878 	0.22599
0.00479094 	5.89784e-05 	-0.000350475 	0.226873
0.00479094 	7.547e-05 	-0.000313198 	0.223495
0.00488168 	5.82787e-05 	-0.000335141 	0.224318
0.00488168 	7.45433e-05 	-0.000296996 	0.22089
0.00497081 	5.75843e-05 	-0.000319184 	0.221652
0.00497081 	7.35992e-05 	-0.000280247 	0.218172
0.00505838 	5.68924e-05 	-0.000302664 	0.218872
0.00505838 	7.26343e-05 	-0.000263038 	0.215336
0.0051444 	5.62001e-05 	-0.000285659 	0.215974
0.0051444 	7.16454e-05 	-0.000245469 	0.212379
0.00522891 	5.55044e-05 	-0.000268261 	0.212954
0.00522891 	7.06289e-05 	-0.00022766 	0.209299
0.00531193 	5.48023e-05 	-0.00025058 	0.209809
0.00531193 	6.95815e-05 	-0.000209747 	0.206094
0.00539348 	5.40906e-05 	-0.00023274 	0.206536
0.00539348 	6.84997e-05 	-0.000191879 	0.202761
0.0054736 	5.33659e-05 	-0.000214876 	0.203132
0.0054736 	6.73801e-05 	-0.000174211 	0.1993
0.00555231 	5.2625e-05 	-0.000197127 	0.199595
0.00555231 	6.62189e-05 	-0.000156898 	0.195709
0.00562963 	5.18641e-05 	-0.000179634 	0.195919
0.00562963 	6.50121e-05 	-0.000140093 	0.191986
0.00570559 	5.10796e-05 	-0.000162533 	0.192102
0.00570559 	6.37554e-05 	-0.000123933 	0.188127
0.00578022 	5.02675e-05 	-0.000145954 	0.188138
0.00578022 	6.24442e-05 	-0.000108544 	0.184131
0.00585352 	4.94235e-05 	-0.000130012 	0.184022
0.00585352 	6.10734e-05 	-9.4031e-05 	0.179992
0.00592554 	4.85434e-05 	-0.000114812 	0.179749
0.00592554 	5.96377e-05 	-8.0479e-05 	0.175706
0.00599629 	4.76224e-05 	-0.000100442 	0.17531
0.00599629 	5.81313e-05 	-6.79509e-05 	0.171267
0.00606579 	4.66559e-05 	-8.69748e-05 	0.170698
0.00606579 	5.65482e-05 	-5.64904e-05 	0.166665
0.00613406 	4.56381e-05 	-7.44729e-05 	0.1659
0.00613406 	5.48809e-05 	-4.6121e-05 	0.161889
0.00620114 	5.31211e-05 	-3.68491e-05 	0.156921
0.00620114 	4.45621e-05 	-6.29826e-05 	0.160899
0.00626703 	4.34203e-05 	-5.25437e-05 	0.155679
0.00626703 	5.12613e-05 	-2.86751e-05 	0.151747
0.00633176 	4.92947e-05 	-2.15855e-05 	0.146354
0.00633176 	4.22056e-05 	-4.31834e-05 	0.150229
0.00639535 	4.72155e-05 	-1.55441e-05 	0.14073
0.00639535 	4.09108e-05 	-3.49057e-05 	0.144533
0.00645783 	3.95284e-05 	-2.76952e-05 	0.138577
0.00645783 	4.50182e-05 	-1.04991e-05 	0.134858
0.0065192 	3.80506e-05 	-2.1521e-05 	0.132346
0.0065192 	4.26988e-05 	-6.38652e-06 	0.128723
0.00657949 	3.64698e-05 	-1.63393e-05 	0.125824
0.00657949 	4.02554e-05 	-3.13296e-06 	0.122311
0.00663871 	3.47791e-05 	-1.20935e-05 	0.118997
0.00663871 	3.76887e-05 	-6.5885e-07 	0.115607
0.0066969 	3.29705e-05 	-8.69647e-06 	0.111846
0.0066969 	3.49986e-05 	1.12952e-06 	0.108587
0.00675406 	3.21827e-05 	2.33018e-06 	0.101214
0.00675406 	3.10317e-05 	-6.04665e-06 	0.104337
0.00681021 	2.92466e-05 	3.03778e-06 	0.0934745
0.00681021 	2.89507e-05 	-4.03998e-06 	0.096447
0.00686537 	2.62137e-05 	3.34684e-06 	0.0853995
0.00686537 	2.67253e-05 	-2.57621e-06 	0.0881984
0.00691956 	2.31273e-05 	3.34833e-06 	0.0770628
0.00691956 	2.43681e-05 	-1.56797e-06 	0.0796621
0.0069728 	2.00486e-05 	3.13082e-06 	0.0685844
0.0069728 	2.19085e-05 	-9.2145e-07 	0.070958
0.0070251 	1.93918e-05 	-5.41522e-07 	0.0622495
0.0070251 	1.70524e-05 	2.77625e-06 	0.060123
0.00707647 	1.68746e-05 	-3.3924e-07 	0.0537235
0.00707647 	1.42155e-05 	2.35529e-06 	0.0518564
0.00712695 	1.44152e-05 	-2.39197e-07 	0.0455577
0.00712695 	1.16043e-05 	1.92374e-06 	0.0439513
0.00717653 	1.20632e-05 	-1.86305e-07 	0.0378881
0.00717653 	9.26365e-06 	1.51955e-06 	0.0365334
0.00722524 	9.85393e-06 	-1.46247e-07 	0.0307925
0.00722524 	7.2143e-06 	1.16464e-06 	0.0296742
0.00727309 	5.45887e-06 	8.66148e-07 	0.0233963
0.00727309 	7.81084e-06 	-1.03446e-07 	0.0242958
0.0073201 	3.99293e-06 	6.22895e-07 	0.0176904
0.0073201 	5.95603e-06 	-5.45301e-08 	0.0183881
0.00736628 	2.81819e-06 	4.25787e-07 	0.0125311
0.00736628 	4.32822e-06 	-9.13117e-09 	0.0130426
0.00741165 	2.91523e-06 	1.95868e-08 	0.00822503
0.00741165 	1.8698e-06 	2.54093e-07 	0.00788585
0.00745622 	1.5451e-06 	2.50197e-08 	0.00389658
0.00745622 	9.67385e-07 	1.16841e-07 	0.00371683
0.0075 	0 	0 	0
0.0075 	0 	0 	0
