0 	0 	0 	0
0 	7.43289e-35 	-3.46587e-36 	1.85794e-31
5.01672e-05 	6.84141e-06 	-3.72094e-07 	0.0173248
5.01672e-05 	6.84141e-06 	-3.72094e-07 	0.0173248
0.000100334 	1.25119e-05 	-1.16585e-06 	0.0332696
0.000150502 	1.77927e-05 	-2.44742e-06 	0.0480192
0.000150502 	1.77927e-05 	-2.44742e-06 	0.0480192
0.000200669 	2.29418e-05 	-4.20948e-06 	0.0616717
0.000200669 	2.29418e-05 	-4.20948e-06 	0.0616717
0.000250836 	2.78974e-05 	-6.45143e-06 	0.0743154
0.000301003 	3.25956e-05 	-9.15772e-06 	0.0860285
0.000301003 	3.25956e-05 	-9.15772e-06 	0.0860285
0.000351171 	3.70075e-05 	-1.23172e-05 	0.0968675
0.000401338 	4.11125e-05 	-1.59278e-05 	0.106865
0.000451505 	4.48962e-05 	-2.0003e-05 	0.116041
0.000451505 	4.48962e-05 	-2.0003e-05 	0.116041
0.000501672 	4.83555e-05 	-2.45711e-05 	0.124424
0.000551839 	5.14998e-05 	-2.96651e-05 	0.132057
0.000551839 	5.14998e-05 	-2.96651e-05 	0.132057
0.000602007 	5.43483e-05 	-3.53112e-05 	0.138999
0.000602007 	5.43483e-05 	-3.53112e-05 	0.138999
0.000652174 	5.6926e-05 	-4.15251e-05 	0.145314
0.000652174 	5.6926e-05 	-4.15251e-05 	0.145314
0.000702341 	5.92605e-05 	-4.83161e-05 	0.151071
0.000702341 	5.92605e-05 	-4.83161e-05 	0.151071
0.000752508 	6.13787e-05 	-5.56922e-05 	0.156337
0.000802676 	6.33031e-05 	-6.36639e-05 	0.161167
0.000852843 	6.50295e-05 	-7.23248e-05 	0.165555
0.000852843 	6.50295e-05 	-7.23248e-05 	0.165555
0.00090301 	6.66054e-05 	-8.15536e-05 	0.169609
0.00090301 	6.66054e-05 	-8.15536e-05 	0.169609
0.000953177 	6.8048e-05 	-9.13043e-05 	0.173369
0.00100334 	6.93732e-05 	-0.000101528 	0.176871
0.00100334 	6.93732e-05 	-0.000101528 	0.176871
0.00105351 	7.05946e-05 	-0.000112175 	0.180146
0.00105351 	7.05946e-05 	-0.000112175 	0.180146
0.00110368 	7.17219e-05 	-0.000123211 	0.183216
0.00115385 	7.27436e-05 	-0.00013468 	0.186058
0.00120401 	7.36952e-05 	-0.000146429 	0.18875
0.00120401 	7.36952e-05 	-0.000146429 	0.18875
0.00130435 	7.54147e-05 	-0.000170628 	0.193743
0.00130435 	7.54147e-05 	-0.000170628 	0.193743
0.00135452 	7.61787e-05 	-0.000183066 	0.196037
0.00135452 	7.61787e-05 	-0.000183066 	0.196037
0.00140468 	7.68909e-05 	-0.00019566 	0.198221
0.00145485 	7.75636e-05 	-0.00020836 	0.200322
0.00145485 	7.75636e-05 	-0.00020836 	0.200322
0.00150502 	7.82002e-05 	-0.000221146 	0.202346
0.00150502 	7.82002e-05 	-0.000221146 	0.202346
0.00155518 	7.87864e-05 	-0.000234016 	0.204262
0.00155518 	7.87864e-05 	-0.000234016 	0.204262
0.00160535 	7.93447e-05 	-0.000246904 	0.206119
0.00160535 	7.93447e-05 	-0.000246904 	0.206119
0.00165552 	7.98783e-05 	-0.000259795 	0.207923
0.00165552 	7.98783e-05 	-0.000259795 	0.207923
0.00170569 	8.0379e-05 	-0.000272655 	0.209656
0.00170569 	8.0379e-05 	-0.000272655 	0.209656
0.00175585 	8.08539e-05 	-0.000285438 	0.211335
0.00175585 	8.08539e-05 	-0.000285438 	0.211335
0.00180602 	8.13114e-05 	-0.00029815 	0.212977
0.00180602 	8.13114e-05 	-0.00029815 	0.212977
0.00185619 	8.17444e-05 	-0.000310727 	0.214566
0.00185619 	8.17444e-05 	-0.000310727 	0.214566
0.00190635 	8.21573e-05 	-0.000323133 	0.21611
0.00190635 	8.21573e-05 	-0.000323133 	0.21611
0.00195652 	8.25578e-05 	-0.000335419 	0.217626
0.00195652 	8.25578e-05 	-0.000335419 	0.217626
0.00200669 	8.29379e-05 	-0.000347456 	0.219096
0.00200669 	8.29379e-05 	-0.000347456 	0.219096
0.00205686 	8.33046e-05 	-0.000359275 	0.220533
0.00210702 	8.36626e-05 	-0.000370949 	0.22195
0.00210702 	8.36626e-05 	-0.000370949 	0.22195
0.00215719 	8.40016e-05 	-0.00038221 	0.223319
0.00220736 	8.43341e-05 	-0.00039329 	0.224669
0.00225753 	8.46562e-05 	-0.000404082 	0.225992
0.00225753 	8.46562e-05 	-0.000404082 	0.225992
0.00230769 	8.49676e-05 	-0.000414496 	0.227284
0.00230769 	8.49676e-05 	-0.000414496 	0.227284
0.00235786 	8.52743e-05 	-0.000424744 	0.228562
0.00235786 	8.52743e-05 	-0.000424744 	0.228562
0.00240803 	8.55688e-05 	-0.000434457 	0.2298
0.00240803 	8.55688e-05 	-0.000434457 	0.2298
0.00245819 	8.58595e-05 	-0.000443971 	0.231026
0.00245819 	8.58595e-05 	-0.000443971 	0.231026
0.00250836 	8.61427e-05 	-0.000453084 	0.232224
0.00250836 	8.61427e-05 	-0.000453084 	0.232224
0.00255853 	8.64201e-05 	-0.000461827 	0.233401
0.0026087 	8.66934e-05 	-0.000470308 	0.234561
0.0026087 	8.66934e-05 	-0.000470308 	0.234561
0.00265886 	8.69598e-05 	-0.000478256 	0.235691
0.00270903 	8.72246e-05 	-0.000486077 	0.236813
0.00270903 	8.72246e-05 	-0.000486077 	0.236813
0.0027592 	8.74819e-05 	-0.000493216 	0.237897
0.00280936 	8.77383e-05 	-0.000500244 	0.238976
0.00280936 	8.77383e-05 	-0.000500244 	0.238976
0.00285953 	8.79894e-05 	-0.000506681 	0.240023
0.00285953 	8.79894e-05 	-0.000506681 	0.240023
0.0029097 	8.82391e-05 	-0.000512915 	0.241059
0.0029097 	8.82391e-05 	-0.000512915 	0.241059
0.00295987 	8.84851e-05 	-0.000518639 	0.242069
0.00295987 	8.84851e-05 	-0.000518639 	0.242069
0.00301003 	8.87296e-05 	-0.000524095 	0.243065
0.0030602 	8.89715e-05 	-0.000529109 	0.244037
0.00311037 	8.92119e-05 	-0.000533825 	0.244993
0.00311037 	8.92119e-05 	-0.000533825 	0.244993
0.00316054 	8.94503e-05 	-0.000538151 	0.245929
0.00316054 	8.94503e-05 	-0.000538151 	0.245929
0.00326087 	8.99227e-05 	-0.000545856 	0.247745
0.00326087 	8.99227e-05 	-0.000545856 	0.247745
0.00331104 	9.01567e-05 	-0.000549265 	0.248626
0.0033612 	9.03891e-05 	-0.000552342 	0.249487
0.0033612 	9.03891e-05 	-0.000552342 	0.249487
0.00341137 	9.06206e-05 	-0.000555204 	0.250332
0.00341137 	9.06206e-05 	-0.000555204 	0.250332
0.00346154 	9.08507e-05 	-0.000557739 	0.251155
0.00346154 	9.08507e-05 	-0.000557739 	0.251155
0.00351171 	9.10807e-05 	-0.000560126 	0.251966
0.00356187 	9.13102e-05 	-0.000562186 	0.252751
0.00356187 	9.13102e-05 	-0.000562186 	0.252751
0.00361204 	9.15398e-05 	-0.000564168 	0.253529
0.00366221 	9.17704e-05 	-0.000565815 	0.254278
0.00366221 	9.17704e-05 	-0.000565815 	0.254278
0.00371237 	9.2001e-05 	-0.000567452 	0.255026
0.00371237 	9.2001e-05 	-0.000567452 	0.255026
0.00376254 	9.2233e-05 	-0.00056874 	0.255742
0.00376254 	9.2233e-05 	-0.00056874 	0.255742
0.00381271 	9.24649e-05 	-0.000570027 	0.256457
0.00381271 	9.24649e-05 	-0.000570027 	0.256457
0.00386288 	9.2697e-05 	-0.000571051 	0.257146
0.00391304 	9.29291e-05 	-0.000572021 	0.25783
0.00391304 	9.29291e-05 	-0.000572021 	0.25783
0.00396321 	9.31603e-05 	-0.000572825 	0.258495
0.00401338 	9.33911e-05 	-0.000573515 	0.259146
0.00401338 	9.33911e-05 	-0.000573515 	0.259146
0.00406355 	9.36211e-05 	-0.000574129 	0.259787
0.00406355 	9.36211e-05 	-0.000574129 	0.259787
0.00411371 	9.38495e-05 	-0.000574576 	0.260407
0.00411371 	9.38495e-05 	-0.000574576 	0.260407
0.00421405 	9.43034e-05 	-0.00057527 	0.261613
0.00421405 	9.43034e-05 	-0.00057527 	0.261613
0.00426421 	9.45288e-05 	-0.000575514 	0.262199
0.00426421 	9.45288e-05 	-0.000575514 	0.262199
0.00431438 	9.47516e-05 	-0.000575655 	0.262766
0.00431438 	9.47516e-05 	-0.000575655 	0.262766
0.00436455 	9.4973e-05 	-0.000575735 	0.26332
0.00436455 	9.4973e-05 	-0.000575735 	0.26332
0.00441472 	9.51932e-05 	-0.000575787 	0.263866
0.00441472 	9.51932e-05 	-0.000575787 	0.263866
0.00446488 	9.54094e-05 	-0.000575744 	0.264388
0.00446488 	9.54094e-05 	-0.000575744 	0.264388
0.00451505 	9.56256e-05 	-0.0005757 	0.264909
0.00451505 	9.56256e-05 	-0.0005757 	0.264909
0.00456522 	9.58368e-05 	-0.00057559 	0.265405
0.00456522 	9.58368e-05 	-0.00057559 	0.265405
0.00461538 	9.60467e-05 	-0.000575461 	0.265893
0.00461538 	9.60467e-05 	-0.000575461 	0.265893
0.00466555 	9.62542e-05 	-0.000575318 	0.266372
0.00471572 	9.64562e-05 	-0.000575141 	0.266827
0.00476589 	9.66583e-05 	-0.000574964 	0.267283
0.00476589 	9.66583e-05 	-0.000574964 	0.267283
0.00486622 	9.70461e-05 	-0.000574588 	0.268136
0.00486622 	9.70461e-05 	-0.000574588 	0.268136
0.00491639 	9.72371e-05 	-0.000574402 	0.268553
0.00496656 	9.74193e-05 	-0.000574231 	0.268942
0.00496656 	9.74193e-05 	-0.000574231 	0.268942
0.00501672 	9.76016e-05 	-0.00057406 	0.269332
0.00506689 	9.77773e-05 	-0.000573913 	0.269703
0.00511706 	9.79476e-05 	-0.000573787 	0.27006
0.00511706 	9.79476e-05 	-0.000573787 	0.27006
0.00521739 	9.82765e-05 	-0.000573591 	0.270744
0.00521739 	9.82765e-05 	-0.000573591 	0.270744
0.00526756 	9.84335e-05 	-0.00057353 	0.271068
0.00526756 	9.84335e-05 	-0.00057353 	0.271068
0.00531773 	9.85883e-05 	-0.000573481 	0.271387
0.00536789 	9.87308e-05 	-0.000573499 	0.271679
0.00536789 	9.87308e-05 	-0.000573499 	0.271679
0.00541806 	9.88732e-05 	-0.000573517 	0.271971
0.00546823 	9.90097e-05 	-0.000573568 	0.27225
0.00551839 	9.91365e-05 	-0.000573673 	0.27251
0.00551839 	9.91365e-05 	-0.000573673 	0.27251
0.00556856 	9.92634e-05 	-0.000573778 	0.27277
0.00556856 	9.92634e-05 	-0.000573778 	0.27277
0.0056689 	9.94911e-05 	-0.000574126 	0.273241
0.0056689 	9.94911e-05 	-0.000574126 	0.273241
0.00571906 	9.96013e-05 	-0.00057432 	0.27347
0.00576923 	9.96993e-05 	-0.000574571 	0.273677
0.00576923 	9.96993e-05 	-0.000574571 	0.273677
0.0058194 	9.97918e-05 	-0.000574848 	0.273876
0.0058194 	9.97918e-05 	-0.000574848 	0.273876
0.00591973 	9.9962e-05 	-0.000575456 	0.27425
0.00591973 	9.9962e-05 	-0.000575456 	0.27425
0.0059699 	0.000100035 	-0.000575803 	0.274419
0.0059699 	0.000100035 	-0.000575803 	0.274419
0.00602007 	0.000100109 	-0.000576151 	0.274588
0.00607023 	0.000100165 	-0.00057654 	0.274735
0.0061204 	0.000100218 	-0.000576941 	0.274875
0.0061204 	0.000100218 	-0.000576941 	0.274875
0.00617057 	0.00010027 	-0.000577341 	0.275016
0.00622074 	0.000100305 	-0.000577766 	0.275136
0.00622074 	0.000100305 	-0.000577766 	0.275136
0.0062709 	0.000100335 	-0.000578198 	0.275249
0.00632107 	0.000100364 	-0.000578631 	0.275363
0.00632107 	0.000100364 	-0.000578631 	0.275363
0.00637124 	0.000100377 	-0.00057907 	0.275458
0.00637124 	0.000100377 	-0.00057907 	0.275458
0.0064214 	0.000100382 	-0.000579513 	0.275545
0.0064214 	0.000100382 	-0.000579513 	0.275545
0.00647157 	0.000100387 	-0.000579957 	0.275632
0.00647157 	0.000100387 	-0.000579957 	0.275632
0.00652174 	0.000100377 	-0.000580381 	0.275705
0.00657191 	0.000100356 	-0.000580791 	0.275766
0.00657191 	0.000100356 	-0.000580791 	0.275766
0.00662207 	0.000100334 	-0.0005812 	0.275827
0.00667224 	0.000100302 	-0.000581597 	0.27588
0.00672241 	0.000100251 	-0.00058197 	0.275916
0.00672241 	0.000100251 	-0.00058197 	0.275916
0.00677258 	0.000100201 	-0.000582344 	0.275952
0.00682274 	0.000100147 	-0.000582715 	0.275986
0.00682274 	0.000100147 	-0.000582715 	0.275986
0.00687291 	0.000100065 	-0.000583061 	0.275997
0.00687291 	0.000100065 	-0.000583061 	0.275997
0.00692308 	9.99832e-05 	-0.000583407 	0.276008
0.00697324 	9.99013e-05 	-0.000583754 	0.27602
0.00702341 	9.9793e-05 	-0.000584038 	0.276012
0.00707358 	9.96776e-05 	-0.000584306 	0.275999
0.00707358 	9.96776e-05 	-0.000584306 	0.275999
0.00717391 	9.9431e-05 	-0.00058483 	0.275962
0.00717391 	9.9431e-05 	-0.00058483 	0.275962
0.00722408 	9.92782e-05 	-0.00058507 	0.275925
0.00722408 	9.92782e-05 	-0.00058507 	0.275925
0.00727425 	9.91253e-05 	-0.000585309 	0.275887
0.00727425 	9.91253e-05 	-0.000585309 	0.275887
0.00732441 	9.89725e-05 	-0.000585549 	0.27585
0.00732441 	9.89725e-05 	-0.000585549 	0.27585
0.00737458 	9.8779e-05 	-0.000585707 	0.275788
0.00737458 	9.8779e-05 	-0.000585707 	0.275788
0.00742475 	9.85851e-05 	-0.000585864 	0.275726
0.00747492 	9.83913e-05 	-0.000586021 	0.275664
0.00752508 	9.81764e-05 	-0.000586098 	0.27559
0.00752508 	9.81764e-05 	-0.000586098 	0.27559
0.00757525 	9.79407e-05 	-0.000586094 	0.275504
0.00762542 	9.77049e-05 	-0.00058609 	0.275418
0.00767559 	9.74688e-05 	-0.000586085 	0.275332
0.00767559 	9.74688e-05 	-0.000586085 	0.275332
0.00772575 	9.7192e-05 	-0.000585976 	0.275221
0.00777592 	9.69153e-05 	-0.000585867 	0.27511
0.00777592 	9.69153e-05 	-0.000585867 	0.27511
0.00782609 	9.66385e-05 	-0.000585758 	0.274999
0.00787625 	9.63416e-05 	-0.000585552 	0.274875
0.00787625 	9.63416e-05 	-0.000585552 	0.274875
0.00792642 	9.60301e-05 	-0.000585274 	0.27474
0.00797659 	9.57186e-05 	-0.000584996 	0.274606
0.00802676 	9.5401e-05 	-0.000584685 	0.274467
0.00802676 	9.5401e-05 	-0.000584685 	0.274467
0.00807692 	9.50606e-05 	-0.000584248 	0.274309
0.00807692 	9.50606e-05 	-0.000584248 	0.274309
0.00812709 	9.47201e-05 	-0.000583812 	0.274151
0.00817726 	9.43797e-05 	-0.000583375 	0.273994
0.00817726 	9.43797e-05 	-0.000583375 	0.273994
0.00822742 	9.4016e-05 	-0.000582847 	0.273815
0.00827759 	9.36498e-05 	-0.000582309 	0.273634
0.00827759 	9.36498e-05 	-0.000582309 	0.273634
0.00832776 	9.32835e-05 	-0.000581771 	0.273454
0.00832776 	9.32835e-05 	-0.000581771 	0.273454
0.00837793 	9.29027e-05 	-0.000581148 	0.273258
0.00842809 	9.25139e-05 	-0.00058048 	0.273054
0.00842809 	9.25139e-05 	-0.00058048 	0.273054
0.00847826 	9.21251e-05 	-0.000579812 	0.272851
0.00847826 	9.21251e-05 	-0.000579812 	0.272851
0.0085786 	9.13194e-05 	-0.000578288 	0.27241
0.0085786 	9.13194e-05 	-0.000578288 	0.27241
0.00862876 	9.09113e-05 	-0.000577492 	0.272184
0.00867893 	9.0498e-05 	-0.000576655 	0.27195
0.0087291 	9.00737e-05 	-0.000575731 	0.271701
0.00877926 	8.96493e-05 	-0.000574807 	0.271451
0.00882943 	8.92217e-05 	-0.000573854 	0.271197
0.0088796 	8.87839e-05 	-0.000572804 	0.270925
0.0088796 	8.87839e-05 	-0.000572804 	0.270925
0.00892977 	8.83461e-05 	-0.000571754 	0.270653
0.00892977 	8.83461e-05 	-0.000571754 	0.270653
0.00897993 	8.7906e-05 	-0.000570678 	0.270376
0.00897993 	8.7906e-05 	-0.000570678 	0.270376
0.0090301 	8.74573e-05 	-0.000569502 	0.270081
0.00908027 	8.70086e-05 	-0.000568327 	0.269786
0.00908027 	8.70086e-05 	-0.000568327 	0.269786
0.00913043 	8.65579e-05 	-0.000567123 	0.269485
0.0091806 	8.61006e-05 	-0.000565822 	0.269167
0.0091806 	8.61006e-05 	-0.000565822 	0.269167
0.00923077 	8.56434e-05 	-0.000564522 	0.268849
0.00928094 	8.51841e-05 	-0.000563183 	0.268524
0.00928094 	8.51841e-05 	-0.000563183 	0.268524
0.0093311 	8.47204e-05 	-0.000561757 	0.268183
0.00938127 	8.42567e-05 	-0.000560332 	0.267842
0.00938127 	8.42567e-05 	-0.000560332 	0.267842
0.00943144 	8.37909e-05 	-0.000558852 	0.26749
0.00943144 	8.37909e-05 	-0.000558852 	0.26749
0.00948161 	8.33226e-05 	-0.000557301 	0.267126
0.00948161 	8.33226e-05 	-0.000557301 	0.267126
0.00953177 	8.28542e-05 	-0.00055575 	0.266761
0.00953177 	8.28542e-05 	-0.00055575 	0.266761
0.00958194 	8.2384e-05 	-0.000554121 	0.266382
0.00958194 	8.2384e-05 	-0.000554121 	0.266382
0.00963211 	8.19126e-05 	-0.000552444 	0.265993
0.00968227 	8.14413e-05 	-0.000550767 	0.265604
0.00968227 	8.14413e-05 	-0.000550767 	0.265604
0.00973244 	8.09686e-05 	-0.000548981 	0.265195
0.00978261 	8.04956e-05 	-0.000547175 	0.264783
0.00978261 	8.04956e-05 	-0.000547175 	0.264783
0.00983278 	8.00227e-05 	-0.000545352 	0.264367
0.00983278 	8.00227e-05 	-0.000545352 	0.264367
0.00988294 	7.95494e-05 	-0.000543415 	0.26393
0.00993311 	7.90762e-05 	-0.000541478 	0.263492
0.00993311 	7.90762e-05 	-0.000541478 	0.263492
0.00998328 	7.86034e-05 	-0.000539481 	0.263044
0.0100334 	7.8131e-05 	-0.000537409 	0.262581
0.0100836 	7.76586e-05 	-0.000535338 	0.262119
0.0100836 	7.76586e-05 	-0.000535338 	0.262119
0.0101338 	7.71878e-05 	-0.000533152 	0.261635
0.0101839 	7.67173e-05 	-0.000530942 	0.261147
0.0101839 	7.67173e-05 	-0.000530942 	0.261147
0.0102341 	7.62476e-05 	-0.000528697 	0.260652
0.0102341 	7.62476e-05 	-0.000528697 	0.260652
0.0102843 	7.57799e-05 	-0.000526343 	0.260137
0.0103344 	7.53123e-05 	-0.000523989 	0.259623
0.0103344 	7.53123e-05 	-0.000523989 	0.259623
0.0103846 	7.48473e-05 	-0.000521529 	0.259089
0.0103846 	7.48473e-05 	-0.000521529 	0.259089
0.0104348 	7.43833e-05 	-0.000519025 	0.258547
0.0104348 	7.43833e-05 	-0.000519025 	0.258547
0.0104849 	7.39203e-05 	-0.000516488 	0.257999
0.0104849 	7.39203e-05 	-0.000516488 	0.257999
0.0105351 	7.34608e-05 	-0.000513828 	0.25743
0.0105853 	7.30013e-05 	-0.000511168 	0.25686
0.0105853 	7.30013e-05 	-0.000511168 	0.25686
0.0106856 	7.20912e-05 	-0.000505558 	0.255669
0.0106856 	7.20912e-05 	-0.000505558 	0.255669
0.0107358 	7.16388e-05 	-0.000502671 	0.25506
0.010786 	7.119e-05 	-0.000499677 	0.254431
0.010786 	7.119e-05 	-0.000499677 	0.254431
0.0108361 	7.07412e-05 	-0.000496681 	0.253803
0.0108863 	7.02984e-05 	-0.000493509 	0.253143
0.0108863 	7.02984e-05 	-0.000493509 	0.253143
0.0109365 	6.98557e-05 	-0.000490337 	0.252483
0.0109365 	6.98557e-05 	-0.000490337 	0.252483
0.0109866 	6.94174e-05 	-0.000487035 	0.251801
0.0110368 	6.89812e-05 	-0.000483675 	0.251109
0.0110368 	6.89812e-05 	-0.000483675 	0.251109
0.011087 	6.85478e-05 	-0.000480233 	0.250404
0.011087 	6.85478e-05 	-0.000480233 	0.250404
0.0111371 	6.81185e-05 	-0.000476671 	0.249678
0.0111873 	6.76904e-05 	-0.000473072 	0.248946
0.0111873 	6.76904e-05 	-0.000473072 	0.248946
0.0112375 	6.72685e-05 	-0.000469292 	0.248185
0.0112876 	6.68465e-05 	-0.000465511 	0.247424
0.0112876 	6.68465e-05 	-0.000465511 	0.247424
0.0113378 	6.64316e-05 	-0.000461493 	0.246627
0.0113378 	6.64316e-05 	-0.000461493 	0.246627
0.011388 	6.60169e-05 	-0.000457467 	0.245828
0.0114381 	6.56077e-05 	-0.00045321 	0.244996
0.0114381 	6.56077e-05 	-0.00045321 	0.244996
0.0114883 	6.51999e-05 	-0.000448899 	0.244157
0.0115385 	6.47966e-05 	-0.00044436 	0.243286
0.0115385 	6.47966e-05 	-0.00044436 	0.243286
0.0115886 	6.43954e-05 	-0.000439717 	0.242401
0.0116388 	6.39981e-05 	-0.000434842 	0.241486
0.0116388 	6.39981e-05 	-0.000434842 	0.241486
0.011689 	6.36033e-05 	-0.000429815 	0.240552
0.0117391 	6.32114e-05 	-0.000424546 	0.239588
0.0117893 	6.28218e-05 	-0.000419082 	0.2386
0.0118395 	6.24342e-05 	-0.00041336 	0.23758
0.0118395 	6.24342e-05 	-0.00041336 	0.23758
0.0118896 	6.20482e-05 	-0.000407422 	0.236532
0.0119398 	6.16633e-05 	-0.000401203 	0.235449
0.0119398 	6.16633e-05 	-0.000401203 	0.235449
0.01199 	6.12794e-05 	-0.00039477 	0.234337
0.0120401 	6.0896e-05 	-0.00038802 	0.233184
0.0120401 	6.0896e-05 	-0.00038802 	0.233184
0.0120903 	6.0513e-05 	-0.000381081 	0.232004
0.0120903 	6.0513e-05 	-0.000381081 	0.232004
0.0121906 	5.97467e-05 	-0.000366322 	0.22952
0.0121906 	5.97467e-05 	-0.000366322 	0.22952
0.0122408 	5.93626e-05 	-0.000358437 	0.228202
0.012291 	5.89782e-05 	-0.00035047 	0.226872
0.012291 	5.89782e-05 	-0.00035047 	0.226872
0.0123411 	5.85913e-05 	-0.000341992 	0.225459
0.0123913 	5.82037e-05 	-0.000333417 	0.22403
0.0123913 	5.82037e-05 	-0.000333417 	0.22403
0.0124415 	5.78128e-05 	-0.000324436 	0.222529
0.0124415 	5.78128e-05 	-0.000324436 	0.222529
0.0124916 	5.74197e-05 	-0.000315254 	0.220991
0.0124916 	5.74197e-05 	-0.000315254 	0.220991
0.0125418 	5.70233e-05 	-0.00030579 	0.219398
0.012592 	5.6622e-05 	-0.000296023 	0.21774
0.0126421 	5.62183e-05 	-0.000286106 	0.21605
0.0126421 	5.62183e-05 	-0.000286106 	0.21605
0.0126923 	5.58057e-05 	-0.000275796 	0.214262
0.0127425 	5.53897e-05 	-0.000265372 	0.21244
0.0127425 	5.53897e-05 	-0.000265372 	0.21244
0.0127926 	5.49654e-05 	-0.000254687 	0.210539
0.0128428 	5.45328e-05 	-0.000243825 	0.20857
0.0128428 	5.45328e-05 	-0.000243825 	0.20857
0.0129431 	5.36414e-05 	-0.000221668 	0.204427
0.0129431 	5.36414e-05 	-0.000221668 	0.204427
0.0129933 	5.31804e-05 	-0.000210432 	0.202247
0.0130435 	5.27081e-05 	-0.000199119 	0.199992
0.0130435 	5.27081e-05 	-0.000199119 	0.199992
0.0131438 	5.17177e-05 	-0.000176442 	0.195206
0.0131438 	5.17177e-05 	-0.000176442 	0.195206
0.013194 	5.11996e-05 	-0.000165148 	0.192685
0.0132441 	5.066e-05 	-0.000153968 	0.190054
0.0132441 	5.066e-05 	-0.000153968 	0.190054
0.0132943 	5.01052e-05 	-0.000142888 	0.187346
0.0133445 	4.95276e-05 	-0.000131979 	0.18453
0.0133445 	4.95276e-05 	-0.000131979 	0.18453
0.0133946 	4.89209e-05 	-0.000121332 	0.181582
0.0133946 	4.89209e-05 	-0.000121332 	0.181582
0.0134448 	4.82924e-05 	-0.000110897 	0.178539
0.0134448 	4.82924e-05 	-0.000110897 	0.178539
0.013495 	4.76394e-05 	-0.000100707 	0.175392
0.0135452 	4.69429e-05 	-9.09736e-05 	0.172068
0.0135452 	4.69429e-05 	-9.09736e-05 	0.172068
0.0135953 	4.62157e-05 	-8.15678e-05 	0.168623
0.0135953 	4.62157e-05 	-8.15678e-05 	0.168623
0.0136455 	4.54549e-05 	-7.25166e-05 	0.165048
0.0136455 	4.54549e-05 	-7.25166e-05 	0.165048
0.0136957 	4.46501e-05 	-6.39226e-05 	0.161308
0.0136957 	4.46501e-05 	-6.39226e-05 	0.161308
0.0137458 	4.37879e-05 	-5.59042e-05 	0.15736
0.013796 	4.2877e-05 	-4.83567e-05 	0.153241
0.013796 	4.2877e-05 	-4.83567e-05 	0.153241
0.0138462 	4.19126e-05 	-4.13101e-05 	0.14894
0.0138462 	4.19126e-05 	-4.13101e-05 	0.14894
0.0138963 	4.08894e-05 	-3.47941e-05 	0.144441
0.0139465 	3.97793e-05 	-2.90037e-05 	0.139658
0.0139465 	3.97793e-05 	-2.90037e-05 	0.139658
0.0139967 	3.85934e-05 	-2.37887e-05 	0.134634
0.0139967 	3.85934e-05 	-2.37887e-05 	0.134634
0.0140468 	3.73262e-05 	-1.91465e-05 	0.129357
0.0140468 	3.73262e-05 	-1.91465e-05 	0.129357
0.014097 	3.59701e-05 	-1.50845e-05 	0.123806
0.0141472 	3.45166e-05 	-1.16005e-05 	0.117959
0.0141472 	3.45166e-05 	-1.16005e-05 	0.117959
0.0141973 	3.2956e-05 	-8.67664e-06 	0.11179
0.0142475 	3.12544e-05 	-6.35095e-06 	0.105199
0.0142977 	2.94157e-05 	-4.48843e-06 	0.0982102
0.0142977 	2.94157e-05 	-4.48843e-06 	0.0982102
0.0143478 	2.74331e-05 	-3.04177e-06 	0.0908219
0.014398 	2.53063e-05 	-1.96926e-06 	0.0830597
0.014398 	2.53063e-05 	-1.96926e-06 	0.0830597
0.0144482 	2.30468e-05 	-1.22066e-06 	0.0749863
0.0144983 	2.068e-05 	-7.35992e-07 	0.066707
0.0144983 	2.068e-05 	-7.35992e-07 	0.066707
0.0145485 	1.82455e-05 	-4.49402e-07 	0.0583667
0.0145485 	1.82455e-05 	-4.49402e-07 	0.0583667
0.0145987 	1.57935e-05 	-2.95262e-07 	0.0501339
0.0146488 	1.33772e-05 	-2.15855e-07 	0.042173
0.014699 	1.10442e-05 	-1.67829e-07 	0.0346155
0.014699 	1.10442e-05 	-1.67829e-07 	0.0346155
0.0147492 	8.8325e-06 	-1.24849e-07 	0.0275445
0.0147993 	6.77555e-06 	-7.61429e-08 	0.0209983
0.0147993 	6.77555e-06 	-7.61429e-08 	0.0209983
0.0148495 	4.91982e-06 	-2.56306e-08 	0.0149853
0.0148495 	4.91982e-06 	-2.56306e-08 	0.0149853
0.0148997 	3.28847e-06 	1.20011e-08 	0.00949757
0.0148997 	3.28847e-06 	1.20011e-08 	0.00949757
0.0149498 	1.74137e-06 	2.42414e-08 	0.00451663
0.0149498 	1.74137e-06 	2.42414e-08 	0.00451663
0.015 	0 	0 	0
0.015 	0 	0 	0
