/*--------------------------------*- C++ -*----------------------------------*\
| =========                 |                                                 |
| \\      /  F ield         | OpenFOAM: The Open Source CFD Toolbox           |
|  \\    /   O peration     | Version:  v1912                                 |
|   \\  /    A nd           | Website:  www.openfoam.com                      |
|    \\/     M anipulation  |                                                 |
\*---------------------------------------------------------------------------*/
FoamFile
{
    version     2.0;
    format      ascii;
    class       volScalarField;
    location    "196.8";
    object      heatTransferCoeff(T);
}
// * * * * * * * * * * * * * * * * * * * * * * * * * * * * * * * * * * * * * //

dimensions      [1 0 -3 -1 0 0 0];


internalField   uniform 0;

boundaryField
{
    leftWall
    {
        type            calculated;
        value           nonuniform 0();
    }
    rightWall
    {
        type            calculated;
        value           nonuniform List<scalar> 
128
(
-275.237
-260.255
-281.301
-261.095
-288.905
-269.951
-301.626
-390.919
-270.479
-264.03
-275.857
-265.563
-282.529
-274.776
-291.927
-392.22
-266.645
-265.605
-272.272
-267.067
-279.187
-276.598
-288.441
-394.359
-266.585
-266.335
-272.079
-267.846
-278.62
-277.264
-286.629
-393.089
-265.397
-266.726
-270.839
-268.561
-277.218
-278.579
-284.925
-394.767
-266.039
-266.482
-271.452
-268.155
-277.85
-277.88
-285.712
-393.408
-266.808
-266.299
-272.217
-267.885
-278.641
-277.608
-286.751
-393.589
-267.073
-265.949
-272.577
-267.557
-279.067
-277.259
-287.206
-393.24
-267.068
-265.964
-272.522
-267.636
-278.965
-277.468
-287.106
-393.62
-267.077
-265.951
-272.587
-267.566
-279.083
-277.27
-287.221
-393.226
-266.811
-266.317
-272.235
-267.921
-278.675
-277.654
-286.784
-393.572
-266.059
-266.528
-271.494
-268.226
-277.909
-277.961
-285.768
-393.406
-265.442
-266.8
-270.902
-268.659
-277.296
-278.691
-284.996
-394.781
-266.615
-266.427
-272.119
-267.961
-278.667
-277.4
-286.656
-393.123
-266.636
-265.715
-272.261
-267.192
-279.171
-276.738
-288.398
-394.41
-270.425
-264.11
-275.798
-265.653
-282.463
-274.876
-291.841
-392.265
)
;
    }
    leftSides_periodic0
    {
        type            cyclic;
    }
    leftSides_periodic1
    {
        type            cyclic;
    }
    rightSides_periodic0
    {
        type            cyclic;
    }
    rightSides_periodic1
    {
        type            cyclic;
    }
    leftInOut_periodic0
    {
        type            cyclic;
    }
    leftInOut_periodic1
    {
        type            cyclic;
    }
    rightInOut_periodic0
    {
        type            cyclic;
    }
    rightInOut_periodic1
    {
        type            cyclic;
    }
    procBoundary3to1
    {
        type            processor;
        value           uniform 0;
    }
    procBoundary3to1throughrightSides_periodic1
    {
        type            processorCyclic;
        value           uniform 0;
    }
    procBoundary3to2
    {
        type            processor;
        value           uniform 0;
    }
    procBoundary3to2throughrightInOut_periodic0
    {
        type            processorCyclic;
        value           uniform 0;
    }
}


// ************************************************************************* //
