/*--------------------------------*- C++ -*----------------------------------*\
| =========                 |                                                 |
| \\      /  F ield         | OpenFOAM: The Open Source CFD Toolbox           |
|  \\    /   O peration     | Version:  v1906                                 |
|   \\  /    A nd           | Web:      www.OpenFOAM.com                      |
|    \\/     M anipulation  |                                                 |
\*---------------------------------------------------------------------------*/
FoamFile
{
    version     2.0;
    format      ascii;
    class       surfaceScalarField;
    location    "97.6";
    object      phi;
}
// * * * * * * * * * * * * * * * * * * * * * * * * * * * * * * * * * * * * * //

dimensions      [1 0 -1 0 0 0 0];
oriented        oriented;


internalField   nonuniform List<scalar> 
1408
(
1.14224e-06
5.9419e-06
-5.22955e-06
-8.90012e-07
1.48809e-06
-4.23188e-06
1.93737e-06
-2.64106e-06
-5.44613e-06
4.50156e-06
-5.67497e-06
1.91327e-06
-1.17729e-06
-1.16437e-05
-1.31954e-06
2.37134e-06
-8.99325e-06
2.2597e-06
-7.13733e-06
-1.23024e-05
9.3119e-06
-1.28143e-05
2.61762e-06
-1.00116e-05
-1.73648e-05
-1.68099e-06
2.41424e-06
-1.27834e-05
1.46462e-06
-1.21808e-05
-1.83564e-05
1.18402e-05
-1.88659e-05
3.34585e-06
-2.01137e-05
-2.34795e-05
-2.07532e-06
2.0377e-06
-1.69772e-05
6.41017e-07
-1.74559e-05
-2.476e-05
1.22693e-05
-2.52524e-05
3.95765e-06
-3.12741e-05
-2.98758e-05
-2.41255e-06
1.40675e-06
-2.15804e-05
-8.45417e-08
-2.27986e-05
-3.14647e-05
1.11211e-05
-3.20151e-05
4.51281e-06
-4.3272e-05
-3.63449e-05
-2.77371e-06
6.91673e-07
-2.63284e-05
-7.7325e-07
-2.81331e-05
-3.82446e-05
8.60339e-06
-3.88683e-05
5.03502e-06
-5.59073e-05
-4.2805e-05
-3.18252e-06
5.06302e-08
-3.11221e-05
-1.45057e-06
-3.34233e-05
-4.50068e-05
4.79665e-06
-4.57025e-05
5.5305e-06
-6.89971e-05
-4.9212e-05
-3.64027e-06
-3.84666e-07
-3.59118e-05
-2.12784e-06
-3.8654e-05
-5.16968e-05
-2.87617e-07
-5.24648e-05
5.99939e-06
-8.23644e-05
-5.55332e-05
-4.1392e-06
-5.16174e-07
-4.06628e-05
-2.81073e-06
-4.38218e-05
-5.82738e-05
-6.69081e-06
-5.91205e-05
6.42259e-06
-9.58754e-05
-6.17438e-05
-4.66866e-06
-2.96895e-07
-4.53465e-05
-3.5003e-06
-4.89289e-05
-6.47067e-05
-1.44306e-05
-6.56466e-05
6.77667e-06
-0.000109403
-6.7833e-05
-5.21659e-06
2.70381e-07
-4.99411e-05
-4.19019e-06
-5.39789e-05
-7.09816e-05
-2.35013e-05
-7.20358e-05
7.11933e-06
-0.000122908
-7.38064e-05
-5.77303e-06
1.22475e-06
-5.44368e-05
-4.86669e-06
-5.89744e-05
-7.71041e-05
-3.38659e-05
-7.83012e-05
7.45093e-06
-0.00013636
-7.96688e-05
-6.3345e-06
2.60473e-06
-5.88369e-05
-5.52016e-06
-6.39188e-05
-8.30962e-05
-4.54736e-05
-8.44612e-05
7.77544e-06
-0.000149718
-8.54141e-05
-6.90074e-06
4.45925e-06
-6.31578e-05
-6.16335e-06
-6.87972e-05
-8.89809e-05
-5.82821e-05
-9.05257e-05
8.09923e-06
-0.000162927
-9.10462e-05
-7.40258e-06
6.78038e-06
-6.74214e-05
-6.80407e-06
-7.35109e-05
-9.47671e-05
-7.22566e-05
-9.64936e-05
8.42676e-06
-0.00017592
-9.65765e-05
-7.94361e-06
9.67293e-06
-7.16452e-05
-7.44744e-06
-7.80557e-05
-0.000100456
-8.73719e-05
-0.000102364
8.76008e-06
-0.00018864
-0.000102013
-8.51129e-06
1.32362e-05
-7.58431e-05
-8.09444e-06
-8.24103e-05
-0.000106052
-0.000103599
-0.000108146
9.09882e-06
-0.000201035
-0.000107365
-9.09685e-06
1.75649e-05
-8.00294e-05
-8.74319e-06
-8.65442e-05
-0.000111572
-0.0001209
-0.000113854
9.44114e-06
-0.000213062
-0.00011265
-9.6924e-06
2.27515e-05
-8.42166e-05
-9.39055e-06
-9.04202e-05
-0.000117031
-0.000139229
-0.0001195
9.78554e-06
-0.000224683
-0.000117881
-1.02916e-05
2.88851e-05
-8.84195e-05
-1.00367e-05
-9.39951e-05
-0.00012245
-0.000158542
-0.000125098
1.01299e-05
-0.000235874
-0.000123077
-1.08877e-05
3.60405e-05
-9.26552e-05
-1.06748e-05
-9.72304e-05
-0.000127848
-0.000178772
-0.000130673
1.04704e-05
-0.000246631
-0.000128257
-1.14752e-05
4.42771e-05
-9.69369e-05
-1.12952e-05
-0.0001001
-0.000133247
-0.000199828
-0.000136283
1.08047e-05
-0.000256981
-0.000133444
-1.2052e-05
5.36415e-05
-0.000101272
-1.1895e-05
-0.00010259
-0.000138667
-0.000221588
-0.000142037
1.11322e-05
-0.000266994
-0.000138656
-1.26169e-05
6.41632e-05
-0.000105664
-1.24604e-05
-0.000104705
-0.000144118
-0.000243865
-0.000148044
1.14523e-05
-0.000276711
-0.000143901
-1.317e-05
7.58541e-05
-0.000110112
-1.30026e-05
-0.000106443
-0.000149605
-0.000266543
-0.00015427
1.17656e-05
-0.000286038
-0.000149182
-1.37128e-05
8.87161e-05
-0.000114617
-1.35837e-05
-0.00010774
-0.000155132
-0.000289817
-0.000160365
1.20731e-05
-0.000294834
-0.000154507
-1.42459e-05
0.00010275
-0.000119186
-1.42088e-05
-0.000108531
-0.00016071
-0.000313934
-0.000166053
1.2375e-05
-0.000303077
-0.000159886
-1.477e-05
0.000117959
-0.000123825
-1.4804e-05
-0.000108829
-0.000166346
-0.000338857
-0.000171534
1.26717e-05
-0.000310812
-0.00016533
-1.52862e-05
0.000134354
-0.000128546
-1.53425e-05
-0.000108673
-0.00017205
-0.000364396
-0.000177108
1.29633e-05
-0.00031806
-0.000170851
-1.57956e-05
0.000151943
-0.000133349
-1.58598e-05
-0.000108067
-0.000177831
-0.000390393
-0.000182869
1.32494e-05
-0.000324843
-0.000176461
-1.62997e-05
0.000170724
-0.000138229
-1.64255e-05
-0.000106948
-0.000183699
-0.000416692
-0.000189009
1.35297e-05
-0.000331355
-0.000182175
-1.68019e-05
0.000190678
-0.00014317
-1.70058e-05
-0.000105285
-0.000189664
-0.000442771
-0.000195997
1.38054e-05
-0.000337919
-0.000188005
-1.73066e-05
0.000211779
-0.000148161
-1.75068e-05
-0.000103146
-0.000195726
-0.000467894
-0.000204117
1.40809e-05
-0.000344469
-0.000193941
-1.77128e-05
0.000233908
-0.000153213
-1.80027e-05
-0.000100426
-0.000202054
-0.000492288
-0.00021248
1.4363e-05
-0.000350331
-0.000199935
-1.79304e-05
0.000256897
-0.000158362
-1.84414e-05
-9.68923e-05
-0.000209047
-0.000517192
-0.00021906
1.45341e-05
-0.000355373
-0.000206129
-1.80609e-05
0.000280591
-0.000163645
-1.84823e-05
-9.27055e-05
-0.000217013
-0.000542551
-0.000224489
1.4508e-05
-0.000359985
-0.000213011
-1.817e-05
0.000304859
-0.00016911
-1.83792e-05
-8.81543e-05
-0.000225337
-0.000567602
-0.000230039
1.4442e-05
-0.000364652
-0.000221051
-1.84491e-05
0.000330029
-0.000174882
-1.88169e-05
-8.32302e-05
-0.00023233
-0.000592199
-0.00023602
1.43088e-05
-0.000369435
-0.000229663
-1.89449e-05
0.000356575
-0.000181094
-1.95383e-05
-7.78856e-05
-0.000238518
-0.000616629
-0.000242143
1.42281e-05
-0.000373718
-0.000236511
-1.94679e-05
0.000384833
-0.000187692
-2.01375e-05
-7.21785e-05
-0.000244904
-0.000641774
-0.000248259
1.44372e-05
-0.000377379
-0.000242283
-1.98889e-05
0.000414905
-0.00019435
-2.05711e-05
-6.61724e-05
-0.00025167
-0.00066786
-0.000254388
1.47939e-05
-0.000380665
-0.000248294
-2.02542e-05
0.000446456
-0.00020073
-2.09578e-05
-5.99179e-05
-0.000258563
-0.000694616
-0.000260573
1.51827e-05
-0.000383836
-0.000254779
-2.05264e-05
0.000478978
-0.000207085
-2.13626e-05
-5.33591e-05
-0.000265495
-0.000721695
-0.000266943
1.58247e-05
-0.000387237
-0.000261404
-2.05767e-05
0.000512442
-0.00021438
-2.17938e-05
-4.62946e-05
-0.00027248
-0.000748834
-0.000273609
1.68752e-05
-0.000391284
-0.000268051
-2.03119e-05
0.000547196
-0.000223469
-2.21538e-05
-3.85538e-05
-0.000279704
-0.00077598
-0.000280341
1.80898e-05
-0.000396156
-0.000274754
-1.96074e-05
0.000582852
-0.000233804
-2.2185e-05
-3.00351e-05
-0.000287775
-0.00080318
-0.000286773
1.86534e-05
-0.000401237
-0.000281515
-1.8979e-05
0.000618258
-0.000241719
-2.17756e-05
-2.11243e-05
-0.000297252
-0.000830172
-0.000293096
1.87917e-05
-0.000406159
-0.00028832
-1.85775e-05
0.000653192
-0.000247881
-2.11637e-05
-1.23166e-05
-0.000307656
-0.000856685
-0.000299559
1.8965e-05
-0.000411037
-0.000295118
-1.85552e-05
0.000688212
-0.00025424
-2.12473e-05
-3.80852e-06
-0.000316171
-0.00088337
-0.000306157
1.91576e-05
-0.000416174
-0.000302136
-1.88843e-05
0.000723712
-0.000261259
-2.18459e-05
4.46398e-06
-0.000323233
-0.000910652
-0.000312826
1.90814e-05
-0.000421985
-0.000310244
-1.92988e-05
0.000759467
-0.000268493
-2.24211e-05
1.25423e-05
-0.00033046
-0.00093802
-0.000319563
1.87803e-05
-0.000429116
-0.000320305
-1.96243e-05
0.000795139
-0.00027578
-2.28144e-05
2.0382e-05
-0.000338216
-0.000964466
-0.000326379
1.82886e-05
-0.000437985
-0.000332029
-1.9914e-05
0.000830719
-0.000283424
-2.31686e-05
2.79287e-05
-0.000346087
-0.000989426
-0.000333279
1.76787e-05
-0.000447552
-0.000340813
-2.02376e-05
0.00086684
-0.000291975
-2.35752e-05
3.51401e-05
-0.000353855
-0.00101441
-0.000340267
1.75075e-05
-0.00045737
-0.000346994
-2.04154e-05
0.000904752
-0.000301706
-2.38837e-05
4.19071e-05
-0.000361864
-0.00104021
-0.000347344
1.77354e-05
-0.000467879
-0.000353364
-2.01322e-05
0.000944586
-0.000311837
-2.37305e-05
4.79347e-05
-0.000371212
-0.00106606
-0.000354514
1.80315e-05
-0.000479503
-0.000360703
-1.90406e-05
0.00098469
-0.00032163
-2.2848e-05
5.29755e-05
-0.000382948
-0.00109081
-0.00036178
1.87e-05
-0.000492755
-0.000368338
-1.67738e-05
0.00102335
-0.000332012
-2.12168e-05
5.71481e-05
-0.000396888
-0.0011136
-0.000369147
1.9998e-05
-0.000508279
-0.000375916
-1.4511e-05
0.00106113
-0.00034472
-2.03785e-05
6.04517e-05
-0.000407474
-0.00113531
-0.000376616
2.18486e-05
-0.000526662
-0.000383464
-1.26024e-05
0.00109902
-0.000359963
-2.04732e-05
6.35458e-05
-0.000415071
-0.00115697
-0.000384189
2.30441e-05
-0.000547317
-0.000390983
-1.14482e-05
0.00113657
-0.000372416
-2.06699e-05
6.63823e-05
-0.000422764
-0.00117886
-0.00039186
2.33694e-05
-0.000569539
-0.000398482
-1.08799e-05
0.00117336
-0.000381907
-2.06002e-05
6.84151e-05
-0.000431449
-0.00120091
-0.000399628
2.34221e-05
-0.000593382
-0.000405987
-1.04445e-05
0.00120944
-0.00039125
-2.04215e-05
6.9467e-05
-0.000440412
-0.00122303
-0.000407526
2.35725e-05
-0.00061943
-0.000413525
-9.87817e-06
0.00124485
-0.000401364
-2.02495e-05
6.96905e-05
-0.000449245
-0.00124514
-0.00041557
2.37274e-05
-0.000648142
-0.000421123
-9.2015e-06
0.00127949
-0.000411652
-2.00021e-05
6.907e-05
-0.000458252
-0.00126707
-0.000423751
2.37698e-05
-0.000679511
-0.000428813
-8.4337e-06
0.00131315
-0.000421822
-1.95877e-05
6.75479e-05
-0.00046782
-0.00128859
-0.000432061
2.37363e-05
-0.000712998
-0.000436644
-7.55383e-06
0.0013457
-0.000431956
-1.90278e-05
6.51875e-05
-0.000477771
-0.00130953
-0.000440494
2.36543e-05
-0.000747941
-0.000444687
-6.71154e-06
0.00137716
-0.000442104
-1.84408e-05
6.17936e-05
-0.000487399
-0.00132993
-0.000449029
2.35445e-05
-0.000784064
-0.000453012
-5.89287e-06
0.00140758
-0.000452299
-1.7855e-05
5.72837e-05
-0.000496655
-0.00134991
-0.000457641
2.34205e-05
-0.000821202
-0.000461664
-4.96761e-06
0.00143691
-0.000462575
-1.72047e-05
5.18052e-05
-0.000505816
-0.00136958
-0.000466299
2.32917e-05
-0.000859069
-0.000470667
-3.94529e-06
0.00146509
-0.000472967
-1.64611e-05
4.53201e-05
-0.000514798
-0.00138902
-0.000474975
2.31665e-05
-0.000897357
-0.000480027
-2.77162e-06
0.00149201
-0.000483492
-1.55995e-05
3.78206e-05
-0.000523661
-0.00140827
-0.000483623
2.30487e-05
-0.000935743
-0.000489738
-1.30899e-06
0.0015174
-0.000494144
-1.45569e-05
2.95252e-05
-0.000532942
-0.00142732
-0.000492197
2.29353e-05
-0.000973889
-0.000499781
5.20828e-07
0.00154081
-0.000504889
-1.32835e-05
2.06049e-05
-0.000542828
-0.00144571
-0.000500788
2.28141e-05
-0.00101142
-0.000510131
2.62727e-06
0.00156186
-0.000515675
-1.1781e-05
1.10636e-05
-0.000553105
-0.0014624
-0.000509623
2.26675e-05
-0.00104812
-0.000520756
4.77433e-06
0.0015803
-0.000526451
-1.02841e-05
9.94398e-07
-0.000563601
-0.00147641
-0.000519152
2.24835e-05
-0.00108409
-0.000531629
7.066e-06
0.00159578
-0.00053722
-8.9398e-06
-9.18792e-06
-0.000574244
-0.00148658
-0.00053015
2.22512e-05
-0.00111895
-0.000542716
9.38484e-06
0.00160806
-0.000548053
-7.15507e-06
-0.000584766
-0.000541305
2.19269e-05
-0.000553793
-0.000558881
1.74017e-06
-8.50329e-06
-1.64068e-06
-7.63281e-08
1.48691e-06
-7.44612e-06
-2.09568e-07
2.28677e-06
-2.04605e-05
-2.343e-06
-5.90323e-07
2.10325e-06
-1.78505e-05
-3.79525e-07
2.38148e-06
-3.2597e-05
-2.29197e-06
-9.13973e-07
1.90255e-06
-2.75764e-05
-7.8447e-08
2.63281e-06
-4.53171e-05
-2.16813e-06
-1.11664e-06
1.55132e-06
-3.65353e-05
4.72394e-07
2.89757e-06
-5.89175e-05
-2.02582e-06
-1.4784e-06
1.1807e-06
-4.49489e-05
9.75408e-07
3.17562e-06
-7.3341e-05
-1.86426e-06
-1.92286e-06
7.86425e-07
-5.27213e-05
1.45054e-06
3.46402e-06
-8.84165e-05
-1.68176e-06
-2.26013e-06
3.67751e-07
-5.9661e-05
2.00551e-06
3.75725e-06
-0.000103949
-1.47657e-06
-2.28664e-06
-7.47852e-08
-6.55592e-05
2.74973e-06
4.04841e-06
-0.000119748
-1.24905e-06
-1.82149e-06
-5.38416e-07
-7.02247e-05
3.77149e-06
4.33211e-06
-0.000135648
-1.00349e-06
-7.119e-07
-1.01747e-06
-7.35034e-05
5.13491e-06
4.60671e-06
-0.000151526
-7.47567e-07
1.1729e-06
-1.50422e-06
-7.52939e-05
6.87779e-06
4.87359e-06
-0.000167309
-4.90126e-07
3.94399e-06
-1.99004e-06
-7.55505e-05
9.01615e-06
5.13561e-06
-0.000182956
-2.40203e-07
7.69203e-06
-2.46651e-06
-7.42714e-05
1.1563e-05
5.39958e-06
-0.000198445
-5.51503e-09
1.2496e-05
-2.92911e-06
-7.14785e-05
1.4541e-05
5.67122e-06
-0.000213769
2.11841e-07
1.84254e-05
-3.37787e-06
-6.71918e-05
1.79927e-05
5.94697e-06
-0.000228879
4.1439e-07
2.55396e-05
-3.81445e-06
-6.14243e-05
2.19333e-05
6.18704e-06
-0.000243721
6.04171e-07
3.38364e-05
-4.23546e-06
-5.41961e-05
2.64271e-05
6.41904e-06
-0.000258225
7.81486e-07
4.3293e-05
-4.64598e-06
-4.55152e-05
3.14779e-05
6.65602e-06
-0.000272313
9.46175e-07
5.38549e-05
-5.04542e-06
-3.53591e-05
3.70132e-05
6.89332e-06
-0.000285962
1.09821e-06
6.54291e-05
-5.4332e-06
-2.36686e-05
4.29291e-05
7.12804e-06
-0.000299278
1.2377e-06
7.79463e-05
-5.80919e-06
-1.04032e-05
4.91989e-05
7.35815e-06
-0.000312406
1.36496e-06
9.14694e-05
-6.17386e-06
4.35918e-06
5.59219e-05
7.5813e-06
-0.000325452
1.48043e-06
0.000106248
-6.5278e-06
2.04161e-05
6.32115e-05
7.79444e-06
-0.000338476
1.58395e-06
0.000122555
-6.87084e-06
3.75578e-05
7.09188e-05
7.99442e-06
-0.000351507
1.67376e-06
0.000140362
-7.20204e-06
5.56375e-05
7.86344e-05
8.17945e-06
-0.000364564
1.74714e-06
0.000159368
-7.52163e-06
7.45613e-05
8.62255e-05
8.35026e-06
-0.000377664
1.80193e-06
0.000179256
-7.83007e-06
9.42543e-05
9.39249e-05
8.50932e-06
-0.000390829
1.83656e-06
0.000199826
-8.12532e-06
0.00011464
0.000101888
8.65802e-06
-0.000404084
1.84997e-06
0.000220995
-8.4022e-06
0.000135638
0.000110034
8.79532e-06
-0.000417476
1.84251e-06
0.000242721
-8.65194e-06
0.00015717
0.00011812
8.91808e-06
-0.000431202
1.81637e-06
0.000264955
-8.86759e-06
0.000179133
0.00012577
9.02306e-06
-0.000445621
1.77362e-06
0.000287652
-9.0539e-06
0.000201303
0.000132585
9.10775e-06
-0.000460734
1.71253e-06
0.000310775
-9.23355e-06
0.000223378
0.000138619
9.17039e-06
-0.000475379
1.62666e-06
0.00033429
-9.43532e-06
0.000245283
0.000144615
9.20714e-06
-0.00048791
1.51025e-06
0.000358162
-9.66279e-06
0.00026756
0.000151735
9.20932e-06
-0.000498783
1.35957e-06
0.000382214
-9.89415e-06
0.000290638
0.000160117
9.19139e-06
-0.000509607
1.15881e-06
0.0004061
-1.01069e-05
0.000313714
0.000168953
9.23112e-06
-0.000522268
8.79507e-07
0.000429794
-1.02892e-05
0.000337135
0.000177644
9.38036e-06
-0.000537648
5.05964e-07
0.000454347
-1.04429e-05
0.000361019
0.000186139
9.55345e-06
-0.000553939
7.29825e-08
0.00048165
-1.05746e-05
0.000384977
0.000194501
9.53181e-06
-0.000569786
-3.54427e-07
0.000511852
-1.06871e-05
0.000408723
0.000202735
9.29801e-06
-0.000585107
-7.42643e-07
0.000543884
-1.07713e-05
0.000432224
0.000210814
8.98028e-06
-0.000600217
-1.12343e-06
0.000576466
-1.08112e-05
0.000455462
0.00021868
8.72027e-06
-0.000615295
-1.56601e-06
0.000608138
-1.08001e-05
0.000478324
0.000226227
8.52856e-06
-0.000630297
-2.10686e-06
0.000637205
-1.07534e-05
0.000500497
0.000233428
8.34014e-06
-0.000645106
-2.73795e-06
0.000662595
-1.07214e-05
0.000521118
0.000240387
8.13322e-06
-0.000659724
-3.44536e-06
0.000686873
-1.07119e-05
0.000538783
0.000247123
7.91338e-06
-0.00067417
-4.23142e-06
0.00071194
-1.06889e-05
0.000552535
0.000253388
7.67996e-06
-0.00068836
-5.10466e-06
0.000737762
-1.0625e-05
0.000564223
0.000258878
7.42677e-06
-0.000702409
-5.98021e-06
0.000763747
-1.05233e-05
0.000575363
0.000263523
7.13839e-06
-0.000717301
-6.91425e-06
0.000789782
-1.03898e-05
0.000585795
0.000267601
6.77211e-06
-0.000734845
-7.9716e-06
0.000815992
-1.02217e-05
0.000594929
0.000271385
6.38448e-06
-0.000756606
-9.22327e-06
0.00084245
-1.00157e-05
0.000602508
0.000274848
6.12833e-06
-0.000779623
-1.07565e-05
0.000869055
-9.76941e-06
0.000608391
0.000277775
5.89251e-06
-0.000801046
-1.25924e-05
0.000895545
-9.4811e-06
0.000612061
0.000279866
4.90279e-06
-0.000820182
-1.45321e-05
0.00092148
-9.1528e-06
0.000612087
0.000280974
3.32925e-06
-0.000837325
-1.63412e-05
0.00094662
-8.78706e-06
0.000606198
0.00028107
1.64519e-06
-0.000852594
-1.77887e-05
0.000969588
-8.37373e-06
0.00059253
0.000280216
1.93409e-07
-0.000866124
-1.92769e-05
0.00098797
-7.87953e-06
0.000574402
0.00027852
-1.06517e-06
-0.000878052
-2.0954e-05
0.000999453
-7.28648e-06
0.000554609
0.000275558
-2.27347e-06
-0.000888386
-2.26587e-05
0.00100701
-6.58418e-06
0.000532991
0.000270188
-3.44297e-06
-0.000897143
-2.42569e-05
0.00101373
-5.76567e-06
0.00050861
0.000261523
-4.51224e-06
-0.000904452
-2.56816e-05
0.0010199
-4.84915e-06
0.000481329
0.000250322
-5.43536e-06
-0.000910522
-2.69051e-05
0.00102488
-3.82478e-06
0.000451429
0.000238515
-6.18259e-06
-0.000915597
-2.79218e-05
0.0010286
-2.68458e-06
0.000418873
0.000226462
-6.74217e-06
-0.000919788
-2.87441e-05
0.00103133
-1.44203e-06
0.000383219
0.000213296
-7.11324e-06
-0.000923244
-2.93902e-05
0.00103323
-9.87226e-08
0.000344182
0.000198623
-7.30151e-06
-0.000926235
-2.98795e-05
0.00103442
1.35043e-06
0.000302167
0.000182555
-7.32017e-06
-0.000928948
-3.0235e-05
0.00103496
2.92755e-06
0.000257577
0.000165234
-7.19406e-06
-0.000931507
-3.0479e-05
0.00103488
4.65089e-06
0.000210488
0.000146864
-6.95925e-06
-0.000934034
-3.06301e-05
0.00103415
6.4023e-06
0.000161166
0.000126716
-6.66172e-06
-0.000936671
-3.07065e-05
0.00103265
8.03051e-06
0.000109949
0.000102149
-6.35985e-06
-0.000939594
-3.07279e-05
0.00103024
9.45125e-06
5.6685e-05
6.94621e-05
-6.12246e-06
-0.000943022
-3.07115e-05
0.00102675
1.08426e-05
8.25652e-07
2.57093e-05
-6.02024e-06
-0.000947271
-3.06704e-05
0.001022
1.20746e-05
-5.78477e-05
-2.31661e-05
-6.12223e-06
-0.000952711
-3.06146e-05
0.00101587
1.29773e-05
-0.000119218
-7.36008e-05
-6.49247e-06
-0.000959724
-3.05564e-05
0.00100818
1.34986e-05
-0.000183041
-0.000126736
-7.1764e-06
-0.000968601
-3.05e-05
0.000998755
1.36689e-05
-0.000248798
-0.00018347
-8.22973e-06
-3.04063e-05
1.37123e-05
)
;

boundaryField
{
    leftWall
    {
        type            calculated;
        value           uniform 0;
    }
    rightWall
    {
        type            calculated;
        value           nonuniform 0();
    }
    leftSides_periodic0
    {
        type            cyclic;
        value           nonuniform 0();
    }
    leftSides_periodic1
    {
        type            cyclic;
        value           nonuniform 0();
    }
    rightSides_periodic0
    {
        type            cyclic;
        value           nonuniform 0();
    }
    rightSides_periodic1
    {
        type            cyclic;
        value           nonuniform 0();
    }
    leftInOut_periodic0
    {
        type            cyclic;
        value           nonuniform List<scalar> 
157
(
-2.36828e-06
-3.41815e-06
-3.32529e-06
-3.13354e-06
-2.99516e-06
-2.83266e-06
-2.62682e-06
-2.36832e-06
-2.0397e-06
-1.68071e-06
-1.30898e-06
-9.40343e-07
-5.74525e-07
-1.99878e-07
1.92124e-07
6.03478e-07
1.0322e-06
1.4731e-06
1.91961e-06
2.3682e-06
2.80683e-06
3.21475e-06
3.56256e-06
3.81099e-06
3.99094e-06
4.24021e-06
4.60577e-06
4.97084e-06
5.26372e-06
5.50708e-06
5.69653e-06
5.65464e-06
5.24964e-06
4.88827e-06
5.23513e-06
5.71151e-06
5.65262e-06
5.00292e-06
4.38369e-06
4.75479e-06
5.49898e-06
6.02728e-06
6.31682e-06
6.55213e-06
6.80971e-06
7.08047e-06
7.35996e-06
7.65034e-06
7.96709e-06
8.2017e-06
7.96001e-06
6.91447e-06
5.36881e-06
5.30177e-06
6.13745e-06
6.69614e-06
6.82629e-06
6.85808e-06
6.92815e-06
7.02418e-06
7.13823e-06
7.25963e-06
7.3755e-06
7.47473e-06
7.55385e-06
7.61505e-06
7.66522e-06
7.71341e-06
7.76449e-06
7.8194e-06
7.87597e-06
7.93003e-06
7.98067e-06
8.0327e-06
8.10325e-06
8.01632e-06
7.4646e-06
6.90014e-06
-1.78675e-06
-2.64231e-06
-2.94619e-06
-3.32362e-06
-3.70678e-06
-4.08993e-06
-4.46731e-06
-4.8326e-06
-5.17957e-06
-5.50436e-06
-5.8071e-06
-6.09054e-06
-6.36213e-06
-6.632e-06
-6.90267e-06
-7.13071e-06
-7.37151e-06
-7.61951e-06
-7.87203e-06
-8.12758e-06
-8.38534e-06
-8.64455e-06
-8.90371e-06
-9.1601e-06
-9.4113e-06
-9.65643e-06
-9.89508e-06
-1.01315e-05
-1.03717e-05
-1.06236e-05
-1.09045e-05
-1.12178e-05
-1.15293e-05
-1.17863e-05
-1.19622e-05
-1.20811e-05
-1.21923e-05
-1.23222e-05
-1.24632e-05
-1.26029e-05
-1.27286e-05
-1.2818e-05
-1.29061e-05
-1.30304e-05
-1.30645e-05
-1.29565e-05
-1.28496e-05
-1.27705e-05
-1.26581e-05
-1.24899e-05
-1.22653e-05
-1.19747e-05
-1.16211e-05
-1.12121e-05
-1.06419e-05
-1.00165e-05
-9.34249e-06
-8.62287e-06
-7.85633e-06
-7.0378e-06
-6.1559e-06
-5.20105e-06
-4.18594e-06
-3.1144e-06
-1.97648e-06
-6.04519e-07
9.6693e-07
2.57599e-06
4.23437e-06
5.93315e-06
7.64558e-06
9.33854e-06
1.09271e-05
1.23023e-05
1.32991e-05
1.37951e-05
1.37283e-05
1.31422e-05
1.2239e-05
)
;
    }
    leftInOut_periodic1
    {
        type            cyclic;
        value           nonuniform List<scalar> 
157
(
2.36828e-06
3.41815e-06
3.32529e-06
3.13354e-06
2.99516e-06
2.83266e-06
2.62682e-06
2.36832e-06
2.0397e-06
1.68071e-06
1.30898e-06
9.40343e-07
5.74525e-07
1.99878e-07
-1.92124e-07
-6.03478e-07
-1.0322e-06
-1.4731e-06
-1.91961e-06
-2.3682e-06
-2.80683e-06
-3.21475e-06
-3.56256e-06
-3.81099e-06
-3.99094e-06
-4.24021e-06
-4.60577e-06
-4.97084e-06
-5.26372e-06
-5.50708e-06
-5.69653e-06
-5.65464e-06
-5.24964e-06
-4.88827e-06
-5.23513e-06
-5.71151e-06
-5.65262e-06
-5.00292e-06
-4.38369e-06
-4.75479e-06
-5.49898e-06
-6.02728e-06
-6.31682e-06
-6.55213e-06
-6.80971e-06
-7.08047e-06
-7.35996e-06
-7.65034e-06
-7.96709e-06
-8.2017e-06
-7.96001e-06
-6.91447e-06
-5.36881e-06
-5.30177e-06
-6.13745e-06
-6.69614e-06
-6.82629e-06
-6.85808e-06
-6.92815e-06
-7.02418e-06
-7.13823e-06
-7.25963e-06
-7.3755e-06
-7.47473e-06
-7.55385e-06
-7.61505e-06
-7.66522e-06
-7.71341e-06
-7.76449e-06
-7.8194e-06
-7.87597e-06
-7.93003e-06
-7.98067e-06
-8.0327e-06
-8.10325e-06
-8.01632e-06
-7.4646e-06
-6.90014e-06
1.78675e-06
2.64231e-06
2.94619e-06
3.32362e-06
3.70678e-06
4.08993e-06
4.46731e-06
4.8326e-06
5.17957e-06
5.50436e-06
5.8071e-06
6.09054e-06
6.36213e-06
6.632e-06
6.90267e-06
7.13071e-06
7.37151e-06
7.61951e-06
7.87203e-06
8.12758e-06
8.38534e-06
8.64455e-06
8.90371e-06
9.1601e-06
9.4113e-06
9.65643e-06
9.89508e-06
1.01315e-05
1.03717e-05
1.06236e-05
1.09045e-05
1.12178e-05
1.15293e-05
1.17863e-05
1.19622e-05
1.20811e-05
1.21923e-05
1.23222e-05
1.24632e-05
1.26029e-05
1.27286e-05
1.2818e-05
1.29061e-05
1.30304e-05
1.30645e-05
1.29565e-05
1.28496e-05
1.27705e-05
1.26581e-05
1.24899e-05
1.22653e-05
1.19747e-05
1.16211e-05
1.12121e-05
1.06419e-05
1.00165e-05
9.34249e-06
8.62287e-06
7.85633e-06
7.0378e-06
6.1559e-06
5.20105e-06
4.18594e-06
3.1144e-06
1.97648e-06
6.04519e-07
-9.6693e-07
-2.57599e-06
-4.23437e-06
-5.93315e-06
-7.64558e-06
-9.33854e-06
-1.09271e-05
-1.23023e-05
-1.32991e-05
-1.37951e-05
-1.37283e-05
-1.31422e-05
-1.2239e-05
)
;
    }
    rightInOut_periodic0
    {
        type            cyclic;
        value           nonuniform 0();
    }
    rightInOut_periodic1
    {
        type            cyclic;
        value           nonuniform 0();
    }
    procBoundary0to1
    {
        type            processor;
        value           nonuniform List<scalar> 
11
(
-1.97403e-05
-0.00149186
-0.00115069
1.17086e-05
0.00161701
0.000595797
0.000547381
-0.000979018
0.000986987
-0.000316596
-0.000238444
)
;
    }
    procBoundary0to1throughleftInOut_periodic1
    {
        type            processorCyclic;
        value           uniform -7.98216e-06;
    }
    procBoundary0to2
    {
        type            processor;
        value           nonuniform List<scalar> 
316
(
-2.48653e-07
-7.7673e-07
-1.11621e-06
-2.19305e-06
-4.59901e-06
-3.85452e-06
-6.3041e-06
-7.90322e-06
-1.05257e-05
-7.79647e-06
-1.27533e-05
-1.43282e-05
-1.6674e-05
-1.19911e-05
-1.94213e-05
-2.09467e-05
-2.28299e-05
-1.63203e-05
-2.61405e-05
-2.76584e-05
-2.91339e-05
-2.08745e-05
-3.30037e-05
-3.45011e-05
-3.56099e-05
-2.56713e-05
-4.00102e-05
-4.14567e-05
-4.22239e-05
-3.0682e-05
-4.71119e-05
-4.84802e-05
-4.89217e-05
-3.58577e-05
-5.42466e-05
-5.55225e-05
-5.56439e-05
-4.11441e-05
-6.13536e-05
-6.25368e-05
-6.23353e-05
-4.64922e-05
-6.83823e-05
-6.94827e-05
-6.89558e-05
-5.1862e-05
-7.53013e-05
-7.63395e-05
-7.54894e-05
-5.72235e-05
-8.21068e-05
-8.31045e-05
-8.19279e-05
-6.25669e-05
-8.88104e-05
-8.97887e-05
-8.82658e-05
-6.79016e-05
-9.54253e-05
-9.64089e-05
-9.45126e-05
-7.32387e-05
-0.000101956
-0.000102977
-0.000100697
-7.85695e-05
-0.000108403
-0.000109491
-0.000106867
-8.38609e-05
-0.000114788
-0.000115917
-0.000113057
-8.90811e-05
-0.000121159
-0.000122193
-0.00011922
-9.42109e-05
-0.000127572
-0.000128303
-0.000125242
-9.9294e-05
-0.00013403
-0.000134348
-0.000131099
-0.000104478
-0.000140434
-0.000140515
-0.00013685
-0.000109961
-0.000146679
-0.000146929
-0.000142553
-0.000115772
-0.000152768
-0.000153438
-0.000148242
-0.000121609
-0.000158771
-0.000159752
-0.000153928
-0.000127203
-0.000164749
-0.000165798
-0.000159619
-0.000132538
-0.000170732
-0.000171666
-0.000165328
-0.000137733
-0.000176729
-0.000177472
-0.000171071
-0.000142917
-0.000182755
-0.000183267
-0.000176845
-0.00014813
-0.000188826
-0.000188965
-0.000182525
-0.000153367
-0.000194935
-0.000194594
-0.000187967
-0.000158623
-0.000200962
-0.000200607
-0.000193501
-0.000163896
-0.000206808
-0.000207804
-0.000200226
-0.000169194
-0.000212848
-0.000216074
-0.000208545
-0.000174549
-0.0002201
-0.00022384
-0.000216516
-0.000179865
-0.000228784
-0.000230652
-0.00022354
-0.000184982
-0.000237093
-0.000236757
-0.000229915
-0.000190237
-0.000244525
-0.000242641
-0.0002361
-0.000196769
-0.000251395
-0.000248579
-0.000242347
-0.000205497
-0.000258154
-0.000254556
-0.000248666
-0.000214646
-0.000265019
-0.000260548
-0.000255058
-0.000222713
-0.000271967
-0.000266581
-0.000261522
-0.000229571
-0.000278975
-0.000272682
-0.000268044
-0.000235776
-0.000286034
-0.000278866
-0.000274608
-0.000241909
-0.000293154
-0.000285159
-0.000281208
-0.000248123
-0.000300333
-0.000291437
-0.000287847
-0.000254425
-0.000307569
-0.000297639
-0.000294524
-0.000260813
-0.000314866
-0.000303686
-0.000301235
-0.000267286
-0.000322253
-0.000309558
-0.000307975
-0.000273847
-0.000329739
-0.00031545
-0.000314731
-0.000280493
-0.000337324
-0.000321712
-0.000321489
-0.000287279
-0.000345004
-0.000328359
-0.000328257
-0.00029431
-0.000352774
-0.000335087
-0.000335118
-0.000301705
-0.000360624
-0.000341702
-0.000342087
-0.000309694
-0.000368543
-0.000348227
-0.000349129
-0.000318318
-0.000376512
-0.000354713
-0.000356216
-0.000327098
-0.000384507
-0.000361277
-0.000363322
-0.000335563
-0.000392529
-0.000368002
-0.000370423
-0.000343656
-0.000400639
-0.000374904
-0.000377498
-0.000351584
-0.000408844
-0.00038144
-0.000384524
-0.000359618
-0.00041712
-0.000386886
-0.000391481
-0.000367858
-0.000425462
-0.000391499
-0.000398352
-0.000376297
-0.000433868
-0.000396963
-0.00040514
-0.000384917
-0.000442333
-0.000404452
-0.000411853
-0.000393699
-0.000450842
-0.000412388
-0.0004185
-0.000402615
-0.00045938
-0.00041972
-0.000425131
-0.000411648
-0.00046794
-0.000426879
-0.000431849
-0.000420782
-0.000476531
-0.000434184
-0.000438778
-0.000430004
-0.000485146
-0.000441628
-0.000446017
-0.0004393
-0.000493777
-0.000449218
-0.000453576
-0.000448654
-0.000502429
-0.000456082
-0.000461432
-0.00045805
-0.000511103
-0.000460382
-0.00046957
-0.000467476
-0.000519781
-0.00046101
-0.00047797
-0.000476926
-0.000528448
-0.000458525
-0.000486603
-0.000486411
-0.000537103
-0.000462008
-0.000495437
-0.000495962
-0.000545751
-0.000469582
-0.000504429
-0.000505619
-0.000554405
-0.000477308
-0.000513553
-0.000515453
-0.000563109
-0.000484135
-0.000522935
-0.000525095
-0.00057205
-0.000491046
)
;
    }
    procBoundary0to2throughleftSides_periodic0
    {
        type            processorCyclic;
        value           nonuniform List<scalar> 
314
(
5.45715e-06
1.34351e-05
2.02663e-05
2.71173e-05
3.40998e-05
4.10112e-05
4.77862e-05
5.44034e-05
6.08554e-05
6.71412e-05
7.32666e-05
7.92461e-05
8.50885e-05
9.07868e-05
9.63332e-05
0.000101729
0.000106985
0.000112115
0.000117134
0.000122064
0.000126924
0.00013174
0.000136535
0.000141332
0.000146142
0.00015097
0.000155823
0.000160712
0.000165644
0.00017063
0.000175676
0.000180794
0.000185989
0.000191265
0.000196619
0.000202277
0.00020873
0.000216355
0.000224609
0.000231323
0.000236985
0.000242806
0.000249081
0.000255531
0.000262029
0.000268611
0.000275296
0.000282088
0.000288978
0.000296282
0.000304909
0.000315632
0.00032808
0.000338011
0.000345433
0.000352844
0.000361141
0.00036977
0.000378394
0.000387047
0.000395756
0.000404617
0.000413807
0.000423499
0.000433686
0.000444052
0.000454085
0.000463715
0.000473381
0.000483227
0.000493146
0.000503107
0.000513086
0.000523056
0.000532985
0.000542845
0.000552614
0.000562269
0.000571631
4.77382e-06
1.13357e-05
1.70268e-05
2.2758e-05
2.85605e-05
3.43061e-05
3.99557e-05
4.54937e-05
5.09112e-05
5.61997e-05
6.13513e-05
6.6361e-05
7.12296e-05
7.59671e-05
8.05901e-05
8.5112e-05
8.95424e-05
9.38892e-05
9.81574e-05
0.000102358
0.000106512
0.000110641
0.00011476
0.000118887
0.00012304
0.000127231
0.000131468
0.000135759
0.000140107
0.000144519
0.000148998
0.000153549
0.000158175
0.000162881
0.000167671
0.00017255
0.000177525
0.000182606
0.000187803
0.000193125
0.000198589
0.00020419
0.0002102
0.000217272
0.000225999
0.000235986
0.000243964
0.000250305
0.00025675
0.000263816
0.000271135
0.000278527
0.000286057
0.000293775
0.000301712
0.000309851
0.000318546
0.000328774
0.000341502
0.000356635
0.000369385
0.000379358
0.000389049
0.000399418
0.000409959
0.000420366
0.000430705
0.000441011
0.000451309