0 	0 	0 	0
0 	0 	0 	0
0.00752508 	0.000427469 	0.000988753 	-0.289365
0.00752508 	0.000427469 	0.000988753 	-0.289365
0.00757525 	0.000458965 	0.000993261 	-0.288942
0.00762542 	0.000490462 	0.000997769 	-0.28852
0.00762542 	0.000490462 	0.000997769 	-0.28852
0.00767559 	0.000521832 	0.00100233 	-0.288099
0.00772575 	0.000539454 	0.00101261 	-0.287803
0.00777592 	0.000557076 	0.00102289 	-0.287506
0.00782609 	0.000574698 	0.00103318 	-0.28721
0.00782609 	0.000574698 	0.00103318 	-0.28721
0.00787625 	0.000585273 	0.00104358 	-0.286985
0.00792642 	0.000590737 	0.00105407 	-0.286812
0.00797659 	0.000596201 	0.00106456 	-0.286638
0.00802676 	0.000600394 	0.00107355 	-0.286474
0.00802676 	0.000600394 	0.00107355 	-0.286474
0.00807692 	0.000599821 	0.00107687 	-0.286344
0.00812709 	0.000599248 	0.0010802 	-0.286213
0.00812709 	0.000599248 	0.0010802 	-0.286213
0.00817726 	0.000598674 	0.00108353 	-0.286083
0.00822742 	0.000593002 	0.00108527 	-0.285871
0.00822742 	0.000593002 	0.00108527 	-0.285871
0.00827759 	0.000586768 	0.00108683 	-0.28565
0.00832776 	0.000580534 	0.00108839 	-0.285429
0.00832776 	0.000580534 	0.00108839 	-0.285429
0.00837793 	0.000567561 	0.00109449 	-0.285096
0.00842809 	0.000550952 	0.00110304 	-0.284704
0.00842809 	0.000550952 	0.00110304 	-0.284704
0.00847826 	0.000534342 	0.00111159 	-0.284312
0.00847826 	0.000534342 	0.00111159 	-0.284312
0.00852843 	0.00051591 	0.00112147 	-0.283895
0.00852843 	0.00051591 	0.00112147 	-0.283895
0.0085786 	0.000495299 	0.00113295 	-0.283449
0.0085786 	0.000495299 	0.00113295 	-0.283449
0.00862876 	0.000474688 	0.00114442 	-0.283003
0.00867893 	0.000455542 	0.00115384 	-0.282582
0.00867893 	0.000455542 	0.00115384 	-0.282582
0.0087291 	0.000439548 	0.00115883 	-0.282214
0.00877926 	0.000423553 	0.00116382 	-0.281846
0.00877926 	0.000423553 	0.00116382 	-0.281846
0.00882943 	0.000408243 	0.00116812 	-0.281492
0.0088796 	0.000395163 	0.00117016 	-0.281184
0.0088796 	0.000395163 	0.00117016 	-0.281184
0.00897993 	0.000369018 	0.00117444 	-0.280567
0.00897993 	0.000369018 	0.00117444 	-0.280567
0.0090301 	0.000356012 	0.00117749 	-0.280259
0.00908027 	0.000343007 	0.00118054 	-0.27995
0.00908027 	0.000343007 	0.00118054 	-0.27995
0.00913043 	0.000330003 	0.00118373 	-0.279633
0.0091806 	0.000317008 	0.00118739 	-0.279287
0.0091806 	0.000317008 	0.00118739 	-0.279287
0.00923077 	0.000304012 	0.00119104 	-0.278942
0.00928094 	0.000291194 	0.00119471 	-0.278582
0.00928094 	0.000291194 	0.00119471 	-0.278582
0.0093311 	0.000278774 	0.00119841 	-0.278193
0.00938127 	0.000266354 	0.00120211 	-0.277804
0.00938127 	0.000266354 	0.00120211 	-0.277804
0.00943144 	0.000254105 	0.00120573 	-0.277399
0.00943144 	0.000254105 	0.00120573 	-0.277399
0.00948161 	0.000242076 	0.00120924 	-0.276973
0.00948161 	0.000242076 	0.00120924 	-0.276973
0.00953177 	0.000230046 	0.00121276 	-0.276548
0.00953177 	0.000230046 	0.00121276 	-0.276548
0.00958194 	0.000217892 	0.00121601 	-0.276106
0.00958194 	0.000217892 	0.00121601 	-0.276106
0.00963211 	0.00020566 	0.00121909 	-0.275654
0.00963211 	0.00020566 	0.00121909 	-0.275654
0.00968227 	0.000193429 	0.00122217 	-0.275202
0.00968227 	0.000193429 	0.00122217 	-0.275202
0.00973244 	0.0001806 	0.00122447 	-0.274737
0.00978261 	0.000167664 	0.00122662 	-0.27427
0.00983278 	0.000154644 	0.00122862 	-0.273801
0.00988294 	0.000141032 	0.00122953 	-0.273323
0.00988294 	0.000141032 	0.00122953 	-0.273323
0.00993311 	0.000127421 	0.00123044 	-0.272844
0.00998328 	0.000113797 	0.00123116 	-0.272358
0.00998328 	0.000113797 	0.00123116 	-0.272358
0.0100334 	0.000100159 	0.00123165 	-0.271862
0.0100334 	0.000100159 	0.00123165 	-0.271862
0.0100836 	8.6521e-05 	0.00123215 	-0.271366
0.0101338 	7.3576e-05 	0.00123377 	-0.27085
0.0101338 	7.3576e-05 	0.00123377 	-0.27085
0.0102341 	4.84784e-05 	0.00123774 	-0.269805
0.0102341 	4.84784e-05 	0.00123774 	-0.269805
0.0102843 	3.7721e-05 	0.00124061 	-0.269269
0.0103344 	2.69636e-05 	0.00124348 	-0.268734
0.0103344 	2.69636e-05 	0.00124348 	-0.268734
0.0103846 	1.84862e-05 	0.00124383 	-0.268197
0.0103846 	1.84862e-05 	0.00124383 	-0.268197
0.0104348 	1.0948e-05 	0.00124313 	-0.267659
0.0104849 	3.79253e-06 	0.00124083 	-0.267111
0.0104849 	3.79253e-06 	0.00124083 	-0.267111
0.0105351 	-1.98759e-06 	0.00123274 	-0.266528
0.0105853 	-7.76771e-06 	0.00122465 	-0.265945
0.0105853 	-7.76771e-06 	0.00122465 	-0.265945
0.0106355 	-1.63388e-05 	0.00121619 	-0.265237
0.0106856 	-2.57386e-05 	0.00120762 	-0.264492
0.0106856 	-2.57386e-05 	0.00120762 	-0.264492
0.0107358 	-3.69001e-05 	0.00120274 	-0.263678
0.0107358 	-3.69001e-05 	0.00120274 	-0.263678
0.010786 	-5.10934e-05 	0.0012042 	-0.262747
0.010786 	-5.10934e-05 	0.0012042 	-0.262747
0.0108361 	-6.52652e-05 	0.00120568 	-0.261815
0.0108361 	-6.52652e-05 	0.00120568 	-0.261815
0.0108863 	-7.60698e-05 	0.00121054 	-0.26086
0.0109365 	-8.68744e-05 	0.0012154 	-0.259906
0.0109365 	-8.68744e-05 	0.0012154 	-0.259906
0.0109866 	-9.12802e-05 	0.00121483 	-0.259019
0.0109866 	-9.12802e-05 	0.00121483 	-0.259019
0.0110368 	-9.27672e-05 	0.00121179 	-0.258164
0.011087 	-9.123e-05 	0.00120619 	-0.257337
0.011087 	-9.123e-05 	0.00120619 	-0.257337
0.0111371 	-8.53045e-05 	0.00119687 	-0.256552
0.0111873 	-7.86218e-05 	0.00118748 	-0.255768
0.0111873 	-7.86218e-05 	0.00118748 	-0.255768
0.0112375 	-6.8226e-05 	0.00117776 	-0.254991
0.0112876 	-5.78302e-05 	0.00116805 	-0.254214
0.0112876 	-5.78302e-05 	0.00116805 	-0.254214
0.0113378 	-4.39783e-05 	0.0011597 	-0.25341
0.011388 	-3.00204e-05 	0.00115139 	-0.252606
0.011388 	-3.00204e-05 	0.00115139 	-0.252606
0.0114883 	4.35592e-06 	0.00113259 	-0.250933
0.0114883 	4.35592e-06 	0.00113259 	-0.250933
0.0115385 	2.39167e-05 	0.00112167 	-0.250071
0.0115886 	4.44018e-05 	0.0011101 	-0.2492
0.0115886 	4.44018e-05 	0.0011101 	-0.2492
0.0116388 	6.58719e-05 	0.00109858 	-0.248312
0.011689 	8.79921e-05 	0.00108707 	-0.247413
0.011689 	8.79921e-05 	0.00108707 	-0.247413
0.0117391 	0.000110782 	0.00107664 	-0.246494
0.0117893 	0.000134109 	0.00106706 	-0.24556
0.0117893 	0.000134109 	0.00106706 	-0.24556
0.0118395 	0.000159463 	0.00105832 	-0.24459
0.0118896 	0.000186528 	0.0010503 	-0.24359
0.0118896 	0.000186528 	0.0010503 	-0.24359
0.0119398 	0.000218486 	0.00104106 	-0.242531
0.0119398 	0.000218486 	0.00104106 	-0.242531
0.01199 	0.000254208 	0.00103089 	-0.241426
0.01199 	0.000254208 	0.00103089 	-0.241426
0.0120401 	0.000296734 	0.00101727 	-0.240257
0.0120401 	0.000296734 	0.00101727 	-0.240257
0.0120903 	0.00034337 	0.00100157 	-0.239048
0.0120903 	0.00034337 	0.00100157 	-0.239048
0.0121405 	0.000394781 	0.000983141 	-0.237803
0.0121405 	0.000394781 	0.000983141 	-0.237803
0.0121906 	0.00044809 	0.000963634 	-0.236542
0.0121906 	0.00044809 	0.000963634 	-0.236542
0.0122408 	0.0005013 	0.00094457 	-0.235281
0.0122408 	0.0005013 	0.00094457 	-0.235281
0.012291 	0.00055449 	0.00092559 	-0.23402
0.012291 	0.00055449 	0.00092559 	-0.23402
0.0123411 	0.000604146 	0.000908885 	-0.232767
0.0123411 	0.000604146 	0.000908885 	-0.232767
0.0123913 	0.000653257 	0.000892358 	-0.231511
0.0123913 	0.000653257 	0.000892358 	-0.231511
0.0124415 	0.000700073 	0.000876574 	-0.230241
0.0124916 	0.000746669 	0.000860237 	-0.228954
0.0124916 	0.000746669 	0.000860237 	-0.228954
0.012592 	0.000839878 	0.000824746 	-0.226295
0.012592 	0.000839878 	0.000824746 	-0.226295
0.0126421 	0.000887117 	0.000805753 	-0.224928
0.0126923 	0.000935319 	0.000786131 	-0.223501
0.0126923 	0.000935319 	0.000786131 	-0.223501
0.0127425 	0.000983723 	0.00076642 	-0.222053
0.0127425 	0.000983723 	0.00076642 	-0.222053
0.0127926 	0.00103255 	0.000746549 	-0.220554
0.0128428 	0.00108152 	0.000726353 	-0.219012
0.0128428 	0.00108152 	0.000726353 	-0.219012
0.012893 	0.00113057 	0.000705953 	-0.217442
0.0129431 	0.00117958 	0.000685017 	-0.215797
0.0129431 	0.00117958 	0.000685017 	-0.215797
0.0129933 	0.00122849 	0.000663873 	-0.214119
0.0130435 	0.00127725 	0.000642415 	-0.21239
0.0130435 	0.00127725 	0.000642415 	-0.21239
0.0130936 	0.00132563 	0.000620575 	-0.210586
0.0131438 	0.00137372 	0.000598588 	-0.208736
0.0131438 	0.00137372 	0.000598588 	-0.208736
0.013194 	0.00142131 	0.000576433 	-0.206811
0.0132441 	0.00146809 	0.00055422 	-0.204798
0.0132441 	0.00146809 	0.00055422 	-0.204798
0.0132943 	0.00151422 	0.000531908 	-0.202723
0.0133445 	0.00155931 	0.000509388 	-0.200557
0.0133445 	0.00155931 	0.000509388 	-0.200557
0.0133946 	0.00160293 	0.00048653 	-0.198275
0.0134448 	0.00164541 	0.000463434 	-0.195904
0.0134448 	0.00164541 	0.000463434 	-0.195904
0.013495 	0.00168658 	0.000440077 	-0.193432
0.0135452 	0.00172545 	0.000416547 	-0.190777
0.0135452 	0.00172545 	0.000416547 	-0.190777
0.0136455 	0.00179852 	0.000370386 	-0.185055
0.0136455 	0.00179852 	0.000370386 	-0.185055
0.0136957 	0.00183216 	0.000347967 	-0.181927
0.0137458 	0.00186278 	0.000326019 	-0.178549
0.0137458 	0.00186278 	0.000326019 	-0.178549
0.013796 	0.0018904 	0.000304334 	-0.174965
0.0138462 	0.0019144 	0.000282833 	-0.171158
0.0138462 	0.0019144 	0.000282833 	-0.171158
0.0138963 	0.00193402 	0.000261422 	-0.167111
0.0138963 	0.00193402 	0.000261422 	-0.167111
0.0139465 	0.00194658 	0.000240483 	-0.162718
0.0139967 	0.00195264 	0.000220206 	-0.158026
0.0139967 	0.00195264 	0.000220206 	-0.158026
0.0140468 	0.00195141 	0.000200616 	-0.153013
0.0140468 	0.00195141 	0.000200616 	-0.153013
0.014097 	0.00194178 	0.000181763 	-0.147651
0.0141472 	0.00192239 	0.00016369 	-0.141909
0.0141973 	0.00189173 	0.000146421 	-0.135753
0.0141973 	0.00189173 	0.000146421 	-0.135753
0.0142475 	0.00184613 	0.000130134 	-0.129076
0.0142977 	0.00178629 	0.000114753 	-0.121903
0.0143478 	0.00171138 	0.000100417 	-0.114207
0.0143478 	0.00171138 	0.000100417 	-0.114207
0.014398 	0.00162084 	8.72148e-05 	-0.105982
0.014398 	0.00162084 	8.72148e-05 	-0.105982
0.0144482 	0.00151478 	7.5073e-05 	-0.0972574
0.0144983 	0.00139415 	6.38831e-05 	-0.0881083
0.0144983 	0.00139415 	6.38831e-05 	-0.0881083
0.0145485 	0.00126094 	5.35396e-05 	-0.0786528
0.0145987 	0.00111801 	4.39003e-05 	-0.069044
0.0145987 	0.00111801 	4.39003e-05 	-0.069044
0.0146488 	0.000968641 	3.48551e-05 	-0.0594447
0.014699 	0.000815828 	2.6364e-05 	-0.0499973
0.014699 	0.000815828 	2.6364e-05 	-0.0499973
0.0147492 	0.000661663 	1.84458e-05 	-0.040804
0.0147993 	0.000506705 	1.13322e-05 	-0.031931
0.0147993 	0.000506705 	1.13322e-05 	-0.031931
0.0148495 	0.000349309 	5.04862e-06 	-0.0234419
0.0148495 	0.000349309 	5.04862e-06 	-0.0234419
0.0148997 	0.000195431 	9.99052e-07 	-0.0153886
0.0148997 	0.000195431 	9.99052e-07 	-0.0153886
0.0149498 	7.24978e-05 	-4.35415e-07 	-0.00766323
0.0149498 	7.24978e-05 	-4.35415e-07 	-0.00766323
0.015 	0 	0 	0
