/*--------------------------------*- C++ -*----------------------------------*\
| =========                 |                                                 |
| \\      /  F ield         | OpenFOAM: The Open Source CFD Toolbox           |
|  \\    /   O peration     | Version:  v1912                                 |
|   \\  /    A nd           | Website:  www.openfoam.com                      |
|    \\/     M anipulation  |                                                 |
\*---------------------------------------------------------------------------*/
FoamFile
{
    version     2.0;
    format      ascii;
    class       volScalarField;
    location    "10.8";
    object      omega;
}
// * * * * * * * * * * * * * * * * * * * * * * * * * * * * * * * * * * * * * //

dimensions      [0 0 -1 0 0 0 0];


internalField   nonuniform List<scalar> 
34128
(
156509
156509
156509
156509
156509
156509
156509
156509
156509
156509
156509
156508
25872.6
25868.3
25866.1
25868.5
25870.9
25872.8
25871.2
25868.2
25868.2
25868.6
25867.2
25867.2
8916.14
8912.88
8911.29
8912.86
8914.81
8917.1
8916.24
8913.39
8913
8913.37
8912.09
8911.65
4286.8
4284.62
4283.77
4284.48
4285.99
4288.97
4288.87
4286
4285.12
4285.41
4284.14
4283.21
2499.73
2498.45
2498.2
2498.15
2499.34
2503.2
2503.88
2500.73
2499.25
2499.53
2498.21
2496.71
1656.48
1655.91
1656.06
1655.38
1656.34
1661.09
1662.54
1658.98
1656.87
1657.19
1655.85
1653.75
1204.89
1204.83
1205.15
1204.02
1204.81
1210.26
1212.42
1208.47
1205.75
1206.18
1204.87
1202.22
941.114
941.363
941.622
940.25
940.94
946.799
949.535
945.284
942.092
942.652
941.433
938.318
776.562
776.908
776.917
775.458
776.114
782.105
785.251
780.841
777.305
778.019
776.946
773.461
668.155
668.421
668.011
666.656
667.349
673.175
676.538
672.141
668.429
669.291
668.386
664.637
593.115
593.172
592.244
591.15
591.948
597.337
600.72
596.519
592.812
593.792
593.047
589.142
538.656
538.422
536.942
536.225
537.182
541.903
545.129
541.3
537.774
538.826
538.214
534.25
497.248
496.683
494.677
494.414
495.56
499.437
502.356
499.058
495.87
496.941
496.423
492.49
464.288
463.38
460.924
461.154
462.498
465.399
467.897
465.26
462.546
463.582
463.122
459.303
436.869
435.625
432.826
433.565
435.087
436.928
438.921
437.044
434.915
435.87
435.435
431.809
413.099
411.536
408.52
409.764
411.425
412.159
413.559
412.542
411.083
411.916
411.484
408.131
391.718
389.851
386.75
388.484
390.229
389.839
390.523
390.494
389.765
390.444
390.007
387.006
371.766
369.709
366.645
368.847
370.611
369.089
368.941
369.946
370.069
370.568
370.132
367.56
352.681
350.467
347.591
350.238
351.947
349.225
348.338
350.31
351.367
351.663
351.25
349.182
334.04
331.688
329.155
332.123
333.674
329.825
328.311
331.132
333.083
333.288
332.838
331.441
315.591
313.147
310.995
314.164
315.522
310.601
308.596
312.181
314.942
315.05
314.609
313.92
297.148
294.658
292.844
296.17
297.296
291.517
289.04
293.268
296.76
296.725
296.33
296.426
278.608
276.118
274.553
278.024
278.889
272.459
269.57
274.293
278.427
278.275
277.965
278.791
259.936
257.488
256.171
259.65
260.235
253.385
250.171
255.222
259.876
259.639
259.454
261.033
241.147
238.778
237.696
241.031
241.33
234.306
230.878
236.075
241.1
240.809
240.789
243.124
222.287
220.036
219.147
222.192
222.213
215.276
211.755
216.907
222.132
221.818
222.004
225.078
203.424
201.327
200.572
203.189
202.952
196.373
192.886
197.797
203.033
202.725
203.157
206.94
184.623
182.724
182.043
184.098
183.636
177.691
174.367
178.838
183.874
183.598
184.318
188.77
165.944
164.303
163.649
165.008
164.366
159.327
156.296
160.139
164.726
164.504
165.549
170.63
147.579
146.261
145.553
146.13
145.407
141.501
138.933
142.047
145.803
145.611
146.958
152.587
130.289
129.356
128.451
128.413
127.742
124.784
122.607
125.2
128.012
127.766
129.238
135.022
114.404
113.686
112.492
112.061
111.526
109.256
107.442
109.638
111.729
111.354
112.9
118.687
99.9358
99.1939
97.6922
97.0169
96.6445
94.9242
93.4708
95.3566
96.797
96.4081
98.0005
103.644
86.8134
85.9406
84.0893
83.27
83.0512
81.8327
80.7375
82.3363
83.1889
82.8965
84.5074
89.8047
74.9683
74.0323
71.728
70.8107
70.7376
70.091
69.3495
70.5508
70.9766
70.7785
72.378
77.2396
64.3525
63.4153
60.6789
59.6471
59.7103
59.6568
59.2353
59.9918
60.172
60.0132
61.5715
65.9801
54.929
54.0349
51.0295
49.7839
49.9668
50.4826
50.3302
50.7461
50.7033
50.5575
52.0459
55.9985
46.6556
45.8331
42.6967
41.2256
41.5004
42.5119
42.5685
42.75
42.5091
42.362
43.7541
47.2574
39.4668
38.7371
35.5817
34.0252
34.3587
35.6631
35.8403
35.8917
35.5029
35.3527
36.6307
39.705
33.1684
32.5419
29.4475
27.9289
28.3034
29.7176
29.9482
29.9451
29.4564
29.3082
30.4726
33.183
27.6522
27.1247
24.1728
22.7599
23.17
24.5692
24.8256
24.8145
24.2657
24.1188
25.1597
27.5355
22.9602
22.5222
19.785
18.5171
18.9497
20.247
20.5024
20.5187
19.958
19.8112
20.7172
22.7551
19.0199
18.6618
16.1835
15.079
15.5202
16.6589
16.9039
16.9594
16.43
16.2824
17.0554
18.7914
15.7507
15.4587
13.263
12.3272
12.7627
13.717
13.951
14.0371
13.5744
13.4262
14.0736
15.5454
13.0702
12.8285
10.9201
10.1488
10.5651
11.3374
11.5595
11.6596
11.2861
11.1389
11.672
12.9152
10.8969
10.6902
9.05757
8.44031
8.82326
9.43604
9.64449
9.74723
9.46618
9.32391
9.75606
10.8027
9.15313
8.96804
7.58766
7.11006
7.44819
7.93194
8.12473
8.22436
8.02517
7.89394
8.2392
9.11744
7.76652
7.59262
6.43502
6.07977
6.36957
6.75084
6.92659
7.02087
6.88649
6.77333
7.04555
7.7807
6.67197
6.50189
5.53824
5.28316
5.52781
5.82784
5.98594
6.07436
5.99034
5.89835
6.11066
6.72686
5.81269
5.64176
4.84603
4.66673
4.87286
5.10837
5.24897
5.33161
5.28724
5.21659
5.3813
5.90199
5.14066
4.96626
4.31279
4.18958
4.36394
4.54804
4.67177
4.74876
4.73474
4.68545
4.81423
5.25955
4.61646
4.43731
3.90169
3.82041
3.96857
4.11156
4.2193
4.29043
4.29871
4.27124
4.37458
4.75968
4.20848
4.0241
3.58464
3.53503
3.66125
3.7713
3.86373
3.9284
3.95362
3.94879
4.03413
4.37049
3.8918
3.70207
3.34033
3.31437
3.42182
3.50568
3.58324
3.64118
3.68041
3.70004
3.77116
4.0631
3.64699
3.45188
3.15253
3.14324
3.23464
3.29793
3.36122
3.41273
3.46232
3.50539
3.56868
3.81533
3.45884
3.25845
3.00872
3.01066
3.09022
3.13539
3.18508
3.23075
3.28774
3.35114
3.4097
3.61649
3.31573
3.11002
2.89917
2.90801
2.97925
3.00844
3.04533
3.08981
3.14988
3.23084
3.28333
3.45892
3.20895
2.99732
2.81625
2.82846
2.89318
2.90956
2.93788
2.98024
3.04179
3.13771
3.18414
3.33376
3.13051
2.91304
2.7541
2.76708
2.8271
2.83376
2.85441
2.89447
2.95812
3.06507
3.10617
3.23271
3.07439
2.85139
2.70936
2.71996
2.77658
2.77758
2.79013
2.82772
2.89381
3.00703
3.04356
3.14895
3.03674
2.80775
2.67687
2.68394
2.73805
2.7348
2.73973
2.7751
2.84356
2.95896
2.99123
3.07731
3.01411
2.77838
2.65364
2.65646
2.70873
2.70241
2.70023
2.73355
2.80384
2.91749
2.9453
3.0142
3.00326
2.76021
2.6373
2.6355
2.68632
2.67819
2.66938
2.70073
2.77191
2.88029
2.90316
2.95736
3.00141
2.75061
2.62646
2.61946
2.66896
2.66039
2.64546
2.6749
2.74578
2.84598
2.86343
2.90555
3.00525
2.74819
2.62002
2.60711
2.65519
2.64764
2.62722
2.65469
2.72422
2.81392
2.82573
2.85846
3.01164
2.75172
2.61706
2.59749
2.64392
2.6389
2.61369
2.63905
2.70635
2.78399
2.79033
2.81635
3.01746
2.75962
2.61681
2.58986
2.63438
2.63338
2.60416
2.62716
2.69155
2.7565
2.75794
2.77892
3.02043
2.77007
2.61859
2.58369
2.62605
2.63046
2.59807
2.61834
2.67953
2.73189
2.72933
2.74539
3.01905
2.78183
2.6219
2.57862
2.61859
2.62965
2.59497
2.61206
2.66933
2.71017
2.70441
2.71567
3.01242
2.79397
2.62621
2.57435
2.61184
2.63056
2.59445
2.60787
2.66044
2.69123
2.68302
2.68997
3.00037
2.80543
2.63111
2.57071
2.60575
2.6329
2.59612
2.6054
2.65318
2.67523
2.66584
2.6715
2.98335
2.81511
2.63618
2.56758
2.60035
2.63629
2.59968
2.60434
2.64736
2.66238
2.65358
2.65972
2.96229
2.82186
2.64086
2.5649
2.59571
2.64039
2.6047
2.6044
2.64276
2.65366
2.64425
2.65072
2.93824
2.82466
2.6439
2.56268
2.59191
2.64484
2.61074
2.60537
2.63915
2.6471
2.63864
2.64474
2.91262
2.82287
2.64551
2.56098
2.58906
2.64934
2.61734
2.607
2.63639
2.64334
2.63688
2.64163
2.88654
2.81608
2.64695
2.55994
2.58728
2.6536
2.62395
2.60909
2.63435
2.6424
2.63896
2.6413
2.86122
2.80461
2.64797
2.55976
2.58669
2.65747
2.63003
2.6114
2.63298
2.64416
2.64478
2.64359
2.83757
2.78927
2.64854
2.56068
2.58745
2.66093
2.63503
2.61373
2.63233
2.64854
2.65421
2.6484
2.81646
2.7714
2.64879
2.563
2.58979
2.66427
2.6384
2.61589
2.63254
2.65555
2.66715
2.65576
156509
156509
156509
156509
156509
156509
156509
156509
156509
156509
156509
156509
25859.3
25851.8
25847.6
25849.8
25852.7
25855.6
25855.2
25850.8
25850
25851.3
25850.8
25849.1
8730.98
8688.84
8659.06
8660.37
8667.76
8678.48
8693.28
8675.16
8664.56
8676.37
8686
8667.82
4227.19
4212.05
4201.75
4202.28
4205.67
4211.79
4217.15
4208.77
4204.24
4208.43
4210.92
4203.88
2477.68
2470.96
2466.64
2466.54
2468.63
2473.93
2477.02
2471.29
2468.1
2470.09
2470.45
2466.25
1649.15
1645.86
1643.85
1643.29
1644.84
1650.18
1652.79
1647.88
1644.86
1646.08
1645.64
1642.12
1204.34
1202.63
1201.53
1200.72
1202.03
1207.49
1210.14
1205.52
1202.35
1203.31
1202.56
1199.04
943.887
942.882
942.028
941.171
942.401
947.813
950.61
946.164
942.82
943.726
942.874
939.172
781.106
780.349
779.364
778.704
779.951
784.959
787.726
783.625
780.32
781.235
780.377
776.49
673.558
672.785
671.504
671.196
672.527
676.872
679.482
675.851
672.747
673.678
672.843
668.846
598.793
597.854
596.226
596.372
597.83
601.306
603.623
600.592
597.853
598.781
597.967
593.954
544.204
543.033
541.085
541.739
543.339
545.809
547.713
545.391
543.163
544.06
543.244
539.312
502.38
500.967
498.785
499.954
501.681
503.076
504.481
502.938
501.339
502.176
501.335
497.575
468.796
467.171
464.875
466.529
468.343
468.651
469.5
468.77
467.886
468.642
467.754
464.256
440.599
438.812
436.537
438.624
440.462
439.715
439.979
440.055
439.944
440.611
439.665
436.515
415.929
414.047
411.92
414.372
416.163
414.418
414.091
414.935
415.629
416.209
415.205
412.49
393.539
391.639
389.77
392.507
394.173
391.513
390.628
392.148
393.658
394.166
393.114
390.92
372.682
370.737
369.211
372.139
373.611
370.131
368.734
370.915
373.137
373.595
372.515
370.925
352.761
350.791
349.621
352.626
353.851
349.725
347.828
350.661
353.43
353.868
352.786
351.874
333.378
331.39
330.56
333.615
334.631
329.868
327.521
330.904
334.249
334.54
333.582
333.313
314.23
312.288
311.748
314.818
315.572
310.291
307.577
311.364
315.242
315.46
314.645
315.048
295.084
293.321
293.076
296.004
296.446
290.88
287.89
291.891
296.184
296.335
295.678
296.851
275.881
274.328
274.357
277.031
277.166
271.555
268.371
272.417
276.967
277.047
276.591
278.575
256.625
255.301
255.536
257.879
257.726
252.216
248.937
252.946
257.583
257.58
257.367
260.148
237.37
236.285
236.639
238.591
238.185
232.912
229.637
233.532
238.085
237.986
238.051
241.59
218.213
217.364
217.737
219.262
218.651
213.732
210.553
214.272
218.579
218.366
218.737
222.968
199.281
198.649
198.942
200.027
199.272
194.792
191.788
195.286
199.208
198.863
199.557
204.392
180.718
180.272
180.389
181.052
180.217
176.227
173.455
176.705
180.147
179.654
180.671
185.999
162.675
162.372
162.233
162.514
161.667
158.182
155.679
158.658
161.585
160.933
162.257
167.95
145.293
145.085
144.64
144.589
143.793
140.811
138.594
141.256
143.709
142.901
144.494
150.421
128.698
128.549
127.78
127.431
126.745
124.28
122.359
124.598
126.677
125.734
127.55
133.59
113.019
112.923
111.841
111.197
110.683
108.75
107.146
109.066
110.62
109.579
111.566
117.606
98.3749
98.3464
96.9844
96.1862
95.8572
94.3468
93.0762
94.7886
95.7115
94.5618
96.6642
102.609
84.8643
84.9101
83.323
82.4718
82.2803
81.1497
80.1852
81.7807
82.0784
80.7862
82.9459
88.7169
72.5565
72.6634
70.914
70.0415
69.9932
69.1934
68.4947
70.0005
69.711
68.324
70.482
76.0104
61.4881
61.633
59.7749
58.9231
59.0138
58.4871
58.0133
59.4044
58.6468
57.2122
59.3111
64.533
51.6613
51.8207
49.897
49.1107
49.3289
49.017
48.7296
49.9811
48.8894
47.4507
49.4382
54.3006
43.0369
43.1951
41.254
40.5605
40.886
40.7373
40.6006
41.6907
40.3939
38.9901
40.8298
45.2922
35.558
35.6984
33.7893
33.1946
33.5991
33.5792
33.5681
34.4842
33.0932
31.7551
33.4196
37.4516
29.1797
29.2835
27.4493
26.9551
27.4059
27.4878
27.5839
28.3258
26.9317
25.6813
27.1464
30.7273
23.8377
23.8951
22.1714
21.7783
22.2445
22.4001
22.582
23.1623
21.8318
20.6835
21.9387
25.0687
19.4317
19.4398
17.8528
17.5595
18.0166
18.2182
18.463
18.9034
17.6782
16.6393
17.6879
20.3879
15.8493
15.8107
14.3776
14.1812
14.6109
14.8336
15.117
15.446
14.3472
13.4194
14.2741
16.5762
12.9746
12.8954
11.6264
11.5217
11.9104
12.133
12.4319
12.681
11.7149
10.8947
11.5751
13.5188
10.6944
10.5827
9.48299
9.4605
9.79891
10.0042
10.2996
10.4981
9.6621
8.94251
9.47236
11.1016
8.90315
8.76774
7.83781
7.88239
8.1661
8.34168
8.62045
8.7906
8.07903
7.4509
7.85532
9.21558
7.50612
7.35539
6.59054
6.6812
6.91187
7.05142
7.30613
7.4612
6.86787
6.32162
6.62516
7.7607
6.42197
6.26268
5.65096
5.76509
5.95011
6.05342
6.28118
6.42662
5.9447
5.47185
5.69685
6.64841
5.5831
5.41986
4.93984
5.06182
5.21116
5.28226
5.48311
5.61969
5.24053
4.83441
4.99998
5.80298
4.935
4.77042
4.39518
4.51809
4.64135
4.68604
4.86161
4.9886
4.70211
4.35702
4.47817
5.1621
4.43478
4.26974
3.97535
4.09514
4.2005
4.22452
4.37738
4.49462
4.28019
3.99474
4.08772
4.67671
4.04926
3.8835
3.65112
3.76474
3.85909
3.86698
4.00048
4.10707
3.94106
3.71347
3.79586
4.30075
3.75316
3.58574
3.40062
3.50647
3.59431
3.59029
3.70509
3.79775
3.66984
3.49362
3.57271
4.00048
3.52725
3.35673
3.20724
3.3033
3.38572
3.37502
3.46987
3.54861
3.45569
3.32385
3.3986
3.7602
3.35686
3.18139
3.0583
3.143
3.21964
3.20539
3.28215
3.35086
3.28762
3.1953
3.26404
3.57014
3.22873
3.04814
2.94413
3.01802
3.08874
3.07171
3.13449
3.19629
3.15705
3.0996
3.16133
3.42045
3.13326
2.94808
2.85748
2.92059
2.98742
2.96792
3.01966
3.0721
3.05677
3.02831
3.08316
3.3016
3.06466
2.87427
2.79278
2.84615
2.90955
2.88847
2.92658
2.97267
2.97956
2.97391
3.02261
3.2054
3.01821
2.82121
2.74482
2.78953
2.85113
2.8283
2.85293
2.89484
2.91794
2.93025
2.974
3.1254
2.98965
2.78449
2.70797
2.74659
2.8076
2.78213
2.79555
2.83445
2.86714
2.89165
2.93295
3.05683
2.9749
2.76052
2.68079
2.714
2.77526
2.74762
2.75088
2.78725
2.82546
2.85676
2.89643
2.99642
2.97017
2.74643
2.66138
2.68912
2.7511
2.7221
2.71595
2.74986
2.79129
2.82574
2.86256
2.94207
2.97207
2.73998
2.64812
2.6699
2.73279
2.70351
2.68838
2.71993
2.76302
2.79815
2.83046
2.89271
2.9778
2.73931
2.63964
2.65476
2.71834
2.69027
2.66648
2.69604
2.73936
2.77367
2.79994
2.84802
2.98497
2.74271
2.63481
2.64249
2.70615
2.68111
2.64925
2.67717
2.71965
2.75206
2.77129
2.80811
2.99148
2.74931
2.63271
2.6322
2.69513
2.67505
2.63605
2.6625
2.70343
2.73284
2.74501
2.77312
2.99545
2.75822
2.63262
2.62327
2.68463
2.67138
2.62639
2.65135
2.69028
2.71507
2.72164
2.74284
2.99538
2.76875
2.63396
2.61525
2.67432
2.66953
2.61986
2.64316
2.6799
2.69904
2.70139
2.71616
2.9904
2.78007
2.63617
2.60785
2.66417
2.66914
2.61611
2.63745
2.67253
2.68527
2.68456
2.69612
2.97996
2.79117
2.63878
2.60096
2.6542
2.67026
2.61479
2.63383
2.66767
2.67407
2.67314
2.68206
2.96449
2.80102
2.64128
2.59448
2.64461
2.67256
2.61552
2.63191
2.66476
2.66571
2.6649
2.67096
2.94481
2.80854
2.64319
2.5884
2.63562
2.67519
2.61795
2.63135
2.66334
2.66035
2.65959
2.66334
2.92206
2.81281
2.64415
2.58277
2.62741
2.67755
2.6216
2.63185
2.6629
2.65667
2.65801
2.65946
2.89756
2.81311
2.64422
2.5777
2.62019
2.67943
2.62596
2.63322
2.66295
2.65566
2.66033
2.6592
2.87254
2.80915
2.64399
2.57337
2.61434
2.68065
2.6305
2.63515
2.66305
2.65698
2.66652
2.66221
2.84815
2.80078
2.64334
2.56997
2.61004
2.68105
2.63465
2.63715
2.66281
2.6603
2.6764
2.66809
2.82525
2.78861
2.64234
2.56775
2.60741
2.68058
2.6379
2.6389
2.66192
2.66538
2.68959
2.67618
2.80469
2.77351
2.64113
2.56696
2.60659
2.67915
2.63989
2.64007
2.66035
2.67199
2.70558
2.68584
2.78708
2.75673
2.64003
2.56792
2.6078
2.67806
2.64046
2.64039
2.65878
2.68001
2.72371
2.69656
156509
156509
156509
156509
156509
156509
156509
156509
156509
156509
156509
156509
25884.9
25882
25881.4
25883.2
25885.5
25887.8
25885.9
25883.1
25883.4
25883.3
25881.3
25881.1
8927.46
8925.37
8925.01
8926.21
8928.05
8930.62
8929.48
8926.82
8926.6
8926.57
8924.85
8924.32
4298.06
4296.74
4296.66
4297.24
4298.72
4301.72
4301.39
4298.7
4297.92
4297.98
4296.46
4295.41
2511.7
2510.96
2511.02
2511.16
2512.44
2515.89
2516.26
2513.44
2512.13
2512.33
2510.91
2509.22
1669.32
1668.95
1669.01
1668.9
1670.09
1673.8
1674.73
1671.83
1670.13
1670.48
1669.11
1666.8
1218.36
1218.17
1218.08
1217.96
1219.11
1222.77
1224.06
1221.24
1219.35
1219.86
1218.54
1215.69
954.814
954.656
954.291
954.373
955.547
958.797
960.201
957.69
955.852
956.503
955.225
951.972
789.94
789.68
789.031
789.422
790.658
793.277
794.69
792.571
790.937
791.702
790.454
786.95
680.75
680.312
679.379
680.18
681.5
683.277
684.507
682.926
681.702
682.548
681.308
677.702
604.571
603.936
602.78
604.023
605.426
606.254
607.158
606.2
605.541
606.435
605.175
601.601
548.714
547.901
546.626
548.287
549.748
549.613
550.098
549.787
549.795
550.711
549.407
545.983
505.737
504.792
503.518
505.533
507.007
505.967
505.987
506.29
507.017
507.942
506.578
503.406
471.103
470.082
468.928
471.209
472.638
470.797
470.339
471.185
472.642
473.57
472.144
469.318
441.954
440.913
439.975
442.425
443.748
441.235
440.312
441.602
443.766
444.698
443.224
440.827
416.43
415.419
414.76
417.278
418.443
415.395
414.039
415.664
418.482
419.422
417.923
416.035
393.287
392.346
391.991
394.482
395.449
392.004
390.253
392.109
395.504
396.451
394.962
393.658
371.662
370.832
370.773
373.143
373.895
370.191
368.076
370.024
373.953
374.894
373.456
372.807
350.858
350.281
350.482
352.638
353.108
349.359
346.907
348.798
353.146
354.137
352.791
352.861
330.455
330.172
330.672
332.497
332.673
328.968
326.259
328.095
332.693
333.659
332.475
333.289
310.242
310.221
310.985
312.475
312.382
308.752
305.872
307.66
312.356
313.178
312.21
313.847
290.134
290.288
291.234
292.405
292.076
288.535
285.575
287.35
291.976
292.611
291.907
294.384
270.039
270.373
271.411
272.215
271.688
268.271
265.337
267.108
271.487
271.879
271.486
274.803
249.941
250.453
251.493
251.908
251.229
248.05
245.236
246.941
250.897
250.985
250.944
255.084
229.876
230.554
231.513
231.541
230.759
227.913
225.309
226.902
230.265
229.989
230.335
235.264
209.918
210.742
211.549
211.209
210.376
207.933
205.626
207.08
209.687
208.995
209.758
215.42
190.163
191.106
191.703
191.034
190.197
188.2
186.272
187.58
189.277
188.134
189.335
195.657
170.72
171.747
172.093
171.143
170.34
168.808
167.336
168.512
169.154
167.543
169.199
176.088
151.698
152.769
152.834
151.667
150.922
149.848
148.9
149.988
149.438
147.365
149.476
156.82
133.248
134.316
134.091
132.84
132.222
131.521
131.106
132.213
130.453
127.94
130.368
137.984
115.884
116.935
116.497
115.386
114.945
114.48
114.486
115.776
112.921
110.02
112.548
120.135
100.028
101.057
100.458
99.595
99.2875
98.9732
99.3037
100.67
97.0629
93.8312
96.3812
103.79
85.7493
86.7344
85.9898
85.2854
85.1001
84.9934
85.5549
86.8664
82.8207
79.3755
81.8982
89.0244
73.0075
73.9244
73.0399
72.4283
72.4095
72.4884
73.2247
74.372
70.1157
66.6103
69.0573
75.8102
61.7415
62.5702
61.5679
61.053
61.1798
61.4066
62.2714
63.2328
58.9655
55.479
57.8005
64.1005
51.8855
52.6144
51.535
51.1138
51.3621
51.6978
52.6473
53.4698
49.3031
45.9125
48.0602
53.8436
43.3613
43.9938
42.891
42.5563
42.8972
43.306
44.2957
45.017
41.0496
37.8236
39.755
44.9818
36.0145
36.608
35.5487
35.2859
35.6933
36.1314
37.0911
37.7384
34.0309
31.0217
32.7474
37.4223
29.6708
30.2337
29.2633
29.0614
29.5114
29.9461
30.8341
31.4272
28.0279
25.2807
26.7995
30.9241
24.289
24.7735
23.9101
23.7708
24.234
24.65
25.4621
26.0141
22.9801
20.5304
21.8131
25.3719
19.8241
20.2394
19.5011
19.4262
19.8749
20.2547
20.9739
21.4928
18.8481
16.7058
17.7605
20.7832
16.1689
16.5232
15.9225
15.9086
16.3208
16.6488
17.2693
17.757
15.5057
13.6644
14.5092
17.0419
13.214
13.5136
13.0504
13.0886
13.4514
13.72
14.2453
14.6995
12.8282
11.2699
11.9294
14.0272
10.853
11.1029
10.7663
10.8435
11.1524
11.3614
11.8019
12.2179
10.6995
9.398
9.90005
11.6223
8.98637
9.19042
8.96216
9.06356
9.32086
9.47611
9.84596
10.2193
9.01526
7.94051
8.31325
9.71888
7.52433
7.68566
7.54307
7.65614
7.86833
7.97893
8.29292
8.62159
7.68614
6.80664
7.07647
8.2209
6.38813
6.50971
6.42948
6.54642
6.72141
6.79692
7.06838
7.35355
6.6377
5.92276
6.1133
7.04588
5.51088
5.59564
5.55751
5.67492
5.81999
5.86881
6.10809
6.35344
5.80922
5.22993
5.36251
6.12534
4.83717
4.88803
4.87718
4.99356
5.11477
5.14361
5.35752
5.5675
5.15336
4.68247
4.77582
5.4037
4.32193
4.34157
4.34868
4.46255
4.56496
4.57902
4.77089
4.95005
4.63568
4.24436
4.3144
4.83637
3.92909
3.91807
3.93937
4.04886
4.13681
4.13994
4.31192
4.46575
4.22798
3.89454
3.94447
4.38934
3.63085
3.59111
3.62276
3.72658
3.80384
3.79838
3.9538
4.08401
3.90256
3.62472
3.65313
4.03841
3.40655
3.34253
3.37819
3.47627
3.54657
3.53259
3.67199
3.77889
3.64161
3.41644
3.43063
3.76514
3.24004
3.15606
3.18981
3.28339
3.34923
3.32489
3.44726
3.53531
3.43545
3.2568
3.26228
3.54936
3.117
3.01754
3.04519
3.13546
3.19664
3.16381
3.26888
3.34388
3.27382
3.1357
3.13372
3.37632
3.02776
2.91623
2.9342
3.02185
3.07856
3.04158
3.1291
3.19518
3.14813
3.04346
3.03488
3.23888
2.96616
2.84373
2.85034
2.93625
2.98998
2.95121
3.02078
3.08047
3.05151
2.97213
2.95822
3.13047
2.92648
2.79356
2.79061
2.87178
2.92629
2.8845
2.93819
2.99341
2.97798
2.9161
2.89812
3.04473
2.90341
2.76041
2.74748
2.8234
2.87957
2.83497
2.87432
2.92463
2.91876
2.87171
2.8511
2.97626
2.8924
2.73995
2.71607
2.78695
2.84534
2.79816
2.82375
2.86967
2.87026
2.8368
2.81382
2.92059
2.88963
2.72844
2.69359
2.75914
2.82018
2.77108
2.78323
2.82566
2.83007
2.80778
2.78362
2.87408
2.8919
2.72313
2.67786
2.73741
2.80164
2.75145
2.7504
2.79021
2.79651
2.78162
2.75855
2.83292
2.89676
2.72254
2.66711
2.71984
2.78876
2.73805
2.72365
2.76155
2.7682
2.75736
2.73733
2.79695
2.90199
2.72538
2.66
2.70499
2.77758
2.72921
2.70181
2.73829
2.74422
2.73497
2.71928
2.76669
2.90573
2.73079
2.65549
2.69187
2.76596
2.72279
2.68392
2.7192
2.72416
2.71479
2.70413
2.74231
2.90658
2.73777
2.65276
2.67977
2.75356
2.71794
2.66936
2.70369
2.70808
2.6975
2.69188
2.72315
2.90365
2.74552
2.65121
2.66827
2.74038
2.71413
2.65781
2.69136
2.69545
2.68431
2.68271
2.7088
2.89645
2.75326
2.65032
2.65716
2.72668
2.71101
2.64917
2.68187
2.68573
2.67457
2.67706
2.69942
2.88499
2.76026
2.64972
2.6464
2.71287
2.70827
2.64318
2.67492
2.67868
2.66751
2.67474
2.69117
2.8698
2.76577
2.6491
2.63607
2.69941
2.70528
2.63947
2.67019
2.67441
2.66304
2.67346
2.68552
2.8517
2.76915
2.64822
2.62623
2.68662
2.70197
2.63769
2.66737
2.67266
2.66124
2.67571
2.68391
2.83171
2.76992
2.64696
2.61691
2.67479
2.69879
2.63745
2.66611
2.67297
2.66214
2.6821
2.68654
2.81091
2.76781
2.6453
2.60822
2.66382
2.69604
2.63832
2.666
2.67483
2.66628
2.69299
2.69352
2.79028
2.76274
2.64328
2.60033
2.65327
2.69358
2.63982
2.66654
2.67775
2.67306
2.70853
2.70468
2.7706
2.75488
2.64069
2.59345
2.64487
2.69134
2.64145
2.66732
2.68117
2.68209
2.72868
2.71956
2.75244
2.7447
2.63741
2.58778
2.6392
2.68933
2.64276
2.66815
2.68462
2.69283
2.75305
2.73716
2.73541
2.73285
2.63373
2.58356
2.63583
2.68776
2.64338
2.66863
2.68767
2.70458
2.7808
2.75606
2.72129
2.72012
2.63016
2.58107
2.63487
2.68709
2.64309
2.66838
2.68988
2.71647
2.8106
2.77461
2.71061
2.70742
2.62729
2.58059
2.63635
2.6864
2.64189
2.66713
2.69017
2.72737
2.84058
2.79122
156509
156509
156509
156509
156509
156509
156509
156509
156509
156509
156509
156509
25864.9
25862.6
25862.3
25863.7
25866.2
25868.8
25866.7
25864.2
25864.5
25864.4
25862.4
25862.1
8663.92
8658.25
8655.47
8657.33
8661.28
8662.93
8661.28
8659.46
8660.16
8661.8
8661.29
8659.32
4212.63
4210.35
4209.47
4210.19
4212.51
4215.11
4214.55
4212.31
4211.87
4212.51
4211.42
4209.75
2479.38
2478.29
2477.93
2478.21
2479.97
2482.99
2483.11
2480.7
2479.71
2480.23
2478.99
2476.92
1657.49
1656.9
1656.62
1656.77
1658.34
1661.41
1661.97
1659.55
1658.33
1658.98
1657.66
1655.06
1215.64
1215.22
1214.84
1215.08
1216.6
1219.4
1220.16
1217.91
1216.73
1217.58
1216.2
1213.12
956.254
955.826
955.266
955.76
957.287
959.542
960.277
958.383
957.468
958.542
957.083
953.665
793.468
792.944
792.212
793.035
794.604
796.125
796.643
795.149
794.786
796.064
794.515
790.915
685.222
684.58
683.741
684.902
686.511
687.222
687.379
686.355
686.676
688.137
686.479
682.855
609.325
608.587
607.741
609.189
610.811
610.738
610.446
609.887
610.967
612.594
610.813
607.302
553.359
552.574
551.83
553.478
555.067
554.307
553.527
553.372
555.229
557.013
555.108
551.825
510.045
509.272
508.731
510.471
511.973
510.662
509.396
509.546
512.153
514.09
512.074
509.114
474.944
474.243
473.976
475.703
477.06
475.345
473.619
473.966
477.261
479.347
477.247
474.69
445.244
444.669
444.715
446.334
447.495
445.508
443.371
443.811
447.704
449.929
447.785
445.701
419.101
418.695
419.058
420.492
421.418
419.271
416.781
417.228
421.615
423.953
421.813
420.269
395.261
395.058
395.717
396.91
397.571
395.352
392.58
392.97
397.731
400.134
398.056
397.116
372.848
372.88
373.799
374.714
375.087
372.864
369.891
370.25
375.186
377.579
375.627
375.354
351.336
351.542
352.675
353.296
353.446
351.189
348.109
348.494
353.482
355.67
353.907
354.365
330.353
330.735
331.94
332.333
332.258
330.072
326.953
327.322
332.154
334.093
332.587
333.829
309.535
310.136
311.405
311.516
311.285
309.198
306.113
306.424
310.939
312.527
311.321
313.424
288.746
289.563
290.873
290.687
290.308
288.398
285.434
285.692
289.712
290.815
289.967
292.964
267.941
268.963
270.261
269.811
269.304
267.598
264.852
265.091
268.446
268.935
268.498
272.398
247.151
248.359
249.592
248.927
248.323
246.825
244.382
244.654
247.187
246.95
246.965
251.756
226.465
227.834
228.953
228.128
227.465
226.161
224.095
224.452
226.046
224.994
225.487
231.13
206.013
207.514
208.478
207.555
206.87
205.736
204.1
204.596
205.174
203.254
204.231
210.66
185.959
187.558
188.336
187.372
186.702
185.711
184.537
185.214
184.752
181.952
183.397
190.519
166.48
168.144
168.716
167.763
167.139
166.264
165.558
166.445
164.972
161.33
163.205
170.904
147.756
149.452
149.816
148.912
148.357
147.579
147.323
148.423
146.026
141.628
143.874
152.013
129.952
131.653
131.826
130.992
130.515
129.827
129.984
131.268
128.082
123.067
125.604
134.029
113.206
114.894
114.915
114.153
113.754
113.156
113.673
115.094
111.282
105.816
108.558
117.104
97.642
99.3012
99.215
98.5296
98.2126
97.6985
98.518
100.037
95.7494
90.0048
92.8611
101.363
83.3617
84.9781
84.8343
84.2448
84.0061
83.5574
84.6193
86.2098
81.5835
75.726
78.605
86.9086
70.4373
71.9977
71.8452
71.3742
71.2025
70.7985
72.0359
73.6745
68.8458
63.028
65.842
73.8093
58.9054
60.3978
60.2774
59.9426
59.8246
59.446
60.7877
62.4455
57.5509
51.9147
54.583
62.0983
48.7572
50.1724
50.114
49.9276
49.8475
49.4708
50.8482
52.4898
47.665
42.3354
44.7953
51.762
39.9438
41.2702
41.2903
41.2563
41.1981
40.8018
42.1575
43.748
39.1159
34.1931
36.3994
42.7436
32.4112
33.624
33.7208
33.8332
33.7877
33.3681
34.6593
36.1635
31.8333
27.3852
29.305
34.9784
26.0978
27.1733
27.3342
27.5758
27.5406
27.1062
28.3012
29.6877
25.7469
21.8082
23.4288
28.4107
20.9046
21.8335
22.0442
22.3868
22.3612
21.9239
23.0013
24.2494
20.7515
17.3284
18.6575
22.9571
16.7067
17.4859
17.7309
18.1403
18.1249
17.6994
18.6502
19.7498
16.7158
13.7916
14.8494
18.4984
13.3705
14.0034
14.2673
14.7101
14.705
14.3067
15.1312
16.0821
13.5048
11.0444
11.8598
14.9077
10.7619
11.2581
11.5275
11.9755
11.9802
11.6216
12.3269
13.1369
10.9872
8.94189
9.54916
12.0581
8.75253
9.12652
9.39087
9.82381
9.83692
9.52462
10.123
10.8057
9.03974
7.35311
7.78809
9.82818
7.22436
7.49359
7.74585
8.1514
8.17091
7.90502
8.41205
8.98437
7.55162
6.16484
6.46183
8.1054
6.07371
6.25654
6.49269
6.86511
6.88875
6.66386
7.0967
7.5769
6.42659
5.28372
5.47235
6.7893
5.2133
5.32707
5.54542
5.88352
5.90927
5.71723
6.09265
6.49827
5.58407
4.63774
4.7392
5.79332
4.57281
4.63236
4.83247
5.13827
5.16481
4.9985
5.33014
5.67672
4.94668
4.15786
4.19915
5.04546
4.09784
4.11481
4.29651
4.5747
4.60142
4.45585
4.75375
5.04879
4.45013
3.79705
3.80517
4.48788
3.74593
3.73096
3.89357
4.14874
4.17568
4.04829
4.30933
4.55405
4.05934
3.53676
3.51574
4.06499
3.48053
3.45032
3.5896
3.8194
3.84687
3.73718
3.95772
4.15627
3.75664
3.35968
3.30762
3.73611
3.27799
3.24348
3.35686
3.56034
3.58858
3.49591
3.68005
3.84115
3.52842
3.2323
3.15708
3.48034
3.12559
3.08745
3.17798
3.35911
3.38844
3.31068
3.46399
3.59658
3.36069
3.13841
3.04449
3.28415
3.01326
2.9699
3.04278
3.20548
3.23586
3.17275
3.29865
3.40979
3.23909
3.06767
2.95955
3.13709
2.93265
2.88304
2.94299
3.09025
3.12081
3.07019
3.17328
3.26791
3.15096
3.0123
2.89544
3.02894
2.87661
2.82018
2.87171
3.00527
3.03988
2.99089
3.0776
3.15934
3.08364
2.96728
2.84732
2.94888
2.83885
2.77566
2.82082
2.94312
2.98021
2.92722
3.00269
3.07455
3.02698
2.92928
2.81194
2.88589
2.81414
2.74474
2.78038
2.8975
2.93528
2.87736
2.942
3.00621
2.97536
2.89564
2.78541
2.83712
2.79824
2.72395
2.75005
2.86333
2.90189
2.84011
2.89201
2.9511
2.9302
2.86425
2.76442
2.80128
2.788
2.71078
2.72844
2.83681
2.87643
2.81305
2.85049
2.90514
2.89002
2.83501
2.74689
2.77466
2.7813
2.70384
2.71303
2.81517
2.85635
2.79259
2.81515
2.8651
2.85364
2.80767
2.73165
2.75465
2.7765
2.70191
2.70192
2.79647
2.83876
2.77656
2.78475
2.82957
2.82039
2.78179
2.71819
2.7411
2.77221
2.70298
2.69375
2.77941
2.81946
2.76275
2.75856
2.79786
2.79004
2.75732
2.70636
2.73164
2.76721
2.70517
2.68754
2.7632
2.80035
2.7504
2.73617
2.7698
2.7626
2.73451
2.69622
2.72404
2.75927
2.70778
2.68258
2.74741
2.78231
2.73998
2.71726
2.74547
2.73823
2.71374
2.6879
2.71707
2.74874
2.71024
2.67839
2.73189
2.76494
2.73115
2.70152
2.72493
2.717
2.69553
2.68162
2.71098
2.73613
2.71196
2.67464
2.71668
2.74815
2.72357
2.68854
2.70805
2.69988
2.68043
2.67761
2.70621
2.72207
2.71248
2.67111
2.70177
2.7321
2.71702
2.67781
2.6946
2.68702
2.66902
2.67639
2.70386
2.70744
2.71146
2.66763
2.68748
2.71713
2.71132
2.66918
2.68433
2.67791
2.66148
2.67925
2.7051
2.69323
2.7087
2.6641
2.674
2.7037
2.70635
2.66256
2.67691
2.67212
2.6577
2.68688
2.71071
2.68001
2.7041
2.66047
2.66151
2.69221
2.70203
2.6577
2.67197
2.66932
2.65744
2.69989
2.72139
2.66817
2.69775
2.65671
2.65013
2.68306