/*--------------------------------*- C++ -*----------------------------------*\
| =========                 |                                                 |
| \\      /  F ield         | OpenFOAM: The Open Source CFD Toolbox           |
|  \\    /   O peration     | Version:  v1912                                 |
|   \\  /    A nd           | Website:  www.openfoam.com                      |
|    \\/     M anipulation  |                                                 |
\*---------------------------------------------------------------------------*/
FoamFile
{
    version     2.0;
    format      ascii;
    class       surfaceScalarField;
    location    "10.8";
    object      phi;
}
// * * * * * * * * * * * * * * * * * * * * * * * * * * * * * * * * * * * * * //

dimensions      [1 0 -1 0 0 0 0];
oriented        oriented;


internalField   nonuniform List<scalar> 
97428
(
-3.29339e-10
8.61639e-09
-2.4825e-07
-5.74732e-10
8.54848e-09
-2.49747e-07
-8.03498e-10
8.41428e-09
-2.52053e-07
-8.42749e-10
7.99023e-09
-2.49639e-07
-9.74335e-10
7.95162e-09
-2.5034e-07
-2.16567e-10
7.84888e-09
-2.5797e-07
1.2773e-09
7.73256e-09
-2.6044e-07
1.21291e-09
8.34521e-09
-2.55953e-07
3.79262e-10
8.36112e-09
-2.52818e-07
3.16653e-10
8.05746e-09
-2.5284e-07
4.8107e-10
8.16121e-09
-2.50562e-07
8.90029e-09
-2.4706e-07
-1.16189e-09
3.40023e-08
-7.6881e-07
-1.84182e-09
3.38246e-08
-7.73571e-07
-2.44311e-09
3.31763e-08
-7.80641e-07
-2.75142e-09
3.17848e-08
-7.73224e-07
-3.26659e-09
3.15669e-08
-7.75209e-07
-8.62883e-10
3.08344e-08
-7.98178e-07
3.78679e-09
3.03308e-08
-8.0579e-07
3.89615e-09
3.26749e-08
-7.92336e-07
1.35314e-09
3.30841e-08
-7.82767e-07
9.65694e-10
3.20417e-08
-7.82814e-07
1.21333e-09
3.25392e-08
-7.76048e-07
3.51646e-08
-7.65431e-07
-2.27014e-09
7.59257e-08
-1.32109e-06
-3.25739e-09
7.56068e-08
-1.32944e-06
-4.23438e-09
7.40446e-08
-1.3414e-06
-4.93708e-09
7.13525e-08
-1.3287e-06
-5.88543e-09
7.07809e-08
-1.33187e-06
-1.77656e-09
6.8627e-08
-1.37053e-06
6.14559e-09
6.73705e-08
-1.38368e-06
6.6183e-09
7.25536e-08
-1.36105e-06
2.36791e-09
7.39484e-08
-1.34467e-06
1.53435e-09
7.18814e-08
-1.3448e-06
1.74643e-09
7.31081e-08
-1.33362e-06
7.86367e-08
-1.31558e-06
-3.73972e-09
1.34019e-07
-1.90318e-06
-4.86333e-09
1.33493e-07
-1.9154e-06
-6.26609e-09
1.30631e-07
-1.93223e-06
-7.42339e-09
1.26476e-07
-1.91399e-06
-8.76467e-09
1.25352e-07
-1.9182e-06
-2.97001e-09
1.20772e-07
-1.97286e-06
8.22006e-09
1.18282e-07
-1.99205e-06
9.1758e-09
1.27421e-07
-1.96001e-06
3.29588e-09
1.30525e-07
-1.93638e-06
1.96266e-09
1.27295e-07
-1.93672e-06
2.09301e-09
1.29623e-07
-1.92129e-06
1.39042e-07
-1.89547e-06
-5.65433e-09
2.07783e-07
-2.51286e-06
-6.73262e-09
2.06916e-07
-2.52916e-06
-8.62517e-09
2.02368e-07
-2.55067e-06
-1.02414e-08
1.96765e-07
-2.52667e-06
-1.18535e-08
1.94871e-07
-2.5318e-06
-4.44626e-09
1.8666e-07
-2.60264e-06
9.87791e-09
1.8235e-07
-2.62839e-06
1.14037e-08
1.96549e-07
-2.58675e-06
4.03263e-09
2.02196e-07
-2.55539e-06
2.20418e-09
1.97801e-07
-2.55612e-06
2.24229e-09
2.01645e-07
-2.53672e-06
2.15944e-07
-2.50275e-06
-8.0936e-09
2.96602e-07
-3.14774e-06
-8.95293e-09
2.95161e-07
-3.16816e-06
-1.14057e-08
2.88517e-07
-3.19396e-06
-1.34226e-08
2.81674e-07
-3.16411e-06
-1.51023e-08
2.78776e-07
-3.17001e-06
-6.20337e-09
2.65543e-07
-3.25701e-06
1.09992e-08
2.58713e-07
-3.2899e-06
1.3153e-08
2.79054e-07
-3.2385e-06
4.48764e-09
2.88182e-07
-3.19894e-06
2.21774e-09
2.82739e-07
-3.20032e-06
2.18157e-09
2.88559e-07
-3.1773e-06
3.08756e-07
-3.13483e-06
-1.11253e-08
3.99763e-07
-3.80529e-06
-1.1618e-08
3.97392e-07
-3.82966e-06
-1.46999e-08
3.88204e-07
-3.85915e-06
-1.69926e-08
3.80525e-07
-3.82354e-06
-1.84607e-08
3.76387e-07
-3.83009e-06
-8.23159e-09
3.56555e-07
-3.93301e-06
1.14803e-08
3.46385e-07
-3.97353e-06
1.42937e-08
3.73925e-07
-3.91228e-06
4.58723e-09
3.87584e-07
-3.86414e-06
1.97197e-09
3.81313e-07
-3.86647e-06
1.90078e-09
3.896e-07
-3.84026e-06
4.16766e-07
-3.78898e-06
-1.47987e-08
5.16489e-07
-4.48303e-06
-1.48197e-08
5.12704e-07
-4.51094e-06
-1.85906e-08
5.00461e-07
-4.54332e-06
-2.09673e-08
4.92547e-07
-4.50228e-06
-2.18761e-08
4.86953e-07
-4.5094e-06
-1.05127e-08
4.58759e-07
-4.6277e-06
1.12366e-08
4.44292e-07
-4.67621e-06
1.47153e-08
4.80081e-07
-4.60514e-06
4.27282e-09
4.99441e-07
-4.54818e-06
1.44422e-09
4.92646e-07
-4.55176e-06
1.39209e-09
5.03901e-07
-4.52283e-06
5.39176e-07
-4.46252e-06
-1.91401e-08
6.45966e-07
-5.17862e-06
-1.86412e-08
6.40182e-07
-5.20943e-06
-2.31451e-08
6.24284e-07
-5.24375e-06
-2.53485e-08
6.16914e-07
-5.19788e-06
-2.52937e-08
6.09694e-07
-5.20558e-06
-1.30194e-08
5.7119e-07
-5.33837e-06
1.02052e-08
5.51327e-07
-5.39503e-06
1.43282e-08
5.96436e-07
-5.3143e-06
3.49875e-09
6.22797e-07
-5.24847e-06
6.18564e-10
6.15839e-07
-5.25362e-06
6.47487e-10
6.30557e-07
-5.22242e-06
6.75148e-07
-5.15295e-06
-2.41491e-08
7.87382e-07
-5.89003e-06
-2.31518e-08
7.78955e-07
-5.92292e-06
-2.84098e-08
7.58697e-07
-5.95807e-06
-3.01216e-08
7.52777e-07
-5.90825e-06
-2.86548e-08
7.43828e-07
-5.91665e-06
-1.57145e-08
6.92904e-07
-6.06273e-06
8.34625e-09
6.66408e-07
-6.12744e-06
1.30634e-08
7.21977e-07
-6.03739e-06
2.22945e-09
7.56762e-07
-5.96288e-06
-5.15754e-10
7.50029e-07
-5.96987e-06
-3.40827e-10
7.68681e-07
-5.93679e-06
8.23845e-07
-5.85814e-06
-2.97981e-08
9.39955e-07
-6.61561e-06
-2.84017e-08
9.2824e-07
-6.64964e-06
-3.44069e-08
9.02798e-07
-6.68447e-06
-3.52523e-08
8.99289e-07
-6.63176e-06
-3.18962e-08
8.88591e-07
-6.64114e-06
-1.85508e-08
8.23014e-07
-6.79901e-06
5.6437e-09
7.88553e-07
-6.87138e-06
1.0871e-08
8.55821e-07
-6.77257e-06
4.36248e-10
9.00559e-07
-6.6898e-06
-1.97399e-09
8.94444e-07
-6.69885e-06
-1.55781e-09
9.17425e-07
-6.66418e-06
9.84499e-07
-6.57642e-06
-3.60307e-08
1.10296e-06
-7.35409e-06
-3.44193e-08
1.08736e-06
-7.38831e-06
-4.11302e-08
1.0558e-06
-7.42166e-06
-4.06852e-08
1.05562e-06
-7.36726e-06
-3.49484e-08
1.04323e-06
-7.37804e-06
-2.14703e-08
9.60717e-07
-7.54596e-06
2.10515e-09
9.16928e-07
-7.62538e-06
7.71942e-09
9.97252e-07
-7.51858e-06
-1.90565e-09
1.05354e-06
-7.42819e-06
-3.76637e-09
1.04842e-06
-7.43944e-06
-3.04526e-09
1.07607e-06
-7.40337e-06
1.15638e-06
-7.30659e-06
-4.27628e-08
1.27572e-06
-8.10466e-06
-4.12085e-08
1.25574e-06
-8.1382e-06
-4.85439e-08
1.21701e-06
-8.16894e-06
-4.63416e-08
1.22096e-06
-8.11413e-06
-3.77351e-08
1.20699e-06
-8.12682e-06
-2.44049e-08
1.1053e-06
-8.30289e-06
-2.24006e-09
1.05088e-06
-8.38851e-06
3.59304e-09
1.14572e-06
-8.27473e-06
-4.82079e-09
1.21518e-06
-8.1776e-06
-5.91098e-09
1.21137e-06
-8.19106e-06
-4.81528e-09
1.24398e-06
-8.15367e-06
1.33884e-06
-8.048e-06
-4.98809e-08
1.45761e-06
-8.86674e-06
-4.87437e-08
1.43284e-06
-8.89879e-06
-5.65774e-08
1.38587e-06
-8.926e-06
-5.21174e-08
1.39451e-06
-8.87198e-06
-4.01721e-08
1.37907e-06
-8.88717e-06
-2.72753e-08
1.25616e-06
-9.06938e-06
-7.33214e-09
1.18997e-06
-9.16023e-06
-1.5003e-09
1.30081e-06
-9.04069e-06
-8.33301e-09
1.38501e-06
-8.93784e-06
-8.43329e-09
1.38281e-06
-8.95347e-06
-6.89629e-09
1.42059e-06
-8.91471e-06
1.5313e-06
-8.80028e-06
-5.72407e-08
1.64805e-06
-9.63973e-06
-5.69639e-08
1.61821e-06
-9.66964e-06
-6.51202e-08
1.56186e-06
-9.69261e-06
-5.788e-08
1.57547e-06
-9.64053e-06
-4.21673e-08
1.55864e-06
-9.65876e-06
-2.99919e-08
1.41276e-06
-9.8451e-06
-1.30953e-08
1.33391e-06
-9.94012e-06
-7.56389e-09
1.46222e-06
-9.81618e-06
-1.24672e-08
1.5626e-06
-9.70881e-06
-1.13657e-08
1.56226e-06
-9.72648e-06
-9.32725e-09
1.60537e-06
-9.6862e-06
1.73322e-06
-9.56318e-06
-6.467e-08
1.84649e-06
-1.04231e-05
-6.57707e-08
1.81139e-06
-1.04503e-05
-7.40206e-08
1.74453e-06
-1.04686e-05
-6.34706e-08
1.76305e-06
-1.04195e-05
-4.36241e-08
1.74482e-06
-1.04412e-05
-3.24569e-08
1.57466e-06
-1.06297e-05
-1.94217e-08
1.4826e-06
-1.07278e-05
-1.45409e-08
1.62969e-06
-1.06009e-05
-1.72486e-08
1.74749e-06
-1.04904e-05
-1.4749e-08
1.74922e-06
-1.05099e-05
-1.21584e-08
1.7978e-06
-1.04679e-05
1.94408e-06
-1.03365e-05
-7.19722e-08
2.05241e-06
-1.1216e-05
-7.50257e-08
2.01195e-06
-1.12401e-05
-8.3085e-08
1.93335e-06
-1.12538e-05
-6.87063e-08
1.95636e-06
-1.12086e-05
-4.44454e-08
1.93664e-06
-1.12341e-05
-3.45685e-08
1.74141e-06
-1.14229e-05
-2.61797e-08
1.63595e-06
-1.15229e-05
-2.23769e-08
1.8029e-06
-1.13945e-05
-2.27023e-08
1.93912e-06
-1.12822e-05
-1.86323e-08
1.94312e-06
-1.13033e-05
-1.54516e-08
1.9973e-06
-1.12593e-05
2.16332e-06
-1.11199e-05
-7.89328e-08
2.26529e-06
-1.20178e-05
-8.45504e-08
2.2194e-06
-1.20384e-05
-9.20799e-08
2.12769e-06
-1.20478e-05
-7.33857e-08
2.15442e-06
-1.20073e-05
-4.45392e-08
2.13304e-06
-1.20367e-05
-3.62262e-08
1.91252e-06
-1.22238e-05
-3.32159e-08
1.79388e-06
-1.23246e-05
-3.09937e-08
1.98147e-06
-1.21962e-05
-2.88517e-08
2.13678e-06
-1.20836e-05
-2.30725e-08
2.14324e-06
-1.21062e-05
-1.92799e-08
2.20318e-06
-1.20599e-05
2.3903e-06
-1.19131e-05
-8.53283e-08
2.48458e-06
-1.28272e-05
-9.41306e-08
2.4332e-06
-1.28441e-05
-1.00739e-07
2.32673e-06
-1.28497e-05
-7.72976e-08
2.35608e-06
-1.28147e-05
-4.38262e-08
2.33285e-06
-1.28479e-05
-3.73382e-08
2.0874e-06
-1.30315e-05
-4.03606e-08
1.9562e-06
-1.3132e-05
-4.0293e-08
2.1649e-06
-1.30049e-05
-3.57169e-08
2.3396e-06
-1.28936e-05
-2.81318e-08
2.34868e-06
-1.29175e-05
-2.37257e-08
2.4146e-06
-1.28688e-05
2.62422e-06
-1.2715e-05
-9.09391e-08
2.70964e-06
-1.36429e-05
-1.03524e-07
2.65272e-06
-1.36559e-05
-1.08772e-07
2.52945e-06
-1.36583e-05
-8.02333e-08
2.56e-06
-1.36295e-05
-4.22481e-08
2.53476e-06
-1.36663e-05
-3.78309e-08
2.26534e-06
-1.38447e-05
-4.74382e-08
2.12259e-06
-1.39436e-05
-5.01605e-08
2.35255e-06
-1.38192e-05
-4.3313e-08
2.54652e-06
-1.37109e-05
-3.38759e-08
2.55835e-06
-1.37359e-05
-2.88787e-08
2.63053e-06
-1.36846e-05
2.8641e-06
-1.35248e-05
-9.55635e-08
2.93974e-06
-1.44632e-05
-1.12474e-07
2.87719e-06
-1.44721e-05
-1.15887e-07
2.73455e-06
-1.44723e-05
-8.20006e-08
2.76458e-06
-1.44501e-05
-3.97764e-08
2.73732e-06
-1.44902e-05
-3.76583e-08
2.4455e-06
-1.46616e-05
-5.42786e-08
2.2926e-06
-1.47577e-05
-6.04713e-08
2.54364e-06
-1.46373e-05
-5.16477e-08
2.75629e-06
-1.45336e-05
-4.03698e-08
2.7709e-06
-1.45597e-05
-3.48317e-08
2.84973e-06
-1.45057e-05
3.10875e-06
-1.4341e-05
-9.90343e-08
3.17401e-06
-1.5286e-05
-1.20726e-07
3.10569e-06
-1.52909e-05
-1.21804e-07
2.94051e-06
-1.52896e-05
-8.24411e-08
2.96803e-06
-1.52747e-05
-3.642e-08
2.93896e-06
-1.53174e-05
-3.68114e-08
2.62694e-06
-1.54801e-05
-6.07321e-08
2.46561e-06
-1.55722e-05
-7.10972e-08
2.73724e-06
-1.5457e-05
-6.07189e-08
2.96749e-06
-1.53596e-05
-4.76733e-08
2.98482e-06
-1.53868e-05
-4.16762e-08
3.07077e-06
-1.533e-05
3.35676e-06
-1.51616e-05
-1.01234e-07
3.41143e-06
-1.61091e-05
-1.28049e-07
3.33711e-06
-1.61099e-05
-1.26284e-07
3.14557e-06
-1.61081e-05
-8.1446e-08
3.16836e-06
-1.61007e-05
-3.22309e-08
3.13799e-06
-1.61456e-05
-3.53257e-08
2.80864e-06
-1.62981e-05
-6.66833e-08
2.64092e-06
-1.63851e-05
-8.19146e-08
2.9323e-06
-1.6276e-05
-7.05127e-08
3.17852e-06
-1.61866e-05
-5.58364e-08
3.19836e-06
-1.62148e-05
-4.9497e-08
3.29202e-06
-1.61554e-05
3.60654e-06
-1.59847e-05
-1.02108e-07
3.6508e-06
-1.69301e-05
-1.34253e-07
3.57019e-06
-1.6927e-05
-1.29147e-07
3.34781e-06
-1.69255e-05
-7.8971e-08
3.36339e-06
-1.69256e-05
-2.73074e-08
3.33265e-06
-1.6972e-05
-3.3285e-08
2.98953e-06
-1.71131e-05
-7.20634e-08
2.81772e-06
-1.71939e-05
-9.28119e-08
3.12767e-06
-1.7092e-05
-8.10004e-08
3.38764e-06
-1.70119e-05
-6.48942e-08
3.40961e-06
-1.70411e-05
-5.8366e-08
3.51166e-06
-1.69793e-05
3.85629e-06
-1.68078e-05
-1.01676e-07
3.89078e-06
-1.77464e-05
-1.39213e-07
3.80353e-06
-1.77396e-05
-1.30299e-07
3.54514e-06
-1.77392e-05
-7.50472e-08
3.55085e-06
-1.77467e-05
-2.17937e-08
3.52115e-06
-1.7794e-05
-3.08221e-08
3.16852e-06
-1.79226e-05
-7.6859e-08
2.99511e-06
-1.79963e-05
-1.03695e-07
3.3221e-06
-1.79022e-05
-9.2137e-08
3.59298e-06
-1.78327e-05
-7.48626e-08
3.61651e-06
-1.78629e-05
-6.83373e-08
3.72775e-06
-1.77991e-05
4.10407e-06
-1.76285e-05
-1.00033e-07
4.12991e-06
-1.85554e-05
-1.42882e-07
4.03559e-06
-1.85453e-05
-1.29738e-07
3.73541e-06
-1.85465e-05
-6.97863e-08
3.72844e-06
-1.85612e-05
-1.58753e-08
3.70173e-06
-1.86087e-05
-2.81145e-08
3.34457e-06
-1.87242e-05
-8.11164e-08
3.17217e-06
-1.87901e-05
-1.14494e-07
3.51425e-06
-1.87041e-05
-1.03859e-07
3.79259e-06
-1.86462e-05
-8.57348e-08
3.81693e-06
-1.86776e-05
-7.94414e-08
3.93828e-06
-1.8612e-05
4.34782e-06
-1.84441e-05
-9.73481e-08
4.36666e-06
-1.93548e-05
-1.45298e-07
4.26477e-06
-1.93416e-05
-1.2757e-07
3.91645e-06
-1.93451e-05
-6.33797e-08
3.89387e-06
-1.93662e-05
-9.77114e-09
3.87268e-06
-1.94133e-05
-2.5376e-08
3.51665e-06
-1.95156e-05
-8.49403e-08
3.34792e-06
-1.95732e-05
-1.2516e-07
3.70277e-06
-1.94955e-05
-1.16086e-07
3.98448e-06
-1.94498e-05
-9.74797e-08
4.00869e-06
-1.94822e-05
-9.16822e-08
4.14118e-06
-1.94154e-05
4.58541e-06
-1.9252e-05
-9.38541e-08
4.59945e-06
-2.01421e-05
-1.46589e-07
4.48943e-06
-2.01264e-05
-1.24005e-07
4.08611e-06
-2.01323e-05
-5.60909e-08
4.04497e-06
-2.01591e-05
-3.72342e-09
4.03246e-06
-2.02053e-05
-2.28452e-08
3.68381e-06
-2.02945e-05
-8.84864e-08
3.52137e-06
-2.03435e-05
-1.3567e-07
3.88626e-06
-2.0274e-05
-1.28717e-07
4.16666e-06
-2.02408e-05
-1.10041e-07
4.18965e-06
-2.02743e-05
-1.05034e-07
4.33443e-06
-2.02069e-05
4.81468e-06
-2.00497e-05
-8.98341e-08
4.82667e-06
-2.09154e-05
-1.46965e-07
4.70796e-06
-2.08975e-05
-1.19344e-07
4.24236e-06
-2.09059e-05
-4.82421e-08
4.17974e-06
-2.09374e-05
2.00458e-09
4.1797e-06
-2.09823e-05
-2.07706e-08
3.84519e-06
-2.10591e-05
-9.19498e-08
3.69153e-06
-2.10994e-05
-1.46018e-07
4.06336e-06
-2.10376e-05
-1.41639e-07
4.3372e-06
-2.10168e-05
-1.2334e-07
4.35779e-06
-2.10514e-05
-1.1944e-07
4.5161e-06
-2.09841e-05
5.03352e-06
-2.08349e-05
-8.56007e-08
5.04678e-06
-2.16729e-05
-1.46704e-07
4.91879e-06
-2.16532e-05
-1.13965e-07
4.38336e-06
-2.16639e-05
-4.01953e-08
4.29642e-06
-2.16991e-05
7.19475e-09
4.31322e-06
-2.17423e-05
-1.93957e-08
4.00004e-06
-2.18076e-05
-9.55489e-08
3.85742e-06
-2.18393e-05
-1.56214e-07
4.23271e-06
-2.17847e-05
-1.54725e-07
4.49431e-06
-2.17758e-05
-1.37275e-07
4.51123e-06
-2.18115e-05
-1.34814e-07
4.68442e-06
-2.17451e-05
5.23986e-06
-2.16053e-05
-8.14737e-08
5.25832e-06
-2.24132e-05
-1.4613e-07
5.12049e-06
-2.23921e-05
-1.08295e-07
4.50751e-06
-2.24046e-05
-3.23305e-08
4.39356e-06
-2.24422e-05
1.1617e-08
4.43211e-06
-2.24838e-05
-1.8943e-08
4.14772e-06
-2.25387e-05
-9.95078e-08
4.01812e-06
-2.25622e-05
-1.66276e-07
4.39304e-06
-2.25141e-05
-1.6784e-07
4.63633e-06
-2.25163e-05
-1.51729e-07
4.64837e-06
-2.25529e-05
-1.51041e-07
4.8378e-06
-2.24883e-05
5.4318e-06
-2.23592e-05
-7.77577e-08
5.45995e-06
-2.31352e-05
-1.45588e-07
5.3118e-06
-2.31131e-05
-1.02784e-07
4.61352e-06
-2.31266e-05
-2.50233e-08
4.47008e-06
-2.31657e-05
1.50536e-08
4.53574e-06
-2.32055e-05
-1.96004e-08
4.28771e-06
-2.32515e-05
-1.04038e-07
4.17278e-06
-2.32673e-05
-1.76223e-07
4.54315e-06
-2.32248e-05
-1.8085e-07
4.76186e-06
-2.32369e-05
-1.66573e-07
4.76786e-06
-2.32745e-05
-1.67976e-07
4.97495e-06
-2.32125e-05
5.60759e-06
-2.30952e-05
-7.47198e-08
5.65053e-06
-2.38383e-05
-1.45415e-07
5.49167e-06
-2.38155e-05
-9.78676e-08
4.70049e-06
-2.38293e-05
-1.86214e-08
4.52527e-06
-2.38686e-05
1.73527e-08
4.62377e-06
-2.3907e-05
-2.15105e-08
4.41963e-06
-2.39455e-05
-1.09321e-07
4.32062e-06
-2.39542e-05
-1.86072e-07
4.68196e-06
-2.39164e-05
-1.93622e-07
4.86973e-06
-2.39371e-05
-1.81669e-07
4.86875e-06
-2.39755e-05
-1.85453e-07
5.09484e-06
-2.3917e-05
5.76573e-06
-2.38121e-05
-7.25713e-08
5.8291e-06
-2.45224e-05
-1.4591e-07
5.65931e-06
-2.4499e-05
-9.39407e-08
4.76789e-06
-2.45122e-05
-1.34262e-08
4.55883e-06
-2.45508e-05
1.8392e-08
4.69612e-06
-2.45882e-05
-2.47623e-08
4.54323e-06
-2.46206e-05
-1.15495e-07
4.46098e-06
-2.46228e-05
-1.95831e-07
4.80849e-06
-2.45889e-05
-2.06037e-07
4.95906e-06
-2.46167e-05
-1.96875e-07
4.95041e-06
-2.46558e-05
-2.0328e-07
5.19678e-06
-2.46016e-05
5.90494e-06
-2.45096e-05
-7.14549e-08
5.99497e-06
-2.51877e-05
-1.47313e-07
5.8142e-06
-2.51639e-05
-9.13304e-08
4.81562e-06
-2.51754e-05
-9.67729e-09
4.5709e-06
-2.52125e-05
1.81323e-08
4.75295e-06
-2.52494e-05
-2.93877e-08
4.6584e-06
-2.52772e-05
-1.22645e-07
4.59332e-06
-2.52737e-05
-2.05495e-07
4.9219e-06
-2.52427e-05
-2.17989e-07
5.02924e-06
-2.52759e-05
-2.12046e-07
5.01263e-06
-2.53159e-05
-2.21246e-07
5.2804e-06
-2.52667e-05
6.02422e-06
-2.51876e-05
-7.14359e-08
6.14768e-06
-2.5835e-05
-1.4978e-07
5.95613e-06
-2.58109e-05
-9.02739e-08
4.84402e-06
-2.58198e-05
-7.54272e-09
4.56198e-06
-2.58546e-05
1.65308e-08
4.79468e-06
-2.58915e-05
-3.53607e-08
4.76514e-06
-2.59161e-05
-1.30794e-07
4.71722e-06
-2.59075e-05
-2.15048e-07
5.02152e-06
-2.58786e-05
-2.29388e-07
5.08001e-06
-2.59156e-05
-2.2704e-07
5.05553e-06
-2.59564e-05
-2.39122e-07
5.34561e-06
-2.5913e-05
6.12283e-06
-2.58464e-05
-7.25018e-08
6.28702e-06
-2.64654e-05
-1.5337e-07
6.08516e-06
-2.64409e-05
-9.09055e-08
4.85381e-06
-2.64464e-05
-7.11332e-09
4.53297e-06
-2.64784e-05
1.36226e-08
4.8219e-06
-2.65159e-05
-4.25992e-08
4.86355e-06
-2.65385e-05
-1.39904e-07
4.8324e-06
-2.65255e-05
-2.24459e-07
5.10688e-06
-2.64978e-05
-2.40168e-07
5.11138e-06
-2.65372e-05
-2.41711e-07
5.07956e-06
-2.65789e-05
-2.5666e-07
5.39264e-06
-2.65418e-05
6.20029e-06
-2.64871e-05
-7.45659e-08
6.41319e-06
-2.70804e-05
-1.58041e-07
6.20174e-06
-2.70555e-05
-9.32487e-08
4.84614e-06
-2.70568e-05
-8.40148e-09
4.48519e-06
-2.70857e-05
9.46929e-09
4.83549e-06
-2.71243e-05
-5.09676e-08
4.95394e-06
-2.7146e-05
-1.49873e-07
4.9389e-06
-2.71292e-05
-2.33682e-07
5.17789e-06
-2.71021e-05
-2.50279e-07
5.12388e-06
-2.71423e-05
-2.55914e-07
5.08563e-06
-2.71851e-05
-2.73602e-07
5.42198e-06
-2.71548e-05
6.25649e-06
-2.7111e-05
-7.74769e-08
6.52667e-06
-2.76819e-05
-1.6365e-07
6.30665e-06
-2.76566e-05
-9.72153e-08
4.82269e-06
-2.76532e-05
-1.13408e-08
4.42043e-06
-2.76787e-05
4.2024e-09
4.83665e-06
-2.7719e-05
-6.02873e-08
5.0369e-06
-2.77405e-05
-1.60554e-07
5.03692e-06
-2.77206e-05
-2.42669e-07
5.23464e-06
-2.76933e-05
-2.59686e-07
5.1184e-06
-2.77332e-05
-2.69501e-07
5.07509e-06
-2.77773e-05
-2.89683e-07
5.43456e-06
-2.77539e-05
6.29176e-06
-2.77199e-05
-8.10416e-08
6.628e-06
-2.82722e-05
-1.69981e-07
6.40073e-06
-2.82465e-05
-1.02619e-07
4.78533e-06
-2.8238e-05
-1.57932e-08
4.34069e-06
-2.82599e-05
-2.01478e-09
4.82661e-06
-2.83022e-05
-7.03696e-08
5.11305e-06
-2.83243e-05
-1.71773e-07
5.12664e-06
-2.83017e-05
-2.51374e-07
5.27727e-06
-2.82736e-05
-2.68391e-07
5.09593e-06
-2.83123e-05
-2.82341e-07
5.04933e-06
-2.83579e-05
-3.04648e-07
5.4315e-06
-2.83416e-05
6.30676e-06
-2.8316e-05
-8.50398e-08
6.71774e-06
-2.88535e-05
-1.76755e-07
6.4849e-06
-2.88274e-05
-1.09204e-07
4.73596e-06
-2.88139e-05
-2.15763e-08
4.24794e-06
-2.88322e-05
-9.08926e-09
4.80657e-06
-2.88766e-05
-8.10095e-08
5.18283e-06
-2.88997e-05
-1.83321e-07
5.20827e-06
-2.88748e-05
-2.59745e-07
5.30601e-06
-2.88454e-05
-2.76406e-07
5.05749e-06
-2.88822e-05
-2.94329e-07
5.00972e-06
-2.89297e-05
-3.18284e-07
5.41386e-06
-2.89203e-05
6.30215e-06
-2.89016e-05
-8.92324e-08
6.79649e-06
-2.94282e-05
-1.83641e-07
6.56013e-06
-2.94019e-05
-1.16653e-07
4.67661e-06
-2.93835e-05
-2.84744e-08
4.14421e-06
-2.93983e-05
-1.68602e-08
4.77767e-06
-2.94449e-05
-9.19813e-08
5.24667e-06
-2.94691e-05
-1.94968e-07
5.28212e-06
-2.94421e-05
-2.67724e-07
5.3213e-06
-2.94109e-05
-2.83752e-07
5.00431e-06
-2.94455e-05
-3.05374e-07
4.9577e-06
-2.94952e-05
-3.30411e-07
5.38268e-06
-2.94926e-05
6.27862e-06
-2.94793e-05
-9.33904e-08
6.86491e-06
-2.99987e-05
-1.90301e-07
6.6274e-06
-2.99723e-05
-1.24617e-07
4.6093e-06
-2.99496e-05
-3.6246e-08
4.03159e-06
-2.99608e-05
-2.51627e-08
4.74105e-06
-3.00094e-05
-1.03071e-07
5.30501e-06
-3.0035e-05
-2.06494e-07
5.34855e-06
-3.00059e-05
-2.75267e-07
5.32373e-06
-2.99727e-05
-2.90462e-07
4.93768e-06
-3.00047e-05
-3.154e-07
4.89465e-06
-3.00571e-05
-3.40893e-07
5.33899e-06
-3.00609e-05
6.23694e-06
-3.00515e-05
-9.73148e-08
6.92355e-06
-3.05673e-05
-1.96419e-07
6.68761e-06
-3.05411e-05
-1.32754e-07
4.53598e-06
-3.05147e-05
-4.4649e-08
3.91204e-06
-3.05224e-05
-3.38457e-08
4.69775e-06
-3.05728e-05
-1.14086e-07
5.3582e-06
-3.05995e-05
-2.17701e-07
5.4079e-06
-3.05685e-05
-2.82339e-07
5.31397e-06
-3.05329e-05
-2.96573e-07
4.85892e-06
-3.05624e-05
-3.24367e-07
4.82186e-06
-3.06178e-05
-3.49655e-07
5.28379e-06
-3.06277e-05
6.17795e-06
-3.06207e-05
-1.00848e-07
6.97287e-06
-3.11362e-05
-2.01728e-07
6.7415e-06
-3.11105e-05
-1.40749e-07
4.45842e-06
-3.10811e-05
-5.34569e-08
3.78741e-06
-3.10855e-05
-4.27734e-08
4.64871e-06
-3.11372e-05
-1.24858e-07
5.40652e-06
-3.11649e-05
-2.28416e-07
5.46054e-06
-3.1132e-05
-2.88916e-07
5.29277e-06
-3.1094e-05
-3.02128e-07
4.76926e-06
-3.11209e-05
-3.32263e-07
4.74047e-06
-3.11795e-05
-3.56687e-07
5.21795e-06
-3.11951e-05
6.10246e-06
-3.11894e-05
-1.03879e-07
7.01312e-06
-3.17075e-05
-2.06026e-07
6.78966e-06
-3.16826e-05
-1.48343e-07
4.3782e-06
-3.1651e-05
-6.24724e-08
3.65937e-06
-3.16519e-05
-5.18304e-08
4.59474e-06
-3.17046e-05
-1.35256e-07
5.45019e-06
-3.17331e-05
-2.38506e-07
5.50675e-06
-3.16984e-05
-2.94979e-07
5.26088e-06
-3.16577e-05
-3.07169e-07
4.66986e-06
-3.16822e-05
-3.39107e-07
4.65141e-06
-3.17443e-05
-3.62032e-07
5.14224e-06
-3.17652e-05
6.01122e-06
-3.17596e-05
-1.06348e-07
7.04439e-06
-3.22829e-05
-2.09182e-07
6.83242e-06
-3.22591e-05
-1.55337e-07
4.29663e-06
-3.2226e-05
-7.15356e-08
3.52932e-06
-3.22236e-05
-6.09233e-08
4.53648e-06
-3.22767e-05
-1.45181e-07
5.4893e-06
-3.23057e-05
-2.47869e-07
5.54675e-06
-3.22691e-05
-3.00518e-07
5.21903e-06
-3.22258e-05
-3.11732e-07
4.56169e-06
-3.22481e-05
-3.44935e-07
4.55538e-06
-3.23138e-05
-3.6577e-07
5.05726e-06
-3.23395e-05
5.90492e-06
-3.23332e-05
-1.08236e-07
7.06657e-06
-3.28639e-05
-2.11128e-07
6.86995e-06
-3.28417e-05
-1.61598e-07
4.21479e-06
-3.28076e-05
-8.05247e-08
3.39842e-06
-3.28017e-05
-6.9979e-08
4.4744e-06
-3.28548e-05
-1.54562e-07
5.52384e-06
-3.28842e-05
-2.56436e-07
5.58065e-06
-3.28457e-05
-3.05523e-07
5.16789e-06
-3.27998e-05
-3.15844e-07
4.44559e-06
-3.282e-05
-3.49789e-07
4.45288e-06
-3.28894e-05
-3.68001e-07
4.96346e-06
-3.29196e-05
5.78416e-06
-3.29119e-05
-1.09558e-07
7.07936e-06
-3.34516e-05
-2.11855e-07
6.90221e-06
-3.34314e-05
-1.67044e-07
4.13346e-06
-3.33969e-05
-8.93519e-08
3.26758e-06
-3.33874e-05
-7.89401e-08
4.40885e-06
-3.344e-05
-1.63351e-07
5.55367e-06
-3.34696e-05
-2.6416e-07
5.60847e-06
-3.34293e-05
-3.09982e-07
5.10805e-06
-3.33809e-05
-3.19518e-07
4.32224e-06
-3.3399e-05
-3.53706e-07
4.34422e-06
-3.3472e-05
-3.68814e-07
4.86115e-06
-3.35064e-05
5.64947e-06
-3.34969e-05
-1.10353e-07
7.08225e-06
-3.40471e-05
-2.1139e-07
6.92896e-06
-3.40293e-05
-1.71637e-07
4.05322e-06
-3.39948e-05
-9.79538e-08
3.1375e-06
-3.39815e-05
-8.77587e-08
4.34003e-06
-3.40333e-05
-1.71508e-07
5.57856e-06
-3.4063e-05
-2.71e-07
5.63013e-06
-3.40208e-05
-3.13877e-07
5.04004e-06
-3.397e-05
-3.2275e-07
4.19227e-06
-3.3986e-05
-3.56701e-07
4.22957e-06
-3.40627e-05
-3.68267e-07
4.7505e-06
-3.4101e-05
5.50134e-06
-3.40891e-05
-1.10673e-07
7.07459e-06
-3.4651e-05
-2.09781e-07
6.94983e-06
-3.46361e-05
-1.75363e-07
3.97447e-06
-3.46019e-05
-1.06281e-07
3.00871e-06
-3.45846e-05
-9.63891e-08
4.26808e-06
-3.46352e-05
-1.78994e-07
5.59818e-06
-3.46649e-05
-2.76917e-07
5.64547e-06
-3.4621e-05
-3.1717e-07
4.96434e-06
-3.45679e-05
-3.25515e-07
4.05586e-06
-3.45815e-05
-3.58762e-07
4.10883e-06
-3.46617e-05
-3.66372e-07
4.63155e-06
-3.47039e-05
5.34021e-06
-3.46895e-05
-1.10577e-07
7.05557e-06
-3.52641e-05
-2.07086e-07
6.96432e-06
-3.52526e-05
-1.78219e-07
3.89742e-06
-3.52189e-05
-1.14288e-07
2.88163e-06
-3.51973e-05
-1.04781e-07
4.19306e-06
-3.52464e-05
-1.85765e-07
5.61214e-06
-3.52761e-05
-2.81862e-07
5.65432e-06
-3.52305e-05
-3.19818e-07
4.88141e-06
-3.51753e-05
-3.27782e-07
3.91276e-06
-3.51854e-05
-3.59852e-07
3.9814e-06
-3.52692e-05
-3.63094e-07
4.50427e-06
-3.53157e-05
5.16624e-06
-3.52982e-05
-1.10128e-07
7.0244e-06
-3.58868e-05
-2.03359e-07
6.97183e-06
-3.5879e-05
-1.80207e-07
3.82217e-06
-3.58462e-05
-1.21921e-07
2.7566e-06
-3.582e-05
-1.1287e-07
4.115e-06
-3.58672e-05
-1.91759e-07
5.62002e-06
-3.5897e-05
-2.85773e-07
5.65638e-06
-3.58498e-05
-3.21782e-07
4.79142e-06
-3.57924e-05
-3.29537e-07
3.76279e-06
-3.57984e-05
-3.59914e-07
3.84628e-06
-3.58854e-05
-3.5843e-07
4.36829e-06
-3.59365e-05
4.97914e-06
-3.59153e-05
-1.09392e-07
6.97979e-06
-3.65194e-05
-1.9865e-07
6.97164e-06
-3.65159e-05
-1.81321e-07
3.74873e-06
-3.6484e-05
-1.29116e-07
2.63379e-06
-3.6453e-05
-1.20574e-07
4.03364e-06
-3.64978e-05
-1.9689e-07
5.6213e-06
-3.65278e-05
-2.88554e-07
5.65106e-06
-3.64789e-05
-3.23013e-07
4.69444e-06
-3.64195e-05
-3.30787e-07
3.6063e-06
-3.64212e-05
-3.58913e-07
3.70265e-06
-3.65106e-05
-3.52166e-07
4.22273e-06
-3.65663e-05
4.77888e-06
-3.65409e-05
-1.08443e-07
6.92063e-06
-3.71622e-05
-1.93003e-07
6.96296e-06
-3.71635e-05
-1.8155e-07
3.67701e-06
-3.71328e-05
-1.35796e-07
2.51321e-06
-3.70965e-05
-1.27796e-07
3.94843e-06
-3.71383e-05
-2.01042e-07
5.6152e-06
-3.71689e-05
-2.90071e-07
5.63764e-06
-3.71183e-05
-3.23381e-07
4.59071e-06
-3.70574e-05
-3.31362e-07
3.44399e-06
-3.70545e-05
-3.56713e-07
3.55024e-06
-3.71451e-05
-3.4385e-07
4.06667e-06
-3.72054e-05
4.56584e-06
-3.71754e-05
-1.07357e-07
6.84565e-06
-3.78155e-05
-1.86454e-07
6.94493e-06
-3.78222e-05
-1.80875e-07
3.60682e-06
-3.77927e-05
-1.41884e-07
2.39483e-06
-3.77508e-05
-1.34431e-07
3.85879e-06
-3.77889e-05
-2.04084e-07
5.60075e-06
-3.78202e-05
-2.90167e-07
5.61551e-06
-3.77684e-05
-3.2266e-07
4.48067e-06
-3.77067e-05
-3.30979e-07
3.27671e-06
-3.76989e-05
-3.5288e-07
3.38907e-06
-3.77893e-05
-3.33191e-07
3.89975e-06
-3.78538e-05
4.34118e-06
-3.78194e-05
-1.06241e-07
6.75321e-06
-3.84791e-05
-1.7904e-07
6.91655e-06
-3.84922e-05
-1.79277e-07
3.53794e-06
-3.84642e-05
-1.47309e-07
2.2786e-06
-3.84163e-05
-1.40386e-07
3.76419e-06
-3.84499e-05
-2.0589e-07
5.577e-06
-3.84822e-05
-2.88674e-07
5.58421e-06
-3.84299e-05
-3.20612e-07
4.36487e-06
-3.83682e-05
-3.29486e-07
3.1054e-06
-3.83553e-05
-3.4711e-07
3.21914e-06
-3.84439e-05
-3.20456e-07
3.72238e-06
-3.8512e-05
4.10726e-06
-3.84738e-05
-1.05245e-07
6.64137e-06
-3.91534e-05
-1.70802e-07
6.87672e-06
-3.91737e-05
-1.76745e-07
3.47004e-06
-3.91473e-05
-1.52012e-07
2.16442e-06
-3.90933e-05
-1.45586e-07
3.66414e-06
-3.91219e-05
-2.06352e-07
5.54302e-06
-3.91554e-05
-2.85433e-07
5.54342e-06
-3.91034e-05
-3.17015e-07
4.24395e-06
-3.90425e-05
-3.26721e-07
2.93103e-06
-3.90245e-05
-3.39532e-07
3.04084e-06
-3.91097e-05
-3.06419e-07
3.53573e-06
-3.91805e-05
3.86697e-06
-3.91394e-05
-1.04417e-07
6.50805e-06
-3.98382e-05
-1.61796e-07
6.82432e-06
-3.9867e-05
-1.73277e-07
3.40277e-06
-3.98424e-05
-1.55956e-07
2.05224e-06
-3.97819e-05
-1.49973e-07
3.55825e-06
-3.98052e-05
-2.0538e-07
5.49798e-06
-3.98402e-05
-2.80304e-07
5.49291e-06
-3.97896e-05
-3.11674e-07
4.11855e-06
-3.973e-05
-3.22511e-07
2.75453e-06
-3.9707e-05
-3.30363e-07
2.85488e-06
-3.97872e-05
-2.91833e-07
3.34147e-06
-3.986e-05
3.62348e-06
-3.98169e-05
-1.03817e-07
6.35126e-06
-4.05337e-05
-1.52088e-07
6.75823e-06
-4.05722e-05
-1.68889e-07
3.33569e-06
-4.05497e-05
-1.59079e-07
1.9419e-06
-4.04826e-05
-1.53468e-07
3.44617e-06
-4.05003e-05
-2.02904e-07
5.44112e-06
-4.0537e-05
-2.7317e-07
5.43249e-06
-4.04888e-05
-3.04424e-07
3.98924e-06
-4.04312e-05
-3.16703e-07
2.57674e-06
-4.04033e-05
-3.19833e-07
2.6623e-06
-4.04771e-05
-2.77355e-07
3.14166e-06
-4.05511e-05
3.38008e-06
-4.0507e-05
-1.03691e-07
6.16923e-06
-4.124e-05
-1.41783e-07
6.67717e-06
-4.12897e-05
-1.63613e-07
3.2683e-06
-4.12692e-05
-1.61317e-07
1.83318e-06
-4.11956e-05
-1.56008e-07
3.32759e-06
-4.12074e-05
-1.98873e-07
5.37178e-06
-4.12464e-05
-2.63939e-07
5.36197e-06
-4.12015e-05
-2.95152e-07
3.85654e-06
-4.11464e-05
-3.09186e-07
2.39842e-06
-4.11139e-05
-3.08168e-07
2.46439e-06
-4.11802e-05
-2.63546e-07
2.93866e-06
-4.12545e-05
3.14006e-06
-4.12101e-05
-1.04345e-07
5.9604e-06
-4.19574e-05
-1.3103e-07
6.57973e-06
-4.20195e-05
-1.57504e-07
3.20002e-06
-4.20013e-05
-1.62662e-07
1.72581e-06
-4.19212e-05
-1.57586e-07
3.20222e-06
-4.19269e-05
-1.93248e-07
5.28928e-06
-4.19686e-05
-2.52536e-07
5.28112e-06
-4.1928e-05
-2.83814e-07
3.72091e-06
-4.18757e-05
-2.99892e-07
2.2202e-06
-4.1839e-05
-2.95601e-07
2.26265e-06
-4.18969e-05
-2.50868e-07
2.73495e-06
-4.19708e-05
2.90657e-06
-4.1927e-05
-1.0611e-07
5.72361e-06
-4.2686e-05
-1.20018e-07
6.46432e-06
-4.27618e-05
-1.50648e-07
3.13015e-06
-4.27462e-05
-1.63135e-07
1.61949e-06
-4.26595e-05
-1.58209e-07
3.06979e-06
-4.26593e-05
-1.85995e-07
5.19292e-06
-4.27041e-05
-2.38899e-07
5.18958e-06
-4.26684e-05
-2.70351e-07
3.58271e-06
-4.26195e-05
-2.88757e-07
2.04254e-06
-4.25788e-05
-2.8237e-07
2.0587e-06
-4.26279e-05
-2.39676e-07
2.5331e-06
-4.27007e-05
2.6825e-06
-4.2658e-05
-1.09332e-07
5.45822e-06
-4.34261e-05
-1.08985e-07
6.3293e-06
-4.3517e-05
-1.4316e-07
3.05789e-06
-4.35039e-05
-1.6278e-07
1.51386e-06
-4.3411e-05
-1.57891e-07
2.93008e-06
-4.3405e-05
-1.77094e-07
5.08198e-06
-4.34532e-05
-2.22986e-07
5.08689e-06
-4.34232e-05
-2.54661e-07
3.44229e-06
-4.3378e-05
-2.75746e-07
1.86581e-06
-4.33334e-05
-2.68726e-07
1.85434e-06
-4.33737e-05
-2.30211e-07
2.33553e-06
-4.34447e-05
2.47038e-06
-4.34037e-05
-1.14359e-07
5.1643e-06
-4.41781e-05
-9.82129e-08
6.17294e-06
-4.42852e-05
-1.35192e-07
2.98229e-06
-4.42746e-05
-1.61665e-07
1.40854e-06
-4.41758e-05
-1.56664e-07
2.7829e-06
-4.41644e-05
-1.6655e-07
4.95571e-06
-4.42161e-05
-2.04793e-07
4.97256e-06
-4.41923e-05
-2.36698e-07
3.29995e-06
-4.41517e-05
-2.6094e-07
1.69057e-06
-4.41032e-05
-2.54942e-07
1.65135e-06
-4.41348e-05
-2.22627e-07
2.14445e-06
-4.42034e-05
2.27224e-06
-4.41645e-05
-1.21517e-07
4.84275e-06
-4.49424e-05
-8.80347e-08
5.99345e-06
-4.50665e-05
-1.26932e-07
2.90231e-06
-4.50587e-05
-1.59891e-07
1.30312e-06
-4.49545e-05
-1.54577e-07
2.62811e-06
-4.49379e-05
-1.54409e-07
4.81335e-06
-4.49933e-05
-1.84367e-07
4.84615e-06
-4.49763e-05
-2.16486e-07
3.15597e-06
-4.49407e-05
-2.44513e-07
1.5175e-06
-4.48884e-05
-2.41319e-07
1.45147e-06
-4.49116e-05
-2.17e-07
1.96167e-06
-4.49773e-05
2.08938e-06
-4.49408e-05
-1.31082e-07
4.49535e-06
-4.57198e-05
-7.88285e-08
5.78908e-06
-4.5861e-05
-1.18608e-07
2.81677e-06
-4.58561e-05
-1.57591e-07
1.1972e-06
-4.57472e-05
-1.51706e-07
2.46563e-06
-4.57261e-05
-1.40756e-07