/*--------------------------------*- C++ -*----------------------------------*\
| =========                 |                                                 |
| \\      /  F ield         | OpenFOAM: The Open Source CFD Toolbox           |
|  \\    /   O peration     | Version:  v1912                                 |
|   \\  /    A nd           | Website:  www.openfoam.com                      |
|    \\/     M anipulation  |                                                 |
\*---------------------------------------------------------------------------*/
FoamFile
{
    version     2.0;
    format      ascii;
    class       volSymmTensorField;
    location    "10.8";
    object      UPrime2Mean;
}
// * * * * * * * * * * * * * * * * * * * * * * * * * * * * * * * * * * * * * //

dimensions      [0 2 -2 0 0 0 0];


internalField   nonuniform List<symmTensor> 
34128
(
(1.26214e-10 2.25212e-12 4.6791e-10 1.51865e-10 1.20623e-08 7.38122e-06)
(1.05681e-10 2.11686e-12 6.82235e-10 1.51884e-10 1.20771e-08 7.38947e-06)
(1.05419e-10 1.34781e-12 7.29562e-10 1.51899e-10 1.20905e-08 7.40509e-06)
(1.17617e-10 -7.34358e-13 -4.85979e-11 1.51898e-10 1.20922e-08 7.40579e-06)
(1.45422e-10 -1.60492e-12 -2.83735e-10 1.51893e-10 1.20788e-08 7.39302e-06)
(1.13368e-10 -2.14627e-12 -3.09691e-10 1.51878e-10 1.20645e-08 7.38272e-06)
(1.00786e-10 -1.93317e-12 1.14168e-10 1.51877e-10 1.206e-08 7.37865e-06)
(1.08396e-10 -1.7891e-12 3.74844e-10 1.51878e-10 1.20722e-08 7.39104e-06)
(1.1412e-10 -2.69266e-12 -7.72869e-11 1.51888e-10 1.20916e-08 7.40624e-06)
(1.36421e-10 -4.27917e-12 -6.43554e-10 1.5188e-10 1.20882e-08 7.40425e-06)
(1.40516e-10 -4.52308e-12 -8.01762e-10 1.51857e-10 1.20618e-08 7.3851e-06)
(1.54496e-10 -3.08367e-12 -4.01065e-10 1.51814e-10 1.20576e-08 7.37481e-06)
(1.07032e-09 -7.10221e-12 2.15199e-09 3.36444e-10 -5.03313e-08 2.59466e-05)
(8.99175e-10 -7.25026e-12 3.72877e-09 3.36238e-10 -5.03314e-08 2.60043e-05)
(8.92348e-10 -3.43901e-12 3.6087e-09 3.36086e-10 -5.02919e-08 2.61166e-05)
(9.97635e-10 3.40642e-12 -1.74029e-09 3.36115e-10 -5.0258e-08 2.61207e-05)
(1.23144e-09 6.53639e-12 -3.76226e-09 3.3623e-10 -5.02681e-08 2.60278e-05)
(9.62185e-10 1.01421e-11 -3.64555e-09 3.36304e-10 -5.03178e-08 2.59557e-05)
(8.5435e-10 1.06128e-11 -5.80758e-10 3.36331e-10 -5.03232e-08 2.59279e-05)
(9.19277e-10 1.20459e-11 1.34599e-09 3.36333e-10 -5.0268e-08 2.60163e-05)
(9.66655e-10 1.34393e-11 -1.75709e-09 3.36211e-10 -5.02514e-08 2.61208e-05)
(1.1562e-09 1.9293e-11 -5.60314e-09 3.36282e-10 -5.02763e-08 2.61071e-05)
(1.19116e-09 2.0955e-11 -6.86474e-09 3.36626e-10 -5.02952e-08 2.59753e-05)
(1.30836e-09 1.28184e-11 -4.18444e-09 3.36878e-10 -5.03335e-08 2.59036e-05)
(2.8626e-09 5.0423e-12 3.95331e-09 1.66745e-10 5.23907e-08 4.67625e-05)
(2.41278e-09 5.88098e-12 8.15491e-09 1.66734e-10 5.25936e-08 4.68993e-05)
(2.38493e-09 9.01912e-12 7.86846e-09 1.67412e-10 5.30845e-08 4.71687e-05)
(2.66755e-09 -2.97912e-12 -4.34743e-09 1.67812e-10 5.31971e-08 4.71758e-05)
(3.2883e-09 -4.08167e-12 -8.96853e-09 1.6735e-10 5.28646e-08 4.69506e-05)
(2.57388e-09 1.22598e-12 -7.91036e-09 1.66766e-10 5.24771e-08 4.67833e-05)
(2.28388e-09 4.24143e-12 -4.06284e-10 1.66535e-10 5.23528e-08 4.67202e-05)
(2.45915e-09 1.0991e-11 4.46206e-09 1.67175e-10 5.27671e-08 4.69299e-05)
(2.58248e-09 1.59159e-12 -2.43232e-09 1.67684e-10 5.31525e-08 4.71735e-05)
(3.08869e-09 -6.40548e-12 -1.11704e-08 1.67526e-10 5.3036e-08 4.71439e-05)
(3.18236e-09 -6.11765e-12 -1.41792e-08 1.66934e-10 5.25217e-08 4.68388e-05)
(3.49405e-09 -9.39204e-12 -8.35194e-09 1.66394e-10 5.21535e-08 4.66731e-05)
(5.42019e-09 -1.15287e-11 6.08656e-09 8.68226e-11 -3.42543e-08 6.62317e-05)
(4.5842e-09 -8.343e-12 1.36864e-08 8.55045e-11 -3.3929e-08 6.64653e-05)
(4.51492e-09 8.12866e-12 1.30886e-08 8.62859e-11 -3.28823e-08 6.69269e-05)
(5.04945e-09 4.02436e-12 -7.64118e-09 8.7567e-11 -3.26046e-08 6.69326e-05)
(6.21543e-09 1.01722e-11 -1.52145e-08 8.71311e-11 -3.32821e-08 6.65423e-05)
(4.87373e-09 3.07424e-11 -1.23809e-08 8.60735e-11 -3.40729e-08 6.62657e-05)
(4.32248e-09 3.54485e-11 4.13815e-10 8.57438e-11 -3.43105e-08 6.6164e-05)
(4.65833e-09 5.0289e-11 8.98196e-09 8.73604e-11 -3.34053e-08 6.65169e-05)
(4.88604e-09 3.7237e-11 -2.10183e-09 8.77582e-11 -3.27024e-08 6.69225e-05)
(5.84157e-09 3.85905e-11 -1.66183e-08 8.79133e-11 -3.29421e-08 6.68776e-05)
(6.01865e-09 4.2232e-11 -2.18475e-08 8.88399e-11 -3.38603e-08 6.63722e-05)
(6.60665e-09 1.20669e-11 -1.27629e-08 8.88763e-11 -3.46113e-08 6.60998e-05)
(8.66484e-09 -7.63206e-12 8.59762e-09 5.29401e-11 3.48172e-08 8.29404e-05)
(7.35425e-09 2.87201e-12 1.99355e-08 5.07575e-11 3.55277e-08 8.32801e-05)
(7.2195e-09 3.18297e-11 1.87098e-08 5.48398e-11 3.7737e-08 8.39491e-05)
(8.07115e-09 2.36113e-12 -1.1734e-08 5.8495e-11 3.82417e-08 8.39459e-05)
(9.91862e-09 7.0999e-12 -2.22769e-08 5.5962e-11 3.67543e-08 8.33719e-05)
(7.79166e-09 4.56891e-11 -1.68406e-08 5.2077e-11 3.51742e-08 8.29865e-05)
(6.90797e-09 5.75479e-11 1.35376e-09 5.07716e-11 3.46801e-08 8.28482e-05)
(7.4523e-09 9.03184e-11 1.39315e-08 5.58486e-11 3.65176e-08 8.33484e-05)
(7.80825e-09 5.77775e-11 -1.28032e-09 5.84067e-11 3.80162e-08 8.39189e-05)
(9.32899e-09 4.42883e-11 -2.19862e-08 5.82851e-11 3.75911e-08 8.38625e-05)
(9.61084e-09 4.71142e-11 -2.97388e-08 5.78613e-11 3.56618e-08 8.31543e-05)
(1.0549e-08 8.38259e-13 -1.77487e-08 5.59656e-11 3.41699e-08 8.27771e-05)
(1.25229e-08 -1.26603e-11 1.15276e-08 1.17511e-10 5.46651e-08 9.6387e-05)
(1.06664e-08 1.16741e-11 2.66018e-08 1.13166e-10 5.58473e-08 9.68358e-05)
(1.04411e-08 6.17758e-11 2.43222e-08 1.22854e-10 5.96002e-08 9.77122e-05)
(1.16666e-08 4.94521e-12 -1.66775e-08 1.30689e-10 6.03846e-08 9.76909e-05)
(1.43105e-08 1.0203e-11 -2.99668e-08 1.24721e-10 5.78042e-08 9.6926e-05)
(1.12623e-08 7.93151e-11 -2.11086e-08 1.16235e-10 5.52603e-08 9.64416e-05)
(9.98287e-09 9.89575e-11 2.13127e-09 1.13467e-10 5.44659e-08 9.62724e-05)
(1.07814e-08 1.5663e-10 1.87338e-08 1.24525e-10 5.75027e-08 9.69117e-05)
(1.1286e-08 1.02164e-10 -2.70689e-10 1.30304e-10 5.99665e-08 9.76364e-05)
(1.34715e-08 7.53778e-11 -2.7217e-08 1.30272e-10 5.93423e-08 9.75735e-05)
(1.38762e-08 7.59886e-11 -3.76368e-08 1.29007e-10 5.62217e-08 9.66771e-05)
(1.52315e-08 -4.20664e-12 -2.34484e-08 1.24422e-10 5.38372e-08 9.62073e-05)
(1.69265e-08 -1.63545e-11 1.48019e-08 2.31133e-10 8.87936e-08 0.000106515)
(1.44674e-08 3.07605e-11 3.33693e-08 2.23844e-10 9.06097e-08 0.000107071)
(1.41274e-08 1.08706e-10 2.96046e-08 2.43876e-10 9.63956e-08 0.000108144)
(1.57768e-08 8.30966e-12 -2.24546e-08 2.58452e-10 9.74819e-08 0.000108095)
(1.93119e-08 1.19725e-11 -3.81162e-08 2.46056e-10 9.34111e-08 0.000107141)
(1.52261e-08 1.23712e-10 -2.5048e-08 2.30071e-10 8.97162e-08 0.000106572)
(1.34954e-08 1.51336e-10 2.6506e-09 2.24993e-10 8.85659e-08 0.00010638)
(1.45917e-08 2.42507e-10 2.31085e-08 2.45883e-10 9.30953e-08 0.000107143)
(1.52628e-08 1.60439e-10 7.40363e-10 2.57213e-10 9.67563e-08 0.000108003)
(1.81972e-08 1.12011e-10 -3.22259e-08 2.57615e-10 9.59201e-08 0.000107939)
(1.87401e-08 1.05038e-10 -4.53174e-08 2.54448e-10 9.1333e-08 0.000106879)
(2.05735e-08 -2.13721e-11 -2.99092e-08 2.44747e-10 8.78604e-08 0.000106335)
(2.18162e-08 -1.81064e-11 1.82397e-08 4.07259e-10 1.29768e-07 0.000113491)
(1.87093e-08 6.26354e-11 3.99195e-08 3.9622e-10 1.3238e-07 0.000114147)
(1.8233e-08 1.75583e-10 3.43405e-08 4.33318e-10 1.40668e-07 0.000115399)
(2.03515e-08 1.29385e-11 -2.89384e-08 4.57725e-10 1.42051e-07 0.000115316)
(2.4854e-08 1.23616e-11 -4.65285e-08 4.3453e-10 1.36072e-07 0.00011418)
(1.96315e-08 1.81039e-10 -2.85274e-08 4.07647e-10 1.31083e-07 0.000113543)
(1.74012e-08 2.14783e-10 2.98187e-09 3.99315e-10 1.29547e-07 0.000113336)
(1.88363e-08 3.48065e-10 2.70193e-08 4.34872e-10 1.35828e-07 0.000114205)
(1.96905e-08 2.34261e-10 1.68014e-09 4.54621e-10 1.40884e-07 0.000115179)
(2.34442e-08 1.54942e-10 -3.68778e-08 4.56341e-10 1.3986e-07 0.000115115)
(2.41381e-08 1.31867e-10 -5.25268e-08 4.50169e-10 1.33627e-07 0.000113925)
(2.65053e-08 -5.69293e-11 -3.70673e-08 4.32108e-10 1.28958e-07 0.000113327)
(2.71435e-08 -1.56442e-11 2.16036e-08 6.63756e-10 1.77623e-07 0.000117583)
(2.33518e-08 1.10784e-10 4.59733e-08 6.48399e-10 1.81208e-07 0.00011833)
(2.27213e-08 2.65923e-10 3.84295e-08 7.11775e-10 1.92458e-07 0.00011974)
(2.53512e-08 1.86911e-11 -3.58914e-08 7.49518e-10 1.94113e-07 0.000119616)
(3.08813e-08 1.04041e-11 -5.49666e-08 7.09273e-10 1.85785e-07 0.000118313)
(2.44371e-08 2.52166e-10 -3.14112e-08 6.67723e-10 1.79398e-07 0.000117622)
(2.16652e-08 2.87935e-10 3.29765e-09 6.55125e-10 1.77468e-07 0.000117407)
(2.34782e-08 4.71728e-10 3.05774e-08 7.11156e-10 1.85727e-07 0.000118365)
(2.45317e-08 3.23425e-10 2.55368e-09 7.42808e-10 1.9235e-07 0.00011943)
(2.91631e-08 2.02044e-10 -4.10129e-08 7.47464e-10 1.91174e-07 0.000119369)
(3.00189e-08 1.50553e-10 -5.90139e-08 7.37039e-10 1.83178e-07 0.000118081)
(3.29709e-08 -1.20241e-10 -4.47796e-08 7.0641e-10 1.77256e-07 0.00011745)
(3.28734e-08 -6.81953e-12 2.46607e-08 1.01503e-09 2.2981e-07 0.000119095)
(2.83649e-08 1.77519e-10 5.1333e-08 9.95133e-10 2.34531e-07 0.000119921)
(2.75661e-08 3.82312e-10 4.18826e-08 1.0966e-09 2.49176e-07 0.000121466)
(3.07488e-08 2.57695e-11 -4.29985e-08 1.15143e-09 2.51068e-07 0.000121301)
(3.73537e-08 5.88677e-12 -6.31663e-08 1.08572e-09 2.39944e-07 0.000119845)
(2.96136e-08 3.38609e-10 -3.35667e-08 1.02571e-09 2.32094e-07 0.000119114)
(2.62633e-08 3.6975e-10 3.79518e-09 1.00791e-09 2.29786e-07 0.000118899)
(2.84912e-08 6.11605e-10 3.39359e-08 1.09099e-09 2.40215e-07 0.00011993)
(2.97607e-08 4.27717e-10 3.39774e-09 1.13843e-09 2.48536e-07 0.000121065)
(3.53193e-08 2.52003e-10 -4.44863e-08 1.14866e-09 2.47257e-07 0.000121007)
(3.6346e-08 1.55912e-10 -6.45778e-08 1.13304e-09 2.37469e-07 0.000119652)
(3.99297e-08 -2.21082e-10 -5.28797e-08 1.08494e-09 2.3029e-07 0.000119008)
(3.89853e-08 1.10906e-11 2.72352e-08 1.47614e-09 2.85485e-07 0.000118332)
(3.37296e-08 2.64836e-10 5.59047e-08 1.45201e-09 2.91479e-07 0.000119224)
(3.27532e-08 5.27019e-10 4.47983e-08 1.60623e-09 3.09927e-07 0.000120884)
(3.65307e-08 3.45762e-11 -4.99185e-08 1.68201e-09 3.12011e-07 0.000120678)
(4.42472e-08 -1.32237e-12 -7.08635e-08 1.57985e-09 2.9765e-07 0.000119087)
(3.51449e-08 4.41621e-10 -3.48779e-08 1.49781e-09 2.88308e-07 0.000118327)
(3.1183e-08 4.59123e-10 4.62934e-09 1.47401e-09 2.85656e-07 0.000118116)
(3.38613e-08 7.65374e-10 3.72043e-08 1.59139e-09 2.98415e-07 0.00011921)
(3.5365e-08 5.46207e-10 4.24022e-09 1.65884e-09 3.08528e-07 0.000120396)
(4.18936e-08 3.02774e-10 -4.72045e-08 1.67849e-09 3.07206e-07 0.000120339)
(4.30989e-08 1.42218e-10 -6.91089e-08 1.65725e-09 2.9568e-07 0.000118947)
(4.73571e-08 -3.69753e-10 -6.12373e-08 1.58629e-09 2.87296e-07 0.000118304)
(4.54725e-08 4.07916e-11 2.92439e-08 2.0614e-09 3.43201e-07 0.000115588)
(3.94386e-08 3.73975e-10 5.96954e-08 2.0339e-09 3.50572e-07 0.00011653)
(3.828e-08 7.01647e-10 4.73267e-08 2.25848e-09 3.73193e-07 0.000118286)
(4.26959e-08 4.6148e-11 -5.63348e-08 2.35909e-09 3.75426e-07 0.000118043)
(5.15534e-08 -1.08464e-11 -7.78207e-08 2.20668e-09 3.57405e-07 0.000116334)
(4.10277e-08 5.62512e-10 -3.52559e-08 2.09944e-09 3.4658e-07 0.000115556)
(3.64231e-08 5.55223e-10 5.87022e-09 2.06913e-09 3.43636e-07 0.000115354)
(3.95864e-08 9.30435e-10 4.0396e-08 2.22851e-09 3.58849e-07 0.000116499)
(4.13448e-08 6.77471e-10 5.06941e-09 2.32042e-09 3.70806e-07 0.00011772)
(4.88822e-08 3.52307e-10 -4.9151e-08 2.35475e-09 3.69512e-07 0.000117663)
(5.02715e-08 1.04233e-10 -7.26092e-08 2.32835e-09 3.56385e-07 0.000116259)
(5.52437e-08 -5.76117e-10 -6.98059e-08 2.22897e-09 3.46901e-07 0.000115632)
(5.23417e-08 8.49997e-11 3.07036e-08 2.78528e-09 4.01554e-07 0.000111139)
(4.54958e-08 5.05724e-10 6.27911e-08 2.75586e-09 4.1037e-07 0.000112117)
(4.41555e-08 9.07425e-10 4.96208e-08 3.07146e-09 4.37495e-07 0.000113951)
(4.92562e-08 6.22179e-11 -6.19939e-08 3.20081e-09 4.39834e-07 0.000113675)
(5.92783e-08 -2.18453e-11 -8.38484e-08 2.98121e-09 4.17755e-07 0.000111865)
(4.72708e-08 7.02633e-10 -3.46569e-08 2.84623e-09 4.05498e-07 0.000111078)
(4.19926e-08 6.57533e-10 7.48626e-09 2.80927e-09 4.02337e-07 0.000110891)
(4.56755e-08 1.10404e-09 4.34089e-08 3.01869e-09 4.20082e-07 0.000112076)
(4.77124e-08 8.19635e-10 5.82046e-09 3.13969e-09 4.33893e-07 0.000113316)
(5.62958e-08 3.9854e-10 -5.03959e-08 3.19542e-09 4.32706e-07 0.000113259)
(5.78719e-08 3.7403e-11 -7.51963e-08 3.1655e-09 4.1819e-07 0.000111867)
(6.35942e-08 -8.49165e-10 -7.86242e-08 3.03236e-09 4.07771e-07 0.000111267)
(5.96077e-08 1.46444e-10 3.17078e-08 3.66252e-09 4.59053e-07 0.000105251)
(5.19121e-08 6.60643e-10 6.53191e-08 3.63313e-09 4.6934e-07 0.00010625)
(5.03968e-08 1.14527e-09 5.18137e-08 4.06357e-09 5.01248e-07 0.000108147)
(5.62316e-08 8.53768e-11 -6.67001e-08 4.22561e-09 5.03649e-07 0.000107841)
(6.74373e-08 -3.2933e-11 -8.88034e-08 3.91865e-09 4.77157e-07 0.000105948)
(5.38913e-08 8.63287e-10 -3.30871e-08 3.75407e-09 4.63571e-07 0.000105164)
(4.79077e-08 7.6582e-10 9.36746e-09 3.7108e-09 4.60283e-07 0.000104995)
(5.21451e-08 1.28322e-09 4.60588e-08 3.97846e-09 4.80586e-07 0.00010621)
(5.44886e-08 9.70409e-10 6.39224e-09 4.13329e-09 4.9621e-07 0.000107455)
(6.4155e-08 4.39468e-10 -5.10695e-08 4.21873e-09 4.95222e-07 0.000107397)
(6.59171e-08 -6.20911e-11 -7.70607e-08 4.18835e-09 4.79599e-07 0.00010604)
(7.2422e-08 -1.19669e-09 -8.77718e-08 4.01669e-09 4.68474e-07 0.000105477)
(6.72886e-08 2.27812e-10 3.24043e-08 4.70798e-09 5.14132e-07 9.81944e-05)
(5.87016e-08 8.3929e-10 6.74131e-08 4.68095e-09 5.25872e-07 9.91999e-05)
(5.70253e-08 1.41583e-09 5.40018e-08 5.25333e-09 5.62785e-07 0.000101144)
(6.36463e-08 1.18912e-10 -7.03119e-08 5.45219e-09 5.65202e-07 0.000100812)
(7.60489e-08 -4.22522e-11 -9.25885e-08 5.03422e-09 5.3399e-07 9.88517e-05)
(6.09095e-08 1.04562e-09 -3.0595e-08 4.83905e-09 5.1924e-07 9.80833e-05)
(5.41871e-08 8.79937e-10 1.13533e-08 4.79042e-09 5.15931e-07 9.79355e-05)
(5.90147e-08 1.4647e-09 4.81114e-08 5.12442e-09 5.38756e-07 9.91684e-05)
(6.16979e-08 1.12708e-09 6.65593e-09 5.31798e-09 5.561e-07 0.000100404)
(7.24845e-08 4.73143e-10 -5.13392e-08 5.44311e-09 5.55412e-07 0.000100346)
(7.44275e-08 -1.97453e-10 -7.84173e-08 5.4169e-09 5.39027e-07 9.90433e-05)
(8.17438e-08 -1.62529e-09 -9.7334e-08 5.20288e-09 5.27493e-07 9.85291e-05)
(7.54019e-08 3.31879e-10 3.29693e-08 5.93691e-09 5.6518e-07 9.02353e-05)
(6.58784e-08 1.04239e-09 6.91941e-08 5.91477e-09 5.78313e-07 9.12329e-05)
(6.40636e-08 1.7195e-09 5.62201e-08 6.65963e-09 6.20379e-07 9.32065e-05)
(7.15249e-08 1.66684e-10 -7.27468e-08 6.89968e-09 6.22759e-07 9.28519e-05)
(8.5131e-08 -4.7548e-11 -9.51561e-08 6.34357e-09 5.86585e-07 9.08432e-05)
(6.83465e-08 1.25059e-09 -2.72721e-08 6.11778e-09 5.70901e-07 9.01037e-05)
(6.08493e-08 9.99791e-10 1.32494e-08 6.06539e-09 5.67693e-07 8.99808e-05)
(6.63038e-08 1.6449e-09 4.93021e-08 6.47359e-09 5.9293e-07 9.12175e-05)
(6.93656e-08 1.28667e-09 6.45643e-09 6.71088e-09 6.11846e-07 9.24284e-05)
(8.131e-08 4.97866e-10 -5.14036e-08 6.88744e-09 6.11569e-07 9.23731e-05)
(8.3423e-08 -3.71158e-10 -7.9479e-08 6.87167e-09 5.94821e-07 9.11433e-05)
(9.15748e-08 -2.1404e-09 -1.07366e-07 6.61276e-09 5.83251e-07 9.0689e-05)
(8.3959e-08 4.61604e-10 3.35733e-08 7.36446e-09 6.10584e-07 8.16408e-05)
(7.34521e-08 1.27094e-09 7.0754e-08 7.34977e-09 6.2501e-07 8.26165e-05)
(7.15318e-08 2.05625e-09 5.84462e-08 8.30126e-09 6.7229e-07 8.46015e-05)
(7.98881e-08 2.3277e-10 -7.39607e-08 8.58719e-09 6.74574e-07 8.42271e-05)
(9.46949e-08 -4.6364e-11 -9.64958e-08 7.8622e-09 6.33268e-07 8.21882e-05)
(7.62189e-08 1.47888e-09 -2.32466e-08 7.60697e-09 6.16954e-07 8.14922e-05)
(6.79085e-08 1.12514e-09 1.48565e-08 7.55318e-09 6.13983e-07 8.13972e-05)
(7.40272e-08 1.81981e-09 4.93769e-08 8.04288e-09 6.4144e-07 8.26212e-05)
(7.75129e-08 1.44589e-09 5.63462e-09 8.32899e-09 6.61722e-07 8.37919e-05)
(9.06518e-08 5.12139e-10 -5.14657e-08 8.57068e-09 6.61972e-07 8.37413e-05)
(9.29178e-08 -5.85191e-10 -8.04211e-08 8.57331e-09 6.45305e-07 8.26029e-05)
(1.01924e-07 -2.74668e-09 -1.17851e-07 8.26869e-09 6.3415e-07 8.22204e-05)
(9.29599e-08 6.20203e-10 3.43533e-08 9.00509e-09 6.48786e-07 7.26751e-05)
(8.14234e-08 1.52618e-09 7.215e-08 9.00029e-09 6.64367e-07 7.36153e-05)
(7.94425e-08 2.42543e-09 6.06067e-08 1.01963e-08 7.16824e-07 7.55915e-05)
(8.87472e-08 3.21076e-10 -7.39399e-08 1.05331e-08 7.18938e-07 7.51995e-05)
(1.04739e-07 -3.62586e-11 -9.66284e-08 9.60488e-09 6.72426e-07 7.31508e-05)
(8.4534e-08 1.73086e-09 -1.86771e-08 9.32287e-09 6.55854e-07 7.25127e-05)
(7.53696e-08 1.25545e-09 1.59921e-08 9.2709e-09 6.53262e-07 7.24484e-05)
(8.21899e-08 1.98497e-09 4.81254e-08 9.8485e-09 6.8266e-07 7.36414e-05)
(8.61513e-08 1.60113e-09 4.04955e-09 1.01886e-08 7.04055e-07 7.47562e-05)
(1.00519e-07 5.14686e-10 -5.17114e-08 1.05112e-08 7.04945e-07 7.47125e-05)
(1.02914e-07 -8.41037e-10 -8.1358e-08 1.05419e-08 6.88833e-07 7.3682e-05)
(1.12787e-07 -3.44831e-09 -1.28672e-07 1.0193e-08 6.78619e-07 7.33837e-05)
(1.02387e-07 8.11202e-10 3.53948e-08 1.08718e-08 6.78348e-07 6.35953e-05)
(8.97794e-08 1.80939e-09 7.34045e-08 1.0879e-08 6.94911e-07 6.44874e-05)
(8.77962e-08 2.82543e-09 6.25882e-08 1.23611e-08 7.52391e-07 6.64327e-05)
(9.80984e-08 4.34989e-10 -7.26992e-08 1.27543e-08 7.54253e-07 6.60251e-05)
(1.15242e-07 -1.50309e-11 -9.56028e-08 1.15848e-08 7.02563e-07 6.39886e-05)
(9.32842e-08 2.00662e-09 -1.37463e-08 1.12805e-08 6.86171e-07 6.34223e-05)
(8.32234e-08 1.38981e-09 1.65069e-08 1.12345e-08 6.84109e-07 6.33904e-05)
(9.07812e-08 2.13537e-09 4.5409e-08 1.19051e-08 7.15073e-07 6.4533e-05)
(9.52765e-08 1.74835e-09 1.60064e-09 1.23041e-08 7.37283e-07 6.55768e-05)
(1.10903e-07 5.04476e-10 -5.22903e-08 1.27258e-08 7.38919e-07 6.55419e-05)
(1.13398e-07 -1.1396e-09 -8.23348e-08 1.2796e-08 7.23852e-07 6.46336e-05)
(1.24141e-07 -4.24924e-09 -1.39614e-07 1.24074e-08 7.15171e-07 6.44311e-05)
(1.12202e-07 1.03841e-09 3.67209e-08 1.29753e-08 6.98015e-07 5.46444e-05)
(9.84889e-08 2.12174e-09 7.45082e-08 1.29963e-08 7.15359e-07 5.54769e-05)
(9.65765e-08 3.25344e-09 6.42485e-08 1.48097e-08 7.77583e-07 5.7368e-05)
(1.07917e-07 5.77107e-10 -7.02878e-08 1.52648e-08 7.79093e-07 5.6947e-05)
(1.26156e-07 1.90691e-11 -9.34962e-08 1.38125e-08 7.22379e-07 5.49462e-05)
(1.02442e-07 2.30591e-09 -8.65715e-09 1.34929e-08 7.06657e-07 5.44635e-05)
(9.14418e-08 1.52689e-09 1.62948e-08 1.3458e-08 7.05274e-07 5.4465e-05)
(9.97699e-08 2.26552e-09 4.11812e-08 1.42248e-08 7.3734e-07 5.55376e-05)
(1.04863e-07 1.8831e-09 -1.75373e-09 1.46876e-08 7.60035e-07 5.64969e-05)
(1.2177e-07 4.80744e-10 -5.33022e-08 1.5229e-08 7.62503e-07 5.64717e-05)
(1.2433e-07 -1.48108e-09 -8.33289e-08 1.5352e-08 7.48967e-07 5.56968e-05)
(1.35938e-07 -5.15332e-09 -1.50368e-07 1.4932e-08 7.42463e-07 5.56e-05)
(1.22336e-07 1.30586e-09 3.82896e-08 1.53231e-08 7.0678e-07 4.60432e-05)
(1.07499e-07 2.46392e-09 7.54235e-08 1.5359e-08 7.24682e-07 4.68064e-05)
(1.05745e-07 3.70513e-09 6.54296e-08 1.75523e-08 7.91233e-07 4.86196e-05)
(1.18153e-07 7.49029e-10 -6.67949e-08 1.80754e-08 7.92278e-07 4.81878e-05)
(1.37404e-07 6.71487e-11 -9.04157e-08 1.62952e-08 7.30826e-07 4.6247e-05)
(1.11954e-07 2.62818e-09 -3.62751e-09 1.597e-08 7.16306e-07 4.5857e-05)
(9.99736e-08 1.66496e-09 1.52991e-08 1.59525e-08 7.15747e-07 4.58913e-05)
(1.09098e-07 2.36955e-09 3.54984e-08 1.68164e-08 7.48364e-07 4.68758e-05)
(1.14856e-07 2.00047e-09 -5.98426e-09 1.73472e-08 7.71191e-07 4.77393e-05)
(1.33056e-07 4.43043e-10 -5.47898e-08 1.80317e-08 7.7455e-07 4.77238e-05)
(1.35644e-07 -1.86471e-09 -8.42618e-08 1.82227e-08 7.63008e-07 4.70895e-05)
(1.481e-07 -6.16432e-09 -1.60556e-07 1.77849e-08 7.59362e-07 4.71055e-05)
(1.32694e-07 1.61771e-09 3.99972e-08 1.79192e-08 7.0394e-07 3.79827e-05)
(1.16732e-07 2.83591e-09 7.60884e-08 1.79702e-08 7.22164e-07 3.86693e-05)
(1.15238e-07 4.17448e-09 6.59714e-08 2.05945e-08 7.92483e-07 4.03818e-05)
(1.28725e-07 9.51253e-10 -6.23543e-08 2.11918e-08 7.92932e-07 3.99418e-05)
(1.48869e-07 1.29527e-10 -8.64994e-08 1.90359e-08 7.27178e-07 3.80853e-05)
(1.21739e-07 2.97261e-09 1.1153e-09 1.87181e-08 7.1441e-07 3.77936e-05)
(1.08741e-07 1.80197e-09 1.3514e-08 1.87255e-08 7.14807e-07 3.78589e-05)
(1.18678e-07 2.44135e-09 2.85214e-08 1.96839e-08 7.47351e-07 3.87395e-05)
(1.25171e-07 2.09512e-09 -1.09872e-08 2.02865e-08 7.6995e-07 3.94989e-05)
(1.4466e-07 3.91307e-10 -5.67368e-08 2.11404e-08 7.74222e-07 3.9492e-05)
(1.47241e-07 -2.28858e-09 -8.50141e-08 2.14166e-08 7.65094e-07 3.90011e-05)
(1.60516e-07 -7.28586e-09 -1.6976e-07 2.0981e-08 7.64996e-07 3.91329e-05)
(1.43145e-07 1.9781e-09 4.16877e-08 2.0763e-08 6.89147e-07 3.06175e-05)
(1.26083e-07 3.2367e-09 7.64212e-08 2.08281e-08 7.07452e-07 3.12228e-05)
(1.24963e-07 4.65371e-09 6.57265e-08 2.39367e-08 7.80834e-07 3.28137e-05)
(1.39517e-07 1.18318e-09 -5.71434e-08 2.46149e-08 7.8054e-07 3.23688e-05)
(1.60397e-07 2.05628e-10 -8.19153e-08 2.20325e-08 7.11075e-07 3.06195e-05)
(1.31683e-07 3.33795e-09 5.34248e-09 2.17392e-08 7.00606e-07 3.04275e-05)
(1.17636e-07 1.93567e-09 1.09837e-08 2.17803e-08 7.02069e-07 3.05207e-05)
(1.28388e-07 2.47486e-09 2.05061e-08 2.28268e-08 7.33861e-07 3.12852e-05)
(1.35684e-07 2.16143e-09 -1.65895e-08 2.35041e-08 7.55879e-07 3.19359e-05)
(1.56441e-07 3.25928e-10 -5.90725e-08 2.45563e-08 7.61037e-07 3.19358e-05)
(1.58987e-07 -2.74936e-09 -8.54436e-08 2.49369e-08 7.54682e-07 3.15859e-05)
(1.73038e-07 -8.5212e-09 -1.77548e-07 2.45318e-08 7.58806e-07 3.18318e-05)
(1.53529e-07 2.39104e-09 4.31656e-08 2.385e-08 6.62431e-07 2.40615e-05)
(1.3542e-07 3.66399e-09 7.63254e-08 2.39265e-08 6.80584e-07 2.45837e-05)
(1.34797e-07 5.13335e-09 6.45758e-08 2.75736e-08 7.56185e-07 2.60354e-05)
(1.5038e-07 1.4432e-09 -5.13766e-08 2.83393e-08 7.54985e-07 2.55889e-05)
(1.71796e-07 2.93926e-10 -7.68565e-08 2.52781e-08 6.82554e-07 2.39678e-05)
(1.41639e-07 3.72241e-09 8.83427e-09 2.50306e-08 6.74905e-07 2.38725e-05)
(1.26524e-07 2.06377e-09 7.79703e-09 2.51152e-08 6.77516e-07 2.39891e-05)
(1.38073e-07 2.46438e-09 1.17856e-08 2.62388e-08 7.07845e-07 2.463e-05)
(1.46233e-07 2.19369e-09 -2.25611e-08 2.69929e-08 7.28949e-07 2.5171e-05)
(1.68217e-07 2.47841e-10 -6.16805e-08 2.82751e-08 7.34913e-07 2.51751e-05)
(1.70711e-07 -3.24216e-09 -8.54032e-08 2.87813e-08 7.31611e-07 2.49591e-05)
(1.85482e-07 -9.87285e-09 -1.83504e-07 2.84445e-08 7.40582e-07 2.53124e-05)
(1.63653e-07 2.86018e-09 4.42118e-08 2.71712e-08 6.24219e-07 1.83861e-05)
(1.44587e-07 4.11398e-09 7.56968e-08 2.72543e-08 6.42003e-07 1.88264e-05)
(1.44588e-07 5.60238e-09 6.24422e-08 3.14934e-08 7.18849e-07 2.0125e-05)
(1.61131e-07 1.72889e-09 -4.52939e-08 3.23538e-08 7.16569e-07 1.96808e-05)
(1.82835e-07 3.91913e-10 -7.15341e-08 2.87607e-08 6.42066e-07 1.82052e-05)
(1.51429e-07 4.12337e-09 1.13926e-08 2.85846e-08 6.37704e-07 1.81994e-05)
(1.3524e-07 2.18414e-09 4.08082e-09 2.87242e-08 6.41509e-07 1.83339e-05)
(1.47542e-07 2.40497e-09 2.74449e-09 2.99079e-08 6.6966e-07 1.88488e-05)
(1.56619e-07 2.18643e-09 -2.86335e-08 3.07403e-08 6.89555e-07 1.9283e-05)
(1.79768e-07 1.58601e-10 -6.44123e-08 3.22865e-08 6.9618e-07 1.92882e-05)
(1.8221e-07 -3.76044e-09 -8.47583e-08 3.29415e-08 6.9612e-07 1.91946e-05)
(1.97632e-07 -1.1342e-08 -1.87256e-07 3.27222e-08 7.1048e-07 1.96437e-05)
(1.73304e-07 3.38862e-09 4.46026e-08 3.07141e-08 5.75318e-07 1.36208e-05)
(1.53407e-07 4.5811e-09 7.44314e-08 3.07962e-08 5.92547e-07 1.39829e-05)
(1.54158e-07 6.04869e-09 5.93022e-08 3.56786e-08 6.69553e-07 1.51195e-05)
(1.71554e-07 2.03733e-09 -3.91468e-08 3.66412e-08 6.6601e-07 1.46817e-05)
(1.93256e-07 4.96114e-10 -6.61653e-08 3.24637e-08 5.90464e-07 1.33646e-05)
(1.60848e-07 4.53698e-09 1.28547e-08 3.23892e-08 5.89773e-07 1.34373e-05)
(1.436e-07 2.295e-09 -1.01132e-11 3.2596e-08 5.94779e-07 1.35837e-05)
(1.56579e-07 2.29295e-09 -6.21074e-09 3.38167e-08 6.20065e-07 1.39751e-05)
(1.66608e-07 2.13482e-09 -3.45211e-08 3.47282e-08 6.38506e-07 1.43087e-05)
(1.90836e-07 6.04344e-11 -6.71029e-08 3.65743e-08 6.45586e-07 1.4312e-05)
(1.93251e-07 -4.29599e-09 -8.34041e-08 3.74031e-08 6.48852e-07 1.43256e-05)
(2.09243e-07 -1.2928e-08 -1.88496e-07 3.73639e-08 6.69018e-07 1.48546e-05)
(1.82249e-07 3.97861e-09 4.41286e-08 3.44629e-08 5.16889e-07 9.75641e-06)
(1.61684e-07 5.05783e-09 7.24349e-08 3.45332e-08 5.3341e-07 1.00462e-05)
(1.6331e-07 6.45957e-09 5.51932e-08 4.0106e-08 6.09409e-07 1.10169e-05)
(1.81415e-07 2.36539e-09 -3.31817e-08 4.11787e-08 6.04419e-07 1.05897e-05)
(2.02781e-07 6.02118e-10 -6.09606e-08 3.63661e-08 5.28969e-07 9.43905e-06)
(1.69672e-07 4.95774e-09 1.31066e-08 3.64278e-08 5.32229e-07 9.57635e-06)
(1.51401e-07 2.39516e-09 -4.30383e-09 3.67149e-08 5.38399e-07 9.72832e-06)
(1.64943e-07 2.1263e-09 -1.46837e-08 3.79427e-08 5.60194e-07 1.00037e-05)
(1.7594e-07 2.03515e-09 -3.99457e-08 3.89339e-08 5.76999e-07 1.02456e-05)
(2.01139e-07 -4.37771e-11 -6.95877e-08 4.11168e-08 5.84262e-07 1.02445e-05)
(2.03581e-07 -4.83902e-09 -8.12798e-08 4.21461e-08 5.9083e-07 1.03475e-05)
(2.20052e-07 -1.4627e-08 -1.87009e-07 4.2364e-08 6.1706e-07 1.09372e-05)
(1.90254e-07 4.63129e-09 4.26132e-08 3.84002e-08 4.50389e-07 6.74985e-06)
(1.69219e-07 5.53453e-09 6.96328e-08 3.84436e-08 4.66097e-07 6.9748e-06)
(1.71833e-07 6.82241e-09 5.02144e-08 4.47472e-08 5.3987e-07 7.78114e-06)
(1.90463e-07 2.71016e-09 -2.76234e-08 4.59385e-08 5.33253e-07 7.36873e-06)
(2.11128e-07 7.04628e-10 -5.611e-08 4.04442e-08 4.59122e-07 6.38706e-06)
(1.7767e-07 5.37798e-09 1.20942e-08 4.06799e-08 4.66484e-07 6.57316e-06)
(1.58436e-07 2.48421e-09 -8.62289e-09 4.10609e-08 4.73737e-07 6.7245e-06)
(1.72384e-07 1.90528e-09 -2.23183e-08 4.22587e-08 4.91506e-07 6.89551e-06)
(1.84339e-07 1.88534e-09 -4.46592e-08 4.33305e-08 5.06564e-07 7.05681e-06)
(2.10379e-07 -1.5059e-10 -7.17183e-08 4.58877e-08 5.13685e-07 7.0492e-06)
(2.12936e-07 -5.3785e-09 -7.83808e-08 4.71452e-08 5.23416e-07 7.22243e-06)
(2.29791e-07 -1.64316e-08 -1.82686e-07 4.77134e-08 5.55773e-07 7.85121e-06)
(1.97088e-07 5.3463e-09 3.99297e-08 4.25075e-08 3.77508e-07 4.53089e-06)
(1.75812e-07 5.99944e-09 6.59797e-08 4.2504e-08 3.92346e-07 4.69943e-06)
(1.79515e-07 7.12561e-09 4.45238e-08 4.95695e-08 4.62667e-07 5.34783e-06)
(1.9845e-07 3.06933e-09 -2.26599e-08 5.08887e-08 4.54254e-07 4.95443e-06)
(2.18029e-07 7.97559e-10 -5.17696e-08 4.46721e-08 3.82703e-07 4.1387e-06)
(1.84617e-07 5.78746e-09 9.83246e-09 4.51218e-08 3.9418e-07 4.35696e-06)
(1.64503e-07 2.56272e-09 -1.27956e-08 4.56106e-08 4.02394e-07 4.50203e-06)
(1.78653e-07 1.63289e-09 -2.88259e-08 4.67341e-08 4.15726e-07 4.58341e-06)
(1.91527e-07 1.68541e-09 -4.84654e-08 4.78884e-08 4.28998e-07 4.67638e-06)
(2.18263e-07 -2.5621e-10 -7.33764e-08 5.08563e-08 4.35607e-07 4.66135e-06)
(2.21053e-07 -5.90254e-09 -7.47651e-08 5.23707e-08 4.48252e-07 4.88539e-06)
(2.38198e-07 -1.83292e-08 -1.75543e-07 5.33991e-08 4.86573e-07 5.53093e-06)
(2.02545e-07 6.12153e-09 3.60141e-08 4.6767e-08 3.00085e-07 3.00921e-06)
(1.81279e-07 6.43864e-09 6.14682e-08 4.66908e-08 3.1405e-07 3.13003e-06)
(1.86155e-07 7.35937e-09 3.83279e-08 5.45372e-08 3.79728e-07 3.63147e-06)
(2.05141e-07 3.44164e-09 -1.84307e-08 5.59945e-08 3.69369e-07 3.26098e-06)
(2.23251e-07 8.74158e-10 -4.80499e-08 4.90229e-08 3.01657e-07 2.60302e-06)
(1.90309e-07 6.17311e-09 6.4097e-09 4.97274e-08 3.17116e-07 2.83708e-06)
(1.69422e-07 2.63241e-09 -1.66661e-08 5.0337e-08 3.2613e-07 2.97108e-06)
(1.83521e-07 1.31531e-09 -3.40053e-08 5.13353e-08 3.34761e-07 2.97963e-06)
(1.97244e-07 1.43798e-09 -5.1237e-08 5.25758e-08 3.46279e-07 3.01701e-06)
(2.24517e-07 -3.56852e-10 -7.4483e-08 5.59887e-08 3.51979e-07 2.99469e-06)
(2.27688e-07 -6.39901e-09 -7.0554e-08 5.77888e-08 3.67186e-07 3.25092e-06)
(2.45037e-07 -2.03015e-08 -1.65724e-07 5.94049e-08 4.11066e-07 3.8916e-06)
(2.06456e-07 6.95276e-09 3.08748e-08 5.11626e-08 2.20023e-07 2.08195e-06)
(1.85462e-07 6.83625e-09 5.61348e-08 5.0981e-08 2.33164e-07 2.16348e-06)
(1.91578e-07 7.51675e-09 3.18676e-08 5.96121e-08 2.93095e-07 2.53259e-06)
(2.10331e-07 3.8271e-09 -1.50189e-08 6.12189e-08 2.80663e-07 2.1885e-06)
(2.26612e-07 9.27158e-10 -4.5009e-08 5.34704e-08 2.17997e-07 1.67556e-06)
(1.94583e-07 6.51907e-09 1.98715e-09 5.44685e-08 2.37167e-07 1.91044e-06)
(1.73046e-07 2.69633e-09 -2.0103e-08 5.52108e-08 2.4679e-07 2.02965e-06)
(1.86796e-07 9.62242e-10 -3.77566e-08 5.60271e-08 2.50622e-07 1.983e-06)
(2.01265e-07 1.14848e-09 -5.29277e-08 5.73606e-08 2.60479e-07 1.97717e-06)
(2.28907e-07 -4.49257e-10 -7.50036e-08 6.1249e-08 2.64864e-07 1.94884e-06)
(2.32632e-07 -6.85643e-09 -6.59262e-08 6.33634e-08 2.82194e-07 2.22043e-06)
(2.5011e-07 -2.23236e-08 -1.53512e-07 6.57112e-08 3.30974e-07 2.83668e-06)
(2.08702e-07 7.83345e-09 2.45952e-08 5.56807e-08 1.39206e-07 1.64089e-06)
(1.88241e-07 7.1748e-09 5.00652e-08 5.53533e-08 1.51621e-07 1.69084e-06)
(1.95643e-07 7.59434e-09 2.53994e-08 6.47549e-08 2.04834e-07 1.945e-06)
(2.13863e-07 4.22719e-09 -1.24495e-08 6.65242e-08 1.90237e-07 1.63019e-06)
(2.28008e-07 9.48978e-10 -4.26498e-08 5.79896e-08 1.33715e-07 1.24586e-06)
(1.97329e-07 6.80712e-09 -3.20747e-09 5.93151e-08 1.56204e-07 1.46877e-06)
(1.75277e-07 2.75893e-09 -2.30056e-08 6.02002e-08 1.6623e-07 1.57065e-06)
(1.88338e-07 5.87061e-10 -4.00864e-08 6.07732e-08 1.65338e-07 1.48607e-06)
(2.03421e-07 8.25266e-10 -5.35791e-08 6.22102e-08 1.73667e-07 1.44849e-06)
(2.31262e-07 -5.31296e-10 -7.49513e-08 6.65998e-08 1.76349e-07 1.41641e-06)
(2.35726e-07 -7.26491e-09 -6.11075e-08 6.90559e-08 1.95294e-07 1.68902e-06)
(2.53281e-07 -2.43637e-08 -1.39317e-07 7.22952e-08 2.48074e-07 2.26454e-06)
(2.0923e-07 8.75454e-09 1.73283e-08 6.03112e-08 5.94138e-08 1.5789e-06)
(1.89547e-07 7.4357e-09 4.3393e-08 5.97887e-08 7.12439e-08 1.60397e-06)
(1.9826e-07 7.59291e-09 1.91725e-08 6.99258e-08 1.16946e-07 1.76211e-06)
(2.15637e-07 4.64469e-09 -1.06944e-08 7.18725e-08 1.00128e-07 1.47873e-06)
(2.2742e-07 9.31949e-10 -4.09223e-08 6.25576e-08 5.06917e-08 1.20403e-06)
(1.98505e-07 7.0176e-09 -8.89396e-09 6.42366e-08 7.60175e-08 1.40494e-06)
(1.76078e-07 2.82618e-09 -2.53065e-08 6.52715e-08 8.62341e-08 1.48818e-06)
(1.8808e-07 2.06704e-10 -4.1099e-08 6.55374e-08 8.08617e-08 1.38157e-06)