/*--------------------------------*- C++ -*----------------------------------*\
| =========                 |                                                 |
| \\      /  F ield         | OpenFOAM: The Open Source CFD Toolbox           |
|  \\    /   O peration     | Version:  v1906                                 |
|   \\  /    A nd           | Web:      www.OpenFOAM.com                      |
|    \\/     M anipulation  |                                                 |
\*---------------------------------------------------------------------------*/
FoamFile
{
    version     2.0;
    format      ascii;
    class       volVectorField;
    location    "98";
    object      U;
}
// * * * * * * * * * * * * * * * * * * * * * * * * * * * * * * * * * * * * * //

dimensions      [0 1 -1 0 0 0 0];


internalField   nonuniform List<vector> 
2528
(
(-0.000435042 -0.000589175 -0.00723125)
(0.000879412 7.73904e-06 -0.00428337)
(0.000372206 -7.07667e-06 -0.00814209)
(-0.000822592 1.21158e-05 -0.00815747)
(-0.000723824 0.000717369 -0.0229377)
(0.00107443 2.40248e-05 -0.0144239)
(0.00053862 -2.8724e-05 -0.0253882)
(-0.00090821 3.32805e-05 -0.0256217)
(-0.000495519 -0.000787112 -0.0387145)
(9.23565e-05 3.44935e-05 -0.0249306)
(0.000191525 -5.32599e-05 -0.0425269)
(0.000174405 5.09341e-05 -0.0430189)
(-0.000189772 0.000282245 -0.0534449)
(-0.000981405 5.59416e-05 -0.0346873)
(-0.000230622 -9.07705e-05 -0.0586095)
(0.00132174 7.87677e-05 -0.0591734)
(5.89228e-05 -0.000326347 -0.0670945)
(-0.00185965 6.78233e-05 -0.0437051)
(-0.00059418 -0.000127211 -0.073649)
(0.00224304 9.28259e-05 -0.0740766)
(0.000313636 -0.000200506 -0.0799134)
(-0.00272897 8.01927e-05 -0.0522792)
(-0.000961903 -0.000168278 -0.0878616)
(0.0031126 0.000104947 -0.0880226)
(0.000587642 -0.000262646 -0.0919945)
(-0.00363793 9.19819e-05 -0.0605125)
(-0.00134589 -0.000212942 -0.101312)
(0.00397454 0.000113383 -0.101137)
(0.000878659 -0.000302921 -0.103379)
(-0.00459034 0.000103384 -0.0684372)
(-0.00174175 -0.000261216 -0.11401)
(0.00483328 0.00011789 -0.113478)
(0.00118031 -0.000349518 -0.114083)
(-0.00557547 0.000115068 -0.0760582)
(-0.00214043 -0.000313311 -0.12594)
(0.00568045 0.000119018 -0.125065)
(0.00148533 -0.000390639 -0.124105)
(-0.00657832 0.000127308 -0.0833664)
(-0.0025324 -0.00036971 -0.137084)
(0.00650354 0.000116836 -0.135899)
(0.00178666 -0.00042893 -0.133451)
(-0.0075824 0.000140035 -0.0903453)
(-0.00290744 -0.000430494 -0.147441)
(0.00728884 0.000111874 -0.14598)
(0.00207743 -0.00046383 -0.142138)
(-0.00857104 0.000153123 -0.09698)
(-0.00325591 -0.000494633 -0.157034)
(0.00801984 0.000104199 -0.155325)
(0.00235075 -0.000495493 -0.150205)
(-0.00952834 0.000166611 -0.103264)
(-0.00357221 -0.000561918 -0.165927)
(0.00868146 9.29855e-05 -0.163966)
(0.00259998 -0.000523252 -0.157687)
(-0.0104383 0.000180702 -0.1092)
(-0.00385398 -0.000632453 -0.174197)
(0.00926647 7.82259e-05 -0.171965)
(0.00282003 -0.000546125 -0.164622)
(-0.011284 0.000195447 -0.114795)
(-0.00410154 -0.00070669 -0.181899)
(0.00977281 6.05551e-05 -0.179383)
(0.00300865 -0.000565335 -0.171055)
(-0.0120488 0.000210694 -0.120054)
(-0.0043167 -0.000784696 -0.18908)
(0.0102026 4.09413e-05 -0.186265)
(0.00316551 -0.000581887 -0.17703)
(-0.0127194 0.000226472 -0.124982)
(-0.00450099 -0.000865859 -0.195781)
(0.0105585 1.93983e-05 -0.192653)
(0.00329153 -0.000595764 -0.182583)
(-0.0132894 0.000242887 -0.129592)
(-0.00465601 -0.000949927 -0.202042)
(0.0108428 -4.45424e-06 -0.198587)
(0.00338855 -0.000606556 -0.187752)
(-0.013759 0.000260061 -0.133903)
(-0.0047836 -0.0010367 -0.207897)
(0.0110593 -3.00627e-05 -0.204104)
(0.0034592 -0.000613698 -0.192583)
(-0.0141338 0.000278064 -0.137942)
(-0.0048857 -0.00112565 -0.213381)
(0.0112122 -5.67081e-05 -0.209235)
(0.00350716 -0.000618274 -0.197114)
(-0.0144227 0.000296947 -0.141739)
(-0.00496459 -0.00121585 -0.218529)
(0.0113041 -8.23968e-05 -0.213999)
(0.00353643 -0.000620901 -0.201383)
(-0.014636 0.00031679 -0.145324)
(-0.00502332 -0.00130629 -0.223375)
(0.0113346 -0.000107921 -0.218412)
(0.00355063 -0.000621366 -0.205421)
(-0.0147843 0.000337661 -0.148726)
(-0.00506563 -0.00139659 -0.227954)
(0.0113048 -0.000135548 -0.222495)
(0.00355315 -0.000619773 -0.209257)
(-0.0148772 0.00035962 -0.151972)
(-0.00509473 -0.00148958 -0.232281)
(0.0112214 -0.000165357 -0.226292)
(0.00354719 -0.000616176 -0.212915)
(-0.0149225 0.00038268 -0.155085)
(-0.00511071 -0.00158724 -0.236349)
(0.0110961 -0.000195553 -0.229852)
(0.00353571 -0.000610736 -0.21642)
(-0.0149256 0.000406831 -0.158082)
(-0.00511077 -0.00168513 -0.240134)
(0.0109383 -0.000217931 -0.233205)
(0.00352102 -0.000603541 -0.219792)
(-0.0148905 0.000432051 -0.160978)
(-0.00509363 -0.00178018 -0.243644)
(0.0107434 -0.000235364 -0.236357)
(0.00350468 -0.000594863 -0.223049)
(-0.0148197 0.000458327 -0.163784)
(-0.00506172 -0.00187251 -0.246929)
(0.0105058 -0.000264856 -0.239319)
(0.00348792 -0.000584866 -0.226201)
(-0.0147152 0.000485697 -0.166507)
(-0.00502084 -0.00196388 -0.250042)
(0.0102464 -0.000316691 -0.242174)
(0.00347228 -0.000573428 -0.229262)
(-0.0145782 0.000514215 -0.169154)
(-0.00497765 -0.00205698 -0.253014)
(0.0100144 -0.00035778 -0.245062)
(0.00345989 -0.000559333 -0.23224)
(-0.0144095 0.000543949 -0.171732)
(-0.00493661 -0.00214508 -0.255862)
(0.00983252 -0.000367896 -0.247981)
(0.00345319 -0.000539592 -0.235146)
(-0.0142095 0.000574972 -0.174243)
(-0.00490117 -0.00224131 -0.258601)
(0.00966739 -0.000370942 -0.250722)
(0.0034551 -0.000510126 -0.237992)
(-0.0139785 0.000607325 -0.176692)
(-0.00486479 -0.00236208 -0.26122)
(0.00946961 -0.00038383 -0.253179)
(0.00346564 -0.000531622 -0.240782)
(-0.0137173 0.000640946 -0.17908)
(-0.00480697 -0.00247886 -0.263645)
(0.00921733 -0.000420445 -0.255412)
(0.00346733 -0.000588896 -0.243459)
(-0.013426 0.000675799 -0.181409)
(-0.00472351 -0.00255488 -0.265895)
(0.00893377 -0.000454133 -0.257497)
(0.00344117 -0.000586563 -0.245938)
(-0.013102 0.00071221 -0.183682)
(-0.00466308 -0.00255258 -0.268314)
(0.0086407 -0.000471785 -0.259468)
(0.00341142 -0.0004921 -0.248437)
(-0.0127413 0.000750944 -0.185901)
(-0.00473416 -0.00259697 -0.271505)
(0.00833762 -0.000489438 -0.261325)
(0.00346819 -0.000260007 -0.251632)
(-0.012342 0.000792444 -0.188071)
(-0.00494113 -0.00276677 -0.275394)
(0.00802245 -0.000506045 -0.263069)
(0.00373581 -0.000206011 -0.256176)
(-0.0119085 0.000837198 -0.190197)
(-0.00513748 -0.00292151 -0.278666)
(0.00769914 -0.000521621 -0.264696)
(0.00414069 -0.000397939 -0.26136)
(-0.0114524 0.000874909 -0.192286)
(-0.00525954 -0.00303025 -0.281055)
(0.00737625 -0.000538824 -0.266208)
(0.00446975 -0.000513185 -0.265473)
(-0.0109882 0.000935267 -0.194355)
(-0.00528955 -0.00306267 -0.282936)
(0.00705958 -0.000559141 -0.267605)
(0.00467934 -0.000532159 -0.268458)
(-0.0104858 0.00103748 -0.196362)
(-0.00527647 -0.00311904 -0.284601)
(0.00674979 -0.00058179 -0.268891)
(0.00478321 -0.000401684 -0.270857)
(-0.00986944 0.0011225 -0.198141)
(-0.00526413 -0.00321498 -0.286167)
(0.00644344 -0.000605445 -0.27007)
(0.00484541 -0.000329568 -0.273037)
(-0.00912207 0.00113119 -0.199764)
(-0.00525245 -0.00329113 -0.287635)
(0.00613684 -0.000629651 -0.271145)
(0.00491188 -0.000352043 -0.275156)
(-0.00840918 0.00104341 -0.201973)
(-0.00523916 -0.0033638 -0.289001)
(0.00582999 -0.000654686 -0.272119)
(0.00498134 -0.000340073 -0.277221)
(-0.00811263 0.00105827 -0.205921)
(-0.00522081 -0.00343606 -0.290263)
(0.00552417 -0.000680688 -0.272997)
(0.0050491 -0.000324323 -0.279232)
(-0.00823595 0.00129108 -0.210923)
(-0.0051935 -0.00350766 -0.29142)
(0.0052199 -0.000707648 -0.273783)
(0.00511395 -0.000308948 -0.281191)
(-0.00830376 0.00145935 -0.214623)
(-0.00515603 -0.00357768 -0.292473)
(0.00491738 -0.00073559 -0.27448)
(0.00517747 -0.000295605 -0.283098)
(-0.0081257 0.00150581 -0.217013)
(-0.00511023 -0.0036459 -0.293423)
(0.00461661 -0.000764578 -0.275091)
(0.00524154 -0.000282362 -0.284951)
(-0.00766528 0.00149769 -0.218715)
(-0.00505893 -0.0037117 -0.29427)
(0.00431749 -0.000794712 -0.27562)
(0.00530771 -0.000264753 -0.286747)
(-0.0071025 0.00155082 -0.22019)
(-0.00500406 -0.0037743 -0.295014)
(0.00401985 -0.00082609 -0.276072)
(0.00537747 -0.000248295 -0.288494)
(-0.006533 0.0016361 -0.221605)
(-0.00494564 -0.00383338 -0.29566)
(0.00372359 -0.00085881 -0.276449)
(0.00545111 -0.000237154 -0.290202)
(-0.00594401 0.00169956 -0.222947)
(-0.00488316 -0.0038887 -0.296212)
(0.00342883 -0.00089299 -0.276754)
(0.00552695 -0.000232021 -0.291859)
(-0.0053333 0.00176501 -0.224223)
(-0.00481653 -0.00393957 -0.296679)
(0.00313577 -0.000928754 -0.27699)
(0.00560216 -0.000229817 -0.293444)
(-0.00470553 0.00182572 -0.225451)
(-0.00474602 -0.00398584 -0.297076)
(0.00284454 -0.000966212 -0.277161)
(0.0056735 -0.000223709 -0.294946)
(-0.00407392 0.00190851 -0.226668)
(-0.00467232 -0.00402554 -0.297424)
(0.00255515 -0.00100543 -0.277268)
(0.0057393 -0.000220213 -0.296365)
(-0.00340382 0.0020315 -0.227801)
(-0.00459768 -0.00407558 -0.297757)
(0.00226747 -0.00104649 -0.277313)
(0.00579928 -0.000222873 -0.297697)
(-0.00264087 0.00212402 -0.228614)
(-0.00450308 -0.0041472 -0.297973)
(0.0019817 -0.00108941 -0.2773)
(0.00585268 -0.000229275 -0.298939)
(-0.00181858 0.00209355 -0.229402)
(-0.0043889 -0.0041695 -0.297926)
(0.00169869 -0.00113416 -0.277229)
(0.00589717 -0.000239895 -0.300086)
(-0.00117692 0.00197687 -0.231766)
(-0.00432095 -0.00404588 -0.298227)
(0.00141948 -0.00118074 -0.277103)
(0.00592835 -0.000252732 -0.301137)
(-0.00111977 0.00212943 -0.237407)
(-0.00431411 -0.00408129 -0.299972)
(0.00114348 -0.00122954 -0.276923)
(0.00594324 -0.000264575 -0.302093)
(-0.00131365 0.00239113 -0.242912)
(-0.00432533 -0.00426521 -0.30199)
(0.000869812 -0.00128107 -0.276689)
(0.00594206 -0.000274353 -0.302958)
(-0.0013355 0.00248498 -0.246163)
(-0.00430048 -0.00426279 -0.302892)
(0.000599831 -0.00133519 -0.276404)
(0.00592642 -0.000283876 -0.303731)
(-0.00110743 0.00248001 -0.247926)
(-0.00418557 -0.00423001 -0.302813)
(0.0003359 -0.0013915 -0.276066)
(0.00589731 -0.000294968 -0.304413)
(-0.000709166 0.00250725 -0.249015)
(-0.00401533 -0.00426219 -0.30238)
(7.95524e-05 -0.00144983 -0.275677)
(0.00585482 -0.000308646 -0.305004)
(-0.000281978 0.00256451 -0.249957)
(-0.00382121 -0.00428886 -0.301905)
(-0.00016801 -0.00151168 -0.275237)
(0.00579871 -0.000325161 -0.305505)
(0.000135797 0.00261246 -0.250883)
(-0.00360284 -0.00430606 -0.301389)
(-0.000406459 -0.00157946 -0.274756)
(0.00572879 -0.000344661 -0.305917)
(0.000548568 0.00265414 -0.251783)
(-0.00336158 -0.00431766 -0.300839)
(-0.000636036 -0.00165517 -0.274264)
(0.00564508 -0.000367327 -0.306239)
(0.000957409 0.00269418 -0.252654)
(-0.00309921 -0.00432462 -0.300259)
(-0.000855908 -0.00173797 -0.273788)
(0.00554782 -0.000393314 -0.306474)
(0.00136381 0.00272987 -0.253493)
(-0.00281744 -0.00432574 -0.299651)
(-0.00106396 -0.00182491 -0.273341)
(0.00543749 -0.000422772 -0.306621)
(0.00176943 0.00275996 -0.254304)
(-0.00251798 -0.0043208 -0.299015)
(-0.00125749 -0.00191249 -0.272929)
(0.00531482 -0.000455648 -0.306683)
(0.00217528 0.00278431 -0.255093)
(-0.0022025 -0.00430981 -0.29835)
(-0.00143352 -0.00199739 -0.272555)
(0.00518075 -0.000492107 -0.306661)
(0.00258196 0.00280259 -0.255875)
(-0.00187275 -0.00429284 -0.297658)
(-0.00158905 -0.00207825 -0.272213)
(0.00503645 -0.000532384 -0.306559)
(0.00298976 0.00281496 -0.256666)
(-0.00153065 -0.00426522 -0.296939)
(-0.00172127 -0.00215642 -0.271888)
(0.00488334 -0.000572283 -0.30638)
(0.00339906 0.0028254 -0.257481)
(-0.00117862 -0.00423517 -0.296198)
(-0.00182639 -0.00224526 -0.271568)
(0.00472343 -0.000619315 -0.306127)
(0.00381023 0.00282507 -0.25834)
(-0.000820048 -0.00419947 -0.295442)
(-0.00193539 -0.00228992 -0.27099)
(0.0045582 -0.000673645 -0.305799)
(0.0042276 0.00282125 -0.259241)
(-0.000457098 -0.00415391 -0.294676)
(-0.00214876 -0.00227124 -0.269289)
(0.00438737 -0.000719786 -0.305399)
(0.00464987 0.00278958 -0.26023)
(-8.81854e-05 -0.00411377 -0.293909)
(-0.00257787 -0.00236164 -0.26527)
(0.0042075 -0.000777206 -0.30497)
(0.00507453 0.0027294 -0.261486)
(0.000291859 -0.0040426 -0.293195)
(-0.00330842 -0.00266052 -0.25772)
(-7.40095e-05 4.63283e-06 -0.00257762)
(-0.000581627 4.40695e-06 -0.00329323)
(-1.32949e-05 -8.57534e-07 -0.00546548)
(0.000455652 4.34724e-06 -0.00355925)
(-0.000235185 5.86448e-06 -0.00863902)
(-0.00131745 6.48472e-06 -0.0110495)
(-2.41746e-05 -7.37759e-06 -0.0169795)
(0.000940619 3.49496e-06 -0.0117923)
(-0.000437182 1.36087e-05 -0.0151359)
(-0.00174781 1.05208e-05 -0.019375)
(7.06752e-06 -1.8625e-05 -0.0286309)
(0.00111822 8.29539e-06 -0.0205166)
(-0.00065564 1.46237e-05 -0.0217405)
(-0.00213556 1.03939e-05 -0.0277574)
(5.5966e-05 -3.71962e-05 -0.0401395)
(0.00125215 4.46356e-06 -0.029198)
(-0.000873485 1.68666e-05 -0.0284232)
(-0.00253527 8.41415e-06 -0.0361601)
(0.000105605 -5.77877e-05 -0.0514666)
(0.00139818 9.25517e-07 -0.0377826)
(-0.00109011 1.85142e-05 -0.0352104)
(-0.0028953 5.21476e-06 -0.0446361)
(0.000155558 -8.17793e-05 -0.0625755)
(0.00150728 -4.2704e-06 -0.0463177)
(-0.00130317 2.02658e-05 -0.0420754)
(-0.00319903 1.02261e-06 -0.053145)
(0.000203995 -0.000108456 -0.0733952)
(0.00156597 -1.02143e-05 -0.0547734)
(-0.00150955 2.22182e-05 -0.0489696)
(-0.0034423 -3.92189e-06 -0.0616081)
(0.000248642 -0.000137365 -0.0838438)
(0.00157341 -1.67208e-05 -0.0630987)
(-0.00170576 2.43222e-05 -0.0558345)
(-0.00362572 -9.4575e-06 -0.0699312)
(0.000287255 -0.000168263 -0.0938367)
(0.00153304 -2.36614e-05 -0.0712401)
(-0.00188834 2.64884e-05 -0.062606)
(-0.00375268 -1.55887e-05 -0.0780192)
(0.000317968 -0.000200862 -0.1033)
(0.00144998 -3.08843e-05 -0.0791465)
(-0.00205427 2.86108e-05 -0.0692219)
(-0.00382897 -2.21703e-05 -0.0857929)
(0.000339491 -0.000234637 -0.11219)
(0.00133041 -3.83885e-05 -0.0867725)
(-0.00220142 3.0578e-05 -0.0756315)
(-0.00386199 -2.91314e-05 -0.0932022)
(0.00035112 -0.000269561 -0.120499)
(0.00118119 -4.5861e-05 -0.0940851)
(-0.00232863 3.24131e-05 -0.0818032)
(-0.0038607 -3.63529e-05 -0.100228)
(0.000352527 -0.000305275 -0.12825)
(0.0010095 -5.33783e-05 -0.101067)
(-0.00243569 3.4095e-05 -0.087725)
(-0.00383474 -4.36128e-05 -0.106873)
(0.000343819 -0.000341192 -0.135487)
(0.000823016 -6.07805e-05 -0.107716)
(-0.00252297 3.57042e-05 -0.0934006)
(-0.00379208 -5.09639e-05 -0.113172)
(0.000325347 -0.00037737 -0.142283)
(0.00062863 -6.78602e-05 -0.114047)
(-0.00259135 3.74817e-05 -0.0988431)
(-0.00373809 -5.81484e-05 -0.119171)
(0.000297401 -0.000413601 -0.148701)
(0.000430896 -7.48503e-05 -0.120094)
(-0.00264219 3.94914e-05 -0.104085)
(-0.00367579 -6.48668e-05 -0.124897)
(0.000260538 -0.000450033 -0.154778)
(0.000232742 -8.1378e-05 -0.125889)
(-0.00267672 4.18566e-05 -0.109163)
(-0.00360735 -7.09923e-05 -0.13037)
(0.000215482 -0.000486609 -0.160544)
(3.6156e-05 -8.74544e-05 -0.131445)
(-0.00269601 4.46661e-05 -0.1141)
(-0.00353502 -7.63307e-05 -0.13561)
(0.000162938 -0.000523072 -0.166028)
(-0.000157022 -9.30519e-05 -0.136778)
(-0.00270123 4.79571e-05 -0.118909)
(-0.00346072 -8.07294e-05 -0.140633)
(0.000103646 -0.000559478 -0.171254)
(-0.00034491 -9.80248e-05 -0.141901)
(-0.00269353 5.18824e-05 -0.123598)
(-0.00338583 -8.40845e-05 -0.145454)
(3.83586e-05 -0.000595798 -0.176246)
(-0.000526156 -0.00010239 -0.146824)
(-0.00267407 5.6517e-05 -0.128176)
(-0.00331133 -8.63411e-05 -0.150085)
(-3.21721e-05 -0.000632005 -0.181022)
(-0.00069983 -0.000106109 -0.15156)
(-0.00264397 6.1863e-05 -0.132649)
(-0.00323785 -8.75357e-05 -0.154537)
(-0.0001072 -0.000668071 -0.1856)
(-0.000865326 -0.000109174 -0.156116)
(-0.00260437 6.79177e-05 -0.137022)
(-0.00316571 -8.77769e-05 -0.158817)
(-0.000185991 -0.000703978 -0.189996)
(-0.00102233 -0.000111615 -0.160499)
(-0.00255638 7.46831e-05 -0.141297)
(-0.00309498 -8.71808e-05 -0.162934)
(-0.000267832 -0.000739699 -0.194224)
(-0.00117087 -0.000113569 -0.164715)
(-0.00250107 8.22115e-05 -0.145478)
(-0.00302555 -8.58046e-05 -0.166894)
(-0.000352016 -0.00077519 -0.198294)
(-0.00131129 -0.000115246 -0.168768)
(-0.00243942 9.06207e-05 -0.149573)
(-0.00295731 -8.36799e-05 -0.170704)
(-0.000437809 -0.000810472 -0.202215)
(-0.00144412 -0.000116777 -0.172662)
(-0.00237235 0.000100053 -0.153584)
(-0.00289006 -8.08781e-05 -0.174375)
(-0.000524421 -0.000845597 -0.20599)
(-0.00156972 -0.000118226 -0.176399)
(-0.00230072 0.000110582 -0.157511)
(-0.00282309 -7.75575e-05 -0.177923)
(-0.000611022 -0.000880631 -0.209626)
(-0.00168839 -0.000119728 -0.179983)
(-0.00222542 0.000122071 -0.161349)
(-0.00275446 -7.38902e-05 -0.18137)
(-0.000696792 -0.000915633 -0.213125)
(-0.00180079 -0.000121297 -0.183424)
(-0.00214735 0.000134125 -0.16509)
(-0.00268091 -6.98797e-05 -0.18474)
(-0.000780948 -0.000950627 -0.216492)
(-0.00190805 -0.000123142 -0.186737)
(-0.0020675 0.000146331 -0.168732)
(-0.00259933 -6.52714e-05 -0.188039)
(-0.000862733 -0.000985672 -0.21973)
(-0.00201121 -0.000124877 -0.189939)
(-0.00198687 0.000158443 -0.172273)
(-0.00250948 -5.97324e-05 -0.191245)
(-0.000941386 -0.00102072 -0.222841)
(-0.00211024 -0.000125308 -0.19305)
(-0.00190639 0.000170311 -0.175714)
(-0.00241553 -5.33915e-05 -0.194312)
(-0.00101621 -0.00105581 -0.225823)
(-0.00220511 -0.000123771 -0.196097)
(-0.00182689 0.000182252 -0.179056)
(-0.00232335 -4.69456e-05 -0.197207)
(-0.00108671 -0.0010913 -0.228676)
(-0.00229961 -0.000120548 -0.199132)
(-0.00174904 0.000193722 -0.182303)
(-0.00223582 -4.05053e-05 -0.199941)
(-0.00115259 -0.00112726 -0.231399)
(-0.00240335 -0.000116886 -0.202222)
(-0.00167349 0.00020477 -0.185465)
(-0.00215252 -3.32515e-05 -0.202557)
(-0.00121391 -0.00116357 -0.234004)
(-0.00252519 -0.00011371 -0.205395)
(-0.00160058 0.000217357 -0.18856)
(-0.002074 -2.51554e-05 -0.205083)
(-0.00127139 -0.00120004 -0.236517)
(-0.00266063 -0.000110668 -0.208565)
(-0.00152914 0.000230819 -0.191603)
(-0.00199983 -1.72783e-05 -0.207551)
(-0.00132684 -0.00123756 -0.238974)
(-0.00278416 -0.000107567 -0.211521)
(-0.00145602 0.000243939 -0.194602)
(-0.00191445 -1.11854e-05 -0.210083)
(-0.00138164 -0.001277 -0.241395)
(-0.00286698 -0.000105331 -0.214078)
(-0.00137788 0.000254301 -0.197556)
(-0.00177629 -4.47224e-06 -0.212931)
(-0.00143579 -0.00131733 -0.243783)
(-0.00289953 -0.000104022 -0.216258)
(-0.00129388 0.000260895 -0.20045)
(-0.00154103 8.14776e-06 -0.216293)
(-0.00148889 -0.00135761 -0.246131)
(-0.0028888 -0.000103191 -0.218202)
(-0.00120519 0.000266603 -0.203265)
(-0.00122678 3.50568e-05 -0.219938)
(-0.0015407 -0.00139726 -0.248437)
(-0.00285096 -0.000102805 -0.220015)
(-0.00111289 0.000271262 -0.205991)
(-0.000919509 6.85006e-05 -0.223281)
(-0.00159112 -0.00143563 -0.250697)
(-0.00279852 -0.000102737 -0.221741)
(-0.00101749 0.000274275 -0.208629)
(-0.000687311 9.56136e-05 -0.225975)
(-0.00164028 -0.0014726 -0.252914)
(-0.00273514 -0.000103193 -0.223391)
(-0.00091915 0.000276664 -0.211184)
(-0.00053041 0.000116333 -0.228186)
(-0.00168847 -0.00150837 -0.255091)
(-0.00266157 -0.00010439 -0.224967)
(-0.000818014 0.000278586 -0.213663)
(-0.000426678 0.000131891 -0.230168)
(-0.00173599 -0.00154319 -0.257231)
(-0.00257833 -0.000106267 -0.226474)
(-0.000714383 0.000280127 -0.216069)
(-0.000354774 0.000146746 -0.232043)
(-0.001783 -0.00157739 -0.259336)
(-0.00248606 -0.000108906 -0.227915)
(-0.000608702 0.000281353 -0.218403)
(-0.000306052 0.000162229 -0.233854)
(-0.00182948 -0.00161152 -0.261399)
(-0.00238544 -0.000112381 -0.229292)
(-0.000501423 0.000282405 -0.220667)
(-0.000280652 0.00017677 -0.235602)
(-0.00187515 -0.00164626 -0.263408)
(-0.00227715 -0.000116742 -0.23061)
(-0.000392964 0.000283309 -0.22286)
(-0.000276974 0.000192521 -0.237293)
(-0.00191957 -0.00168187 -0.265345)
(-0.00216206 -0.000122054 -0.231872)
(-0.000283849 0.000283906 -0.224983)
(-0.000292794 0.000209137 -0.238933)
(-0.0019622 -0.00171765 -0.267196)
(-0.00204118 -0.000128356 -0.233085)
(-0.000174821 0.000284223 -0.227029)
(-0.000323904 0.000230207 -0.240535)
(-0.00200265 -0.00175227 -0.268957)
(-0.00191539 -0.000135671 -0.234251)
(-6.65838e-05 0.000284717 -0.228995)
(-0.000375257 0.000256262 -0.242083)
(-0.00204084 -0.00178464 -0.27064)
(-0.0017855 -0.000144001 -0.235377)
(4.09544e-05 0.000286348 -0.230891)
(-0.00045486 0.00027909 -0.243522)
(-0.00207706 -0.00181514 -0.272264)
(-0.00165235 -0.000153314 -0.236466)
(0.000149245 0.000290014 -0.232751)
(-0.000544488 0.000292793 -0.245046)
(-0.00211166 -0.00184527 -0.273848)
(-0.00151681 -0.000163549 -0.23752)
(0.000260449 0.000295107 -0.23462)
(-0.000582736 0.000308135 -0.247203)
(-0.00214457 -0.00187537 -0.2754)
(-0.00137982 -0.000174689 -0.238542)
(0.000374849 0.000298581 -0.236506)
(-0.00051462 0.000350763 -0.250141)
(-0.00217514 -0.00190596 -0.276918)
(-0.00124241 -0.000186813 -0.239534)
(0.000488093 0.000298525 -0.238339)
(-0.000422643 0.000400331 -0.252752)
(-0.00220286 -0.00193517 -0.278394)
(-0.00110585 -0.000199999 -0.240497)
(0.000593136 0.000297968 -0.240013)
(-0.000380551 0.00043576 -0.254616)
(-0.00222731 -0.00196186 -0.279822)
(-0.000971739 -0.000214209 -0.241436)
(0.000687733 0.000300801 -0.241504)
(-0.000397259 0.000459784 -0.256025)
(-0.00224791 -0.00198773 -0.281201)
(-0.000841876 -0.000229324 -0.242353)
(0.00077531 0.000306878 -0.242871)
(-0.000453788 0.000480938 -0.257271)
(-0.00226545 -0.00201431 -0.28255)
(-0.000718006 -0.000245215 -0.24325)
(0.00085861 0.000313466 -0.244164)
(-0.00053688 0.000499204 -0.2585)
(-0.00228129 -0.00204376 -0.283892)
(-0.000601579 -0.000261845 -0.24413)
(0.000937494 0.000320385 -0.245395)
(-0.000645261 0.000515569 -0.259735)
(-0.00229544 -0.00207375 -0.285233)
(-0.000493728 -0.000279194 -0.244987)
(0.00101098 0.000329106 -0.246565)
(-0.000777701 0.000533617 -0.260969)
(-0.00230718 -0.00210221 -0.286576)
(-0.000395529 -0.000297118 -0.245818)
(0.00107803 0.00033989 -0.247671)
(-0.000932033 0.000554721 -0.262194)
(-0.00231522 -0.00212609 -0.287933)
(-0.000308616 -0.000315399 -0.246621)
(0.00113761 0.000352718 -0.24871)
(-0.00110581 0.000578556 -0.263403)
(-0.00231849 -0.00214518 -0.28932)
(-0.000235894 -0.000333805 -0.2474)
(0.00118868 0.00036777 -0.249679)
(-0.00129601 0.000604903 -0.264589)
(-0.00231826 -0.00216025 -0.290723)
(-0.000182018 -0.000352147 -0.248164)
(0.00123023 0.000385136 -0.250575)
(-0.00149952 0.000633935 -0.265743)
(-0.00231568 -0.002169 -0.292073)
(-0.000153593 -0.00037055 -0.248938)
(0.0012613 0.000404802 -0.251394)
(-0.00171348 0.000665831 -0.266859)
(-0.00230781 -0.00217123 -0.293339)
(-0.000159183 -0.000389018 -0.249762)
(0.00128101 0.000426635 -0.252133)
(-0.00193515 0.000700662 -0.26793)
(-0.00229302 -0.00216706 -0.294527)
(-0.000208493 -0.000407226 -0.250691)
(0.00128861 0.000450172 -0.252788)
(-0.00216125 0.000738246 -0.268953)
(-0.00227091 -0.00216184 -0.295641)
(-0.000311428 -0.000425265 -0.25179)
(0.00128349 0.000475063 -0.253355)
(-0.00238764 0.000778506 -0.269923)
(-0.00224055 -0.00215495 -0.296678)
(-0.000475775 -0.000443302 -0.253111)
(0.00126519 0.000501051 -0.25383)
(-0.00260941 0.000821314 -0.270839)
(-0.00220082 -0.0021427 -0.297628)
(-0.000688256 -0.000460302 -0.254557)
(0.00123352 0.00052249 -0.254208)
(-0.00282099 0.000861018 -0.271701)
(-0.00215082 -0.00213008 -0.298482)
(-0.000917466 -0.000482978 -0.255948)
(0.00118855 0.000548276 -0.254486)
(-0.00301595 0.00090623 -0.272511)
(-0.00208984 -0.00210738 -0.29923)
(-0.00114239 -0.000498617 -0.257217)
(0.00113055 0.000576064 -0.25466)
(-0.00318678 0.000953753 -0.273279)
(-0.0020173 -0.00207792 -0.29986)
(-0.0013462 -0.000510678 -0.258383)
(0.00106014 0.000600955 -0.25473)
(-0.00332474 0.000997666 -0.27402)
(-0.00193293 -0.00204406 -0.300362)
(-0.00151019 -0.00052453 -0.259483)
(0.000978869 0.000644456 -0.254703)
(-0.00341822 0.00105292 -0.27477)
(-0.00183735 -0.00198572 -0.300738)
(-0.00162405 -0.000499835 -0.260464)
(-0.000661761 -3.0809e-05 -0.00699942)
(0.000608066 2.14575e-05 -0.00471626)
(0.000556463 -1.68668e-05 -0.00748174)
(-0.000814823 2.95732e-05 -0.00765294)
(-0.00138177 -4.9726e-05 -0.0189646)
(0.000591802 5.38698e-05 -0.0122552)
(0.00106948 -3.62884e-05 -0.0205318)
(-0.00120046 5.65763e-05 -0.0207081)
(-0.00155572 -0.00010735 -0.0302124)
(-0.000268695 0.000106992 -0.0192179)
(0.00104013 -7.99636e-05 -0.0329018)
(-0.000731309 0.000135771 -0.0328796)
(-0.00160834 -0.000146033 -0.0417737)
(-0.00111341 0.000166023 -0.0267026)
(0.000897742 -0.000122956 -0.0454492)
(-0.0002698 0.000202212 -0.0452436)
(-0.00167293 -0.000179957 -0.0535744)
(-0.0017425 0.000223583 -0.0346663)
(0.000778335 -0.000166613 -0.0580468)
(-9.43944e-06 0.000274753 -0.0577136)
(-0.00168378 -0.000209403 -0.065264)
(-0.0022969 0.000285461 -0.0427764)
(0.000620081 -0.000212478 -0.0703692)
(0.000190965 0.000349137 -0.0699317)
(-0.00162551 -0.000234008 -0.0766674)
(-0.00280972 0.00034993 -0.0508876)
(0.000409894 -0.000259856 -0.0822673)
(0.000367297 0.000424644 -0.0817495)
(-0.00150147 -0.000253608 -0.0876711)
(-0.00327899 0.000416848 -0.0589131)
(0.000151537 -0.000308945 -0.0936533)
(0.000521792 0.000501012 -0.0930966)
(-0.00132195 -0.000269215 -0.0981916)
(-0.0036942 0.000485949 -0.0667859)
(-0.000145718 -0.000359989 -0.104462)
(0.000648606 0.000577626 -0.10393)
(-0.00110019 -0.000281451 -0.108175)
(-0.00404523 0.000557318 -0.0744491)
(-0.000470719 -0.000413244 -0.114648)
(0.000740918 0.000654686 -0.114222)
(-0.000850505 -0.000290577 -0.117607)
(-0.00432512 0.000630609 -0.081857)
(-0.000811106 -0.000468267 -0.124196)
(0.000791206 0.000731986 -0.123962)
(-0.000584313 -0.000296386 -0.126514)
(-0.0045277 0.000706693 -0.088982)
(-0.00115652 -0.000523781 -0.133126)
(0.000795291 0.000807692 -0.13317)
(-0.000307984 -0.000298169 -0.134967)
(-0.00464997 0.000784462 -0.0958152)
(-0.00150156 -0.000578735 -0.141506)
(0.000755747 0.000881661 -0.141897)
(-2.46858e-05 -0.000297411 -0.143015)
(-0.00469754 0.000862792 -0.102373)
(-0.00184349 -0.000633374 -0.149389)
(0.000680182 0.000954358 -0.150181)
(0.000264008 -0.000295432 -0.150682)
(-0.00468274 0.000943181 -0.10867)
(-0.00218102 -0.000688316 -0.156802)
(0.000578216 0.00102594 -0.158039)
(0.000555963 -0.00029215 -0.157992)
(-0.00462141 0.00102571 -0.114704)
(-0.00251267 -0.000743172 -0.163772)
(0.000456666 0.0010963 -0.165491)
(0.000848339 -0.000287813 -0.164968)
(-0.00452621 0.00111049 -0.120476)
(-0.00283621 -0.000797575 -0.170326)
(0.000319814 0.0011649 -0.172558)
(0.0011388 -0.00028292 -0.17163)
(-0.00440445 0.00119717 -0.125999)
(-0.00315004 -0.00085162 -0.176491)
(0.000171328 0.0012319 -0.179258)
(0.00142543 -0.000277672 -0.177998)
(-0.00426327 0.00128481 -0.131288)
(-0.00345301 -0.00090521 -0.18229)
(1.34579e-05 0.00129732 -0.185613)
(0.00170682 -0.000272289 -0.184089)
(-0.00411543 0.00137228 -0.136344)
(-0.00374432 -0.000958511 -0.187747)
(-0.000152538 0.00136067 -0.191649)
(0.00198234 -0.000266832 -0.189915)
(-0.00398269 0.00146018 -0.141145)
(-0.00402297 -0.00101193 -0.192882)
(-0.000323513 0.00142047 -0.197388)
(0.0022521 -0.000261802 -0.195479)
(-0.00389088 0.00155114 -0.145631)
(-0.00428731 -0.00106583 -0.197722)
(-0.000489466 0.00147541 -0.202832)
(0.00251592 -0.0002589 -0.200778)
(-0.00385494 0.00164664 -0.149752)
(-0.00453516 -0.0011198 -0.2023)
(-0.000632129 0.00152767 -0.20795)
(0.00277166 -0.000260076 -0.205814)
(-0.00386855 0.00174459 -0.153523)
(-0.00476531 -0.00117219 -0.206653)
(-0.000733076 0.00158116 -0.212684)
(0.00301412 -0.000264775 -0.210617)
(-0.00391068 0.00184176 -0.157008)
(-0.00497991 -0.00122114 -0.210809)
(-0.000788309 0.00163767 -0.217001)
(0.00323699 -0.000268123 -0.215258)
(-0.00395946 0.00193711 -0.160272)
(-0.00518507 -0.00126844 -0.21476)
(-0.000814477 0.00169494 -0.220943)
(0.00343792 -0.000261373 -0.219824)
(-0.00400222 0.00203186 -0.163355)
(-0.00538772 -0.00131969 -0.21846)
(-0.000838236 0.00174681 -0.224602)
(0.00362405 -0.000240724 -0.22435)
(-0.00403531 0.00212772 -0.166277)
(-0.00559011 -0.00138152 -0.221863)
(-0.000878858 0.00177695 -0.228056)
(0.00381165 -0.000217531 -0.228758)
(-0.00405902 0.00222538 -0.169046)
(-0.00578682 -0.00144796 -0.224981)
(-0.00093861 0.00182201 -0.231346)
(0.0040157 -0.000217809 -0.232861)
(-0.00407502 0.00232454 -0.17167)
(-0.00597027 -0.00150763 -0.227888)
(-0.0010611 0.00190166 -0.234554)
(0.00423433 -0.000252402 -0.236509)
(-0.00408471 0.00242409 -0.174158)
(-0.0061365 -0.00156 -0.230666)
(-0.00134477 0.00195608 -0.237898)
(0.00444944 -0.000292743 -0.239747)
(-0.00408877 0.00252337 -0.176523)
(-0.00628461 -0.00160965 -0.233348)
(-0.00184083 0.00193828 -0.241721)
(0.00464609 -0.000312609 -0.242752)
(-0.00408665 0.00262257 -0.178778)
(-0.00641639 -0.00166415 -0.235933)
(-0.0024703 0.00185807 -0.246034)
(0.00482338 -0.000280083 -0.245651)
(-0.00407623 0.0027245 -0.180937)
(-0.00653413 -0.00172153 -0.238425)
(-0.00295024 0.00188027 -0.249988)
(0.00499068 -0.000318007 -0.248462)
(-0.00405461 0.00283101 -0.183015)
(-0.00663994 -0.00177635 -0.240833)
(-0.00310826 0.00202579 -0.252852)
(0.00511499 -0.000430997 -0.251295)
(-0.00401776 0.00293762 -0.185029)
(-0.00673588 -0.00182973 -0.243164)
(-0.00309412 0.00212104 -0.254949)
(0.0051419 -0.000456092 -0.254471)
(-0.00396089 0.00300869 -0.186992)
(-0.00682229 -0.00188233 -0.245427)
(-0.00308096 0.00213124 -0.256858)
(0.00508382 -0.000369058 -0.258526)
(-0.00387694 0.00315801 -0.188921)
(-0.00689733 -0.0019346 -0.247624)
(-0.00312724 0.00209406 -0.258743)
(0.00498175 -0.000162675 -0.2635)
(-0.00359533 0.00338286 -0.191072)
(-0.00695973 -0.00198622 -0.249762)
(-0.00319444 0.00209531 -0.260502)
(0.00498169 -0.00021535 -0.267871)
(-0.00288614 0.0034568 -0.193975)
(-0.00701204 -0.00203687 -0.251843)
(-0.00325203 0.00212741 -0.2621)
(0.00514016 -0.000503841 -0.270751)
(-0.00171677 0.00334758 -0.198266)
(-0.00705812 -0.00208585 -0.253869)
(-0.00329799 0.00214438 -0.263549)
(0.00534216 -0.000667032 -0.272753)
(-0.000363212 0.0032821 -0.203411)
(-0.00709958 -0.00213202 -0.255844)
(-0.00332725 0.00215758 -0.264857)
(0.00551405 -0.000704246 -0.274644)
(0.000253631 0.00364789 -0.206599)
(-0.00713353 -0.00217389 -0.257771)
(-0.00333791 0.00216612 -0.266029)
(0.00563238 -0.000648177 -0.276628)
(0.000294635 0.00395807 -0.208241)
(-0.00715583 -0.00221143 -0.259648)
(-0.00333144 0.00217195 -0.267071)
(0.00572092 -0.000660818 -0.278557)
(0.000264607 0.0040559 -0.209721)