/*--------------------------------*- C++ -*----------------------------------*\
| =========                 |                                                 |
| \\      /  F ield         | OpenFOAM: The Open Source CFD Toolbox           |
|  \\    /   O peration     | Version:  v1912                                 |
|   \\  /    A nd           | Website:  www.openfoam.com                      |
|    \\/     M anipulation  |                                                 |
\*---------------------------------------------------------------------------*/
FoamFile
{
    version     2.0;
    format      ascii;
    class       volVectorField;
    location    "98";
    object      UMean;
}
// * * * * * * * * * * * * * * * * * * * * * * * * * * * * * * * * * * * * * //

dimensions      [0 1 -1 0 0 0 0];


internalField   nonuniform List<vector> 
2528
(
(4.85124e-05 -0.000234413 -0.00829296)
(-3.96371e-05 -6.15838e-06 -0.00541066)
(-5.93818e-05 4.53029e-06 -0.00773192)
(-8.09158e-05 -1.76853e-06 -0.00860149)
(0.000644487 0.000476758 -0.0226396)
(-0.000262127 -1.42025e-05 -0.0145139)
(-0.000676062 7.06369e-06 -0.0209523)
(-9.41669e-05 -1.07005e-05 -0.0236803)
(0.00160771 -0.00036471 -0.0355841)
(-0.000522569 -2.79648e-05 -0.0225731)
(-0.00165869 1.17003e-05 -0.03273)
(-6.70622e-05 -2.73216e-05 -0.0373943)
(0.0025526 0.000276445 -0.0479378)
(-0.000760042 -4.08886e-05 -0.0302851)
(-0.00262308 1.19205e-05 -0.0439566)
(-6.1363e-05 -4.96978e-05 -0.0504003)
(0.00336952 -6.4128e-05 -0.0598023)
(-0.00098489 -5.21472e-05 -0.0377658)
(-0.00346082 1.03416e-05 -0.0548014)
(-6.8175e-05 -7.78927e-05 -0.062788)
(0.00411487 3.88432e-05 -0.0710196)
(-0.00121956 -6.25355e-05 -0.0449026)
(-0.00422944 7.1508e-06 -0.0651244)
(-6.65167e-05 -0.000110934 -0.0744644)
(0.00480738 2.11455e-05 -0.0815487)
(-0.00146632 -7.16274e-05 -0.0516709)
(-0.00494824 2.52946e-06 -0.0748919)
(-5.43415e-05 -0.000148544 -0.0854331)
(0.00545253 1.9709e-05 -0.0913904)
(-0.00172255 -7.92271e-05 -0.0580762)
(-0.00562254 -3.36244e-06 -0.0841019)
(-3.34867e-05 -0.000190566 -0.0957195)
(0.00605107 1.16999e-05 -0.100551)
(-0.00198389 -8.51612e-05 -0.0641297)
(-0.00625253 -1.04226e-05 -0.0927523)
(-6.86996e-06 -0.000236805 -0.105336)
(0.00660179 6.31667e-06 -0.10904)
(-0.00224569 -8.93097e-05 -0.0698374)
(-0.00683655 -1.87531e-05 -0.100838)
(2.28723e-05 -0.000286965 -0.114289)
(0.00710301 8.34813e-07 -0.116882)
(-0.00250335 -9.16449e-05 -0.0752007)
(-0.00737195 -2.84523e-05 -0.108363)
(5.3444e-05 -0.000340734 -0.122597)
(0.00755472 -5.03059e-06 -0.124125)
(-0.00275277 -9.21511e-05 -0.080222)
(-0.00785637 -3.92471e-05 -0.115355)
(8.20827e-05 -0.000397937 -0.1303)
(0.00795942 -1.13955e-05 -0.130819)
(-0.00299056 -9.07796e-05 -0.0849111)
(-0.00829031 -5.1e-05 -0.121858)
(0.000105961 -0.000458288 -0.137443)
(0.00832114 -1.78659e-05 -0.136999)
(-0.00321396 -8.74898e-05 -0.0892859)
(-0.00867715 -6.38827e-05 -0.127914)
(0.000123381 -0.000521477 -0.144072)
(0.00864449 -2.38911e-05 -0.142699)
(-0.00342046 -8.22781e-05 -0.0933703)
(-0.00902216 -7.80944e-05 -0.133548)
(0.000133755 -0.000587277 -0.150223)
(0.00893319 -2.96706e-05 -0.14796)
(-0.00360798 -7.52019e-05 -0.0971916)
(-0.00933018 -9.34677e-05 -0.13879)
(0.000137188 -0.000655501 -0.155932)
(0.00919054 -3.5412e-05 -0.152824)
(-0.00377509 -6.62193e-05 -0.100777)
(-0.00960484 -0.000109581 -0.143673)
(0.000133594 -0.000725986 -0.161233)
(0.00941916 -4.10292e-05 -0.157329)
(-0.00392134 -5.52049e-05 -0.104154)
(-0.0098489 -0.000126317 -0.148228)
(0.000122765 -0.000798932 -0.166162)
(0.00962114 -4.64133e-05 -0.161513)
(-0.00404711 -4.2117e-05 -0.107345)
(-0.0100644 -0.000143595 -0.152486)
(0.000104757 -0.000873514 -0.170752)
(0.00979828 -5.13676e-05 -0.165413)
(-0.00415339 -2.69228e-05 -0.110373)
(-0.010253 -0.000161382 -0.15648)
(7.96733e-05 -0.000950063 -0.175034)
(0.00995233 -5.59054e-05 -0.169065)
(-0.00424176 -9.5966e-06 -0.11326)
(-0.010416 -0.000179377 -0.160241)
(4.71788e-05 -0.00102778 -0.179038)
(0.0100848 -6.01225e-05 -0.172502)
(-0.00431417 9.90816e-06 -0.116028)
(-0.0105546 -0.000197079 -0.163796)
(5.98241e-06 -0.0011045 -0.182811)
(0.0101971 -6.39702e-05 -0.175753)
(-0.00437261 3.16743e-05 -0.118692)
(-0.0106706 -0.000214414 -0.167175)
(-4.58808e-05 -0.00118385 -0.186424)
(0.010291 -6.73522e-05 -0.178844)
(-0.0044189 5.56837e-05 -0.12127)
(-0.010766 -0.000231721 -0.170395)
(-0.00010911 -0.00126838 -0.189949)
(0.0103685 -7.02016e-05 -0.181791)
(-0.00445461 8.19309e-05 -0.123774)
(-0.0108425 -0.000249456 -0.173463)
(-0.00018016 -0.00135525 -0.193392)
(0.0104315 -7.22936e-05 -0.184608)
(-0.00448088 0.000110448 -0.126216)
(-0.0109014 -0.000266905 -0.176382)
(-0.000251216 -0.0014378 -0.196625)
(0.0104816 -7.36105e-05 -0.187306)
(-0.00449854 0.00014121 -0.128603)
(-0.0109438 -0.000283266 -0.179161)
(-0.000319279 -0.00151475 -0.199541)
(0.0105198 -7.41383e-05 -0.189899)
(-0.00450811 0.000174202 -0.13094)
(-0.0109708 -0.000298502 -0.181816)
(-0.000389574 -0.00159474 -0.202222)
(0.0105471 -7.39676e-05 -0.192397)
(-0.00451001 0.000209355 -0.133232)
(-0.0109838 -0.000313161 -0.184368)
(-0.000464127 -0.00168722 -0.204778)
(0.0105644 -7.32079e-05 -0.194811)
(-0.00450454 0.000246636 -0.135481)
(-0.0109846 -0.000327737 -0.186832)
(-0.000536501 -0.00177423 -0.207233)
(0.0105727 -7.14013e-05 -0.197151)
(-0.00449197 0.000286066 -0.13769)
(-0.0109748 -0.000340801 -0.189216)
(-0.000607426 -0.00185072 -0.209647)
(0.0105732 -6.80761e-05 -0.199425)
(-0.00447249 0.000327609 -0.139861)
(-0.0109562 -0.000350414 -0.191522)
(-0.000691096 -0.00193773 -0.212178)
(0.0105671 -6.27389e-05 -0.201635)
(-0.00444621 0.000371242 -0.141997)
(-0.0109295 -0.000371667 -0.193745)
(-0.000797174 -0.00203537 -0.214954)
(0.0105557 -6.81199e-05 -0.203782)
(-0.00441337 0.000416941 -0.144098)
(-0.0108756 -0.000396115 -0.195967)
(-0.000911739 -0.00213484 -0.217718)
(0.0105383 -7.17693e-05 -0.205853)
(-0.00437422 0.000464684 -0.146167)
(-0.0107686 -0.000396998 -0.198393)
(-0.000993555 -0.0022088 -0.219781)
(0.0104938 -6.14887e-05 -0.207946)
(-0.00432864 0.000514287 -0.148204)
(-0.0106231 -0.000377985 -0.201195)
(-0.0010507 -0.00227954 -0.221366)
(0.0103936 -4.67501e-05 -0.210363)
(-0.00427629 0.000566222 -0.150212)
(-0.0104988 -0.000367659 -0.204153)
(-0.00110615 -0.00236156 -0.222886)
(0.0102531 -1.54158e-05 -0.213413)
(-0.00421663 0.000618716 -0.152191)
(-0.0104598 -0.000401614 -0.206516)
(-0.00116765 -0.00245697 -0.224427)
(0.0101383 -1.44137e-05 -0.216864)
(-0.00414988 0.000670988 -0.154144)
(-0.0104528 -0.00043556 -0.208303)
(-0.00123022 -0.00254688 -0.22589)
(0.0101328 -3.74143e-05 -0.219492)
(-0.00407676 0.000726387 -0.156067)
(-0.0104171 -0.000446454 -0.20995)
(-0.00128964 -0.00262845 -0.22723)
(0.0101733 -3.46791e-05 -0.221239)
(-0.00399799 0.000790683 -0.157963)
(-0.0103381 -0.000432602 -0.211622)
(-0.00134667 -0.00271462 -0.228454)
(0.0101838 -2.50133e-05 -0.222763)
(-0.00390911 0.000870526 -0.159829)
(-0.0102393 -0.000428094 -0.213238)
(-0.00140216 -0.00280165 -0.229574)
(0.0101429 -6.61119e-07 -0.224364)
(-0.00378738 0.000944306 -0.161748)
(-0.0101381 -0.000433359 -0.214753)
(-0.00145687 -0.0028896 -0.230601)
(0.010077 1.15475e-05 -0.225975)
(-0.00360938 0.000988091 -0.164003)
(-0.0100358 -0.000437312 -0.216164)
(-0.0015112 -0.00297785 -0.231542)
(0.0100079 1.27699e-05 -0.227528)
(-0.00339942 0.00101484 -0.166983)
(-0.00990811 -0.000447204 -0.217672)
(-0.00156498 -0.00306628 -0.232399)
(0.00993521 2.19178e-05 -0.229016)
(-0.00323716 0.00107074 -0.170679)
(-0.00969843 -0.000445894 -0.219749)
(-0.00161772 -0.00315484 -0.233175)
(0.00985774 2.99572e-05 -0.230443)
(-0.00319969 0.00118858 -0.173606)
(-0.00937837 -0.000430981 -0.222729)
(-0.00166906 -0.00324316 -0.233874)
(0.00977615 3.45006e-05 -0.231804)
(-0.00320143 0.00128534 -0.17539)
(-0.00900011 -0.000411854 -0.226169)
(-0.00171882 -0.00333083 -0.234496)
(0.00969288 4.78777e-05 -0.233081)
(-0.00317359 0.00134663 -0.176822)
(-0.00878424 -0.000420755 -0.227942)
(-0.00176726 -0.00341801 -0.235046)
(0.00958279 6.67667e-05 -0.234484)
(-0.00309383 0.00138111 -0.178346)
(-0.00868336 -0.000436077 -0.228508)
(-0.00181476 -0.00350519 -0.235529)
(0.00938088 8.28372e-05 -0.236573)
(-0.00299597 0.00143021 -0.179912)
(-0.00856832 -0.000435541 -0.229084)
(-0.00186127 -0.00359057 -0.235947)
(0.00903715 0.000104736 -0.239809)
(-0.00289859 0.00151122 -0.181411)
(-0.00840039 -0.000420779 -0.229977)
(-0.00190647 -0.00367914 -0.236308)
(0.0085951 0.000102232 -0.243812)
(-0.00279417 0.00162237 -0.182877)
(-0.00820691 -0.000409223 -0.230957)
(-0.00194708 -0.00377897 -0.236606)
(0.00835878 7.88529e-05 -0.245725)
(-0.00268388 0.00172635 -0.18445)
(-0.00801018 -0.000406083 -0.231853)
(-0.00198141 -0.00387752 -0.236812)
(0.00828759 5.44334e-05 -0.246258)
(-0.00257493 0.00174858 -0.186176)
(-0.0077973 -0.000408342 -0.232754)
(-0.00201866 -0.0039503 -0.236918)
(0.00822888 0.000109358 -0.24702)
(-0.00245088 0.00176439 -0.18793)
(-0.00753523 -0.000405201 -0.233956)
(-0.0020717 -0.00398761 -0.237028)
(0.00812531 0.000172003 -0.248148)
(-0.00227828 0.00183836 -0.189956)
(-0.00720345 -0.000380621 -0.235701)
(-0.00212946 -0.00404546 -0.237389)
(0.00799518 0.000174399 -0.249253)
(-0.00203433 0.00193637 -0.192765)
(-0.006797 -0.000340478 -0.237907)
(-0.00216236 -0.00419756 -0.237974)
(0.00783745 0.000151535 -0.250182)
(-0.00171645 0.00199277 -0.196784)
(-0.00645665 -0.000350154 -0.239197)
(-0.00219736 -0.00432701 -0.238307)
(0.00766093 0.000146182 -0.250985)
(-0.00136781 0.00200731 -0.201201)
(-0.0062085 -0.000346436 -0.239735)
(-0.00224898 -0.00438911 -0.238373)
(0.00747948 0.000146858 -0.251693)
(-0.0011912 0.0020881 -0.204023)
(-0.00597705 -0.000338283 -0.240438)
(-0.00229112 -0.00444771 -0.238265)
(0.00729237 0.000142479 -0.252311)
(-0.00115966 0.00218989 -0.205529)
(-0.00571992 -0.000339528 -0.241362)
(-0.0023207 -0.00453042 -0.238077)
(0.00709822 0.000136846 -0.252843)
(-0.0011312 0.00225217 -0.20675)
(-0.00544389 -0.000320897 -0.242129)
(-0.00234856 -0.00461123 -0.237842)
(0.00689621 0.000130398 -0.253297)
(-0.00104261 0.00229416 -0.208126)
(-0.00515107 -0.000305376 -0.242667)
(-0.00237343 -0.00468954 -0.237557)
(0.00668556 0.000121882 -0.253684)
(-0.000915868 0.00232865 -0.209491)
(-0.00483968 -0.000300995 -0.243148)
(-0.00239463 -0.00476705 -0.237223)
(0.00646528 0.000110738 -0.254009)
(-0.00079207 0.00235101 -0.210732)
(-0.00450625 -0.000291887 -0.243702)
(-0.00241143 -0.00484334 -0.236841)
(0.00623409 9.75242e-05 -0.254282)
(-0.000667662 0.00239318 -0.211847)
(-0.00415189 -0.000277625 -0.244282)
(-0.00242292 -0.00491819 -0.236411)
(0.00599093 8.31874e-05 -0.25451)
(-0.000521311 0.00250656 -0.212915)
(-0.00378913 -0.000269476 -0.244759)
(-0.00242828 -0.00499177 -0.235939)
(0.00573578 6.80596e-05 -0.254696)
(-0.000365049 0.00263114 -0.214181)
(-0.00342023 -0.000260872 -0.245124)
(-0.00242672 -0.00506379 -0.235425)
(0.00546981 5.15898e-05 -0.254845)
(-0.000231437 0.0025822 -0.215822)
(-0.00303995 -0.000243039 -0.245428)
(-0.00241718 -0.00513362 -0.234872)
(0.0051936 3.31378e-05 -0.254958)
(-8.35432e-05 0.00252798 -0.217383)
(-0.00265065 -0.00022509 -0.245666)
(-0.00239869 -0.00520062 -0.234279)
(0.00490661 1.2638e-05 -0.255039)
(9.62885e-05 0.00256858 -0.218761)
(-0.00225129 -0.000209728 -0.245848)
(-0.00237037 -0.00526423 -0.233644)
(0.00460746 -9.31517e-06 -0.255086)
(0.000282293 0.00262258 -0.220001)
(-0.00183395 -0.000191502 -0.246066)
(-0.00233113 -0.00532336 -0.232962)
(0.00429564 -3.23263e-05 -0.255095)
(0.000464863 0.00264238 -0.221124)
(-0.00139751 -0.000175387 -0.246366)
(-0.00227964 -0.00538526 -0.232219)
(0.00397202 -5.65359e-05 -0.255056)
(0.000647576 0.00265396 -0.22217)
(-0.000944505 -0.000155576 -0.246709)
(-0.00222079 -0.00544286 -0.231482)
(0.00362797 -8.15642e-05 -0.255025)
(0.000850052 0.00266072 -0.223312)
(-0.000479861 -0.000130093 -0.247046)
(-0.00217942 -0.00547034 -0.231017)
(0.00323312 -0.00010532 -0.255209)
(0.0010811 0.00263376 -0.224966)
(-6.81453e-06 -0.000107335 -0.247345)
(-0.00216435 -0.00550904 -0.230931)
(0.00275295 -0.000132714 -0.25578)
(0.00130718 0.00260199 -0.227397)
(0.000474752 -8.0749e-05 -0.247544)
(-0.0021337 -0.00556712 -0.23036)
(0.00220644 -0.000162757 -0.256451)
(0.00159861 0.00267838 -0.231226)
(0.000968662 -6.53321e-05 -0.247758)
(-0.00197885 -0.00559051 -0.226611)
(-0.000117139 -4.84011e-06 -0.00314876)
(-0.000266814 1.09375e-06 -0.00282386)
(6.42035e-05 -6.57002e-06 -0.0051595)
(0.000215042 1.70082e-06 -0.00416354)
(-0.00029721 -1.3295e-05 -0.0090953)
(-0.000608132 2.37772e-06 -0.00870648)
(0.000139834 -1.74346e-05 -0.0148751)
(0.000453871 2.50294e-06 -0.0124113)
(-0.000395522 -2.79988e-05 -0.0149934)
(-0.000710243 8.98623e-07 -0.0149484)
(0.000134419 -3.61607e-05 -0.0243981)
(0.000453912 3.7369e-06 -0.0207316)
(-0.000469654 -4.26399e-05 -0.0211281)
(-0.000740059 1.15353e-06 -0.0214591)
(0.000106375 -5.64251e-05 -0.0340114)
(0.000383488 5.57067e-06 -0.0291649)
(-0.000550857 -5.83249e-05 -0.0274932)
(-0.000780133 -1.55189e-06 -0.0281269)
(8.70613e-05 -7.60805e-05 -0.0436642)
(0.000325188 5.36331e-06 -0.0376325)
(-0.000631493 -7.48463e-05 -0.0339768)
(-0.000812539 -4.68306e-06 -0.0348943)
(6.94903e-05 -9.64639e-05 -0.0532056)
(0.000262095 4.94396e-06 -0.0460381)
(-0.000707473 -9.18593e-05 -0.040499)
(-0.000830757 -8.30388e-06 -0.0417024)
(5.02324e-05 -0.000116944 -0.0625297)
(0.000188684 4.39269e-06 -0.0543063)
(-0.000776374 -0.00010904 -0.0469901)
(-0.000832946 -1.21319e-05 -0.0484843)
(2.75671e-05 -0.000137241 -0.0715441)
(0.000104012 3.81352e-06 -0.06237)
(-0.00083663 -0.000126209 -0.0533844)
(-0.00081951 -1.57941e-05 -0.0551672)
(7.30007e-07 -0.00015713 -0.0801637)
(9.09989e-06 3.46768e-06 -0.0701667)
(-0.000887289 -0.000143201 -0.0596195)
(-0.000792244 -1.90113e-05 -0.0616785)
(-3.03913e-05 -0.000176356 -0.0883208)
(-9.40496e-05 3.52645e-06 -0.0776412)
(-0.000927987 -0.00015986 -0.0656429)
(-0.000753891 -2.15412e-05 -0.0679572)
(-6.5266e-05 -0.000194727 -0.0959807)
(-0.000202947 4.10248e-06 -0.0847546)
(-0.000959026 -0.000176159 -0.0714194)
(-0.000707706 -2.31708e-05 -0.0739638)
(-0.000103063 -0.000211941 -0.103145)
(-0.000314735 5.39605e-06 -0.0914901)
(-0.000981404 -0.000191962 -0.0769344)
(-0.000657274 -2.37046e-05 -0.0796826)
(-0.000143284 -0.0002277 -0.109842)
(-0.000426768 7.27954e-06 -0.0978518)
(-0.000996187 -0.000207071 -0.0821915)
(-0.000605836 -2.31344e-05 -0.0851173)
(-0.000185841 -0.000241851 -0.116125)
(-0.000537139 9.65218e-06 -0.103867)
(-0.00100393 -0.000221388 -0.0872093)
(-0.000555635 -2.14811e-05 -0.0902953)
(-0.000230749 -0.00025441 -0.122051)
(-0.000644305 1.26483e-05 -0.109575)
(-0.00100495 -0.000234891 -0.0920085)
(-0.000508156 -1.85377e-05 -0.0952518)
(-0.000277869 -0.000265462 -0.127659)
(-0.000747428 1.63818e-05 -0.115007)
(-0.0009996 -0.000247652 -0.0966086)
(-0.000463903 -1.40346e-05 -0.10001)
(-0.000326928 -0.000275016 -0.13298)
(-0.00084636 2.10774e-05 -0.120185)
(-0.000988464 -0.000259544 -0.101029)
(-0.000422893 -7.81107e-06 -0.104585)
(-0.000377656 -0.000283037 -0.138039)
(-0.00094089 2.66981e-05 -0.125128)
(-0.000972341 -0.000270445 -0.105287)
(-0.00038537 1.23437e-07 -0.10899)
(-0.000429793 -0.000289483 -0.142858)
(-0.00103065 3.31682e-05 -0.129853)
(-0.000951952 -0.000280323 -0.109393)
(-0.000351623 9.73216e-06 -0.113236)
(-0.000483068 -0.000294336 -0.147459)
(-0.00111533 4.04649e-05 -0.134374)
(-0.000927843 -0.000289202 -0.113356)
(-0.000321801 2.1006e-05 -0.117337)
(-0.000537207 -0.00029758 -0.151858)
(-0.00119476 4.85172e-05 -0.138707)
(-0.00090049 -0.00029716 -0.117186)
(-0.000295926 3.39578e-05 -0.121302)
(-0.000591959 -0.000299269 -0.156071)
(-0.0012689 5.73102e-05 -0.142863)
(-0.000870295 -0.000304261 -0.120887)
(-0.000273987 4.87255e-05 -0.125139)
(-0.000647095 -0.000299498 -0.160109)
(-0.00133768 6.69124e-05 -0.14685)
(-0.000837637 -0.000310579 -0.124468)
(-0.000256058 6.54616e-05 -0.12885)
(-0.000702419 -0.000298369 -0.163986)
(-0.00140093 7.72915e-05 -0.150672)
(-0.000802965 -0.000316202 -0.127933)
(-0.000242324 8.41963e-05 -0.132439)
(-0.000757748 -0.000296001 -0.167711)
(-0.0014585 8.81558e-05 -0.154333)
(-0.000766951 -0.000321187 -0.131289)
(-0.000232905 0.000104837 -0.135907)
(-0.00081288 -0.000292523 -0.171295)
(-0.00151044 9.95804e-05 -0.157836)
(-0.000730489 -0.000325519 -0.134546)
(-0.000227698 0.000127127 -0.139258)
(-0.000867549 -0.000288112 -0.174747)
(-0.0015569 0.000111339 -0.161186)
(-0.00069446 -0.000329028 -0.137719)
(-0.000226399 0.000150794 -0.142499)
(-0.000921364 -0.000282957 -0.178075)
(-0.00159809 0.000123766 -0.16439)
(-0.000659213 -0.000331514 -0.140815)
(-0.000228684 0.000175578 -0.145637)
(-0.000973813 -0.000277142 -0.181289)
(-0.00163414 0.000137218 -0.167465)
(-0.000624104 -0.000333062 -0.143833)
(-0.000234189 0.000201334 -0.148687)
(-0.00102443 -0.000270585 -0.1844)
(-0.00166515 0.000150443 -0.170439)
(-0.00058744 -0.000334394 -0.146757)
(-0.000242452 0.000228159 -0.151663)
(-0.00107306 -0.000263095 -0.187415)
(-0.00169226 0.000162096 -0.173351)
(-0.0005478 -0.000337237 -0.149563)
(-0.000253044 0.000256483 -0.154576)
(-0.00112028 -0.000254473 -0.190334)
(-0.00171654 0.000171542 -0.176232)
(-0.000506089 -0.000341082 -0.152252)
(-0.000265902 0.000286555 -0.157425)
(-0.00116743 -0.000244542 -0.193147)
(-0.00173778 0.000180285 -0.179075)
(-0.000464758 -0.000342944 -0.154847)
(-0.00028128 0.000317568 -0.1602)
(-0.00121592 -0.000236991 -0.195837)
(-0.00175522 0.000191656 -0.181826)
(-0.000425715 -0.000344334 -0.157372)
(-0.000299467 0.000349155 -0.16289)
(-0.00126504 -0.000230771 -0.198394)
(-0.00176824 0.00020726 -0.184437)
(-0.000392041 -0.0003464 -0.159838)
(-0.000321413 0.000381841 -0.165487)
(-0.00131237 -0.000223044 -0.200829)
(-0.00177873 0.000223845 -0.186905)
(-0.000367715 -0.000346177 -0.162273)
(-0.000348018 0.000415121 -0.168008)
(-0.00135597 -0.000217495 -0.203173)
(-0.00178987 0.000237754 -0.189258)
(-0.000352905 -0.000342405 -0.164736)
(-0.000378517 0.000447498 -0.170493)
(-0.00139341 -0.000210184 -0.20546)
(-0.00180103 0.000249372 -0.191506)
(-0.000342284 -0.000335888 -0.167214)
(-0.000412453 0.000478294 -0.172998)
(-0.00142407 -0.00019851 -0.20772)
(-0.00180665 0.000260337 -0.193625)
(-0.000322383 -0.000337757 -0.169537)
(-0.000449433 0.000509343 -0.175544)
(-0.00145061 -0.000183682 -0.209971)
(-0.00180184 0.000270886 -0.195593)
(-0.000286251 -0.000349191 -0.171589)
(-0.000485704 0.000545197 -0.178089)
(-0.00147822 -0.000168543 -0.212161)
(-0.00178521 0.000285301 -0.197428)
(-0.000243118 -0.00035836 -0.173461)
(-0.000514415 0.000587942 -0.180573)
(-0.00151174 -0.000165516 -0.214197)
(-0.00175645 0.00030145 -0.199172)
(-0.000203191 -0.000361996 -0.175281)
(-0.000532767 0.000634452 -0.182944)
(-0.00154937 -0.000168617 -0.216063)
(-0.00172006 0.000309075 -0.200866)
(-0.00016951 -0.000361772 -0.177084)
(-0.000549332 0.000679006 -0.185164)
(-0.00158543 -0.000165164 -0.217829)
(-0.00168075 0.000312368 -0.202532)
(-0.000138378 -0.00036069 -0.178839)
(-0.000577144 0.000718811 -0.187226)
(-0.00161723 -0.000155544 -0.219553)
(-0.00163289 0.000318481 -0.204135)
(-0.000105628 -0.000367485 -0.180528)
(-0.000620203 0.000755831 -0.189159)
(-0.00164541 -0.000144043 -0.221246)
(-0.0015759 0.000332816 -0.20561)
(-7.6653e-05 -0.000379546 -0.182213)
(-0.000675023 0.000791512 -0.191002)
(-0.00167204 -0.000139543 -0.22289)
(-0.001519 0.000347852 -0.207014)
(-6.13845e-05 -0.000382855 -0.184033)
(-0.000737441 0.000826996 -0.192782)
(-0.00169745 -0.00014181 -0.224484)
(-0.00146351 0.000352998 -0.208427)
(-6.03565e-05 -0.000374435 -0.186104)
(-0.000805872 0.000863298 -0.194522)
(-0.00172025 -0.000145453 -0.226036)
(-0.00140653 0.000355205 -0.209811)
(-6.38288e-05 -0.000362166 -0.188302)
(-0.000880443 0.000900481 -0.196239)
(-0.0017409 -0.000149903 -0.227541)
(-0.00134743 0.000364134 -0.211076)
(-4.24424e-05 -0.000375682 -0.190054)
(-0.000962394 0.000938317 -0.197936)
(-0.00176022 -0.000154159 -0.228992)
(-0.00128566 0.00037579 -0.212211)
(2.76696e-06 -0.000400517 -0.191336)
(-0.00105594 0.000977859 -0.199602)
(-0.00177808 -0.000158309 -0.230396)
(-0.0012195 0.000384161 -0.213262)
(4.98788e-05 -0.000417152 -0.192479)
(-0.00115995 0.00101918 -0.20127)
(-0.00179399 -0.000162882 -0.231755)
(-0.00114778 0.000388313 -0.214265)
(8.6837e-05 -0.000426062 -0.193648)
(-0.00126906 0.0010555 -0.203018)
(-0.00180795 -0.000168442 -0.233068)
(-0.00107006 0.000389645 -0.215235)
(0.000115447 -0.000435105 -0.194827)
(-0.00139117 0.00108707 -0.204896)
(-0.0018205 -0.0001751 -0.234327)
(-0.00098688 0.000391505 -0.216173)
(0.0001398 -0.000447693 -0.195976)
(-0.00153759 0.00112316 -0.206836)
(-0.00183261 -0.00018318 -0.23552)
(-0.000899151 0.000394518 -0.217074)
(0.000160866 -0.000459673 -0.197101)
(-0.00169445 0.00116339 -0.208718)
(-0.00184477 -0.000193844 -0.236644)
(-0.00080711 0.000396698 -0.217936)
(0.000178765 -0.000470612 -0.198207)
(-0.0018339 0.00120528 -0.210503)
(-0.00185564 -0.00020866 -0.237707)
(-0.000710593 0.000396912 -0.218755)
(0.000192949 -0.000481503 -0.199282)
(-0.00195836 0.00123829 -0.2121)
(-0.00186193 -0.000226681 -0.23873)
(-0.000609998 0.000395265 -0.219535)
(0.000202394 -0.000491802 -0.200306)
(-0.00208387 0.00125944 -0.213533)
(-0.00186248 -0.000246556 -0.23972)
(-0.000505594 0.000391499 -0.220276)
(0.000207057 -0.000500895 -0.201273)
(-0.00221363 0.00127602 -0.214895)
(-0.00185727 -0.000267777 -0.240677)
(-0.000396867 0.000385436 -0.220974)
(0.00020801 -0.00050882 -0.202189)
(-0.00234043 0.00129219 -0.216235)
(-0.00184648 -0.000290583 -0.241603)
(-0.000283355 0.000378734 -0.221628)
(0.000206174 -0.000516001 -0.203062)
(-0.00245775 0.00131018 -0.217564)
(-0.00183042 -0.000315741 -0.242501)
(-0.000166646 0.00036882 -0.22224)
(0.000201796 -0.000522534 -0.203899)
(-0.00256415 0.00133152 -0.218874)
(-0.00180924 -0.000342989 -0.243373)
(-4.7399e-05 0.000354108 -0.222803)
(0.000194963 -0.000528218 -0.204705)
(-0.00265818 0.00135105 -0.220169)
(-0.00178303 -0.000371886 -0.244216)
(7.48056e-05 0.00033768 -0.223319)
(0.000185864 -0.000533014 -0.205488)
(-0.00273879 0.00136401 -0.221456)
(-0.00175197 -0.000402296 -0.245032)
(0.000199116 0.000321702 -0.2238)
(0.000174688 -0.000537129 -0.206257)
(-0.00280887 0.00137635 -0.222701)
(-0.00171608 -0.000434548 -0.245824)
(0.000324635 0.000304548 -0.224238)
(0.00016144 -0.000540695 -0.207023)
(-0.00287182 0.00139575 -0.223846)
(-0.00167543 -0.000468481 -0.246592)
(0.000450611 0.000287093 -0.22463)
(0.000145743 -0.000543723 -0.207794)
(-0.00292758 0.00141742 -0.224883)
(-0.00163036 -0.000503616 -0.247323)
(0.000575709 0.000269572 -0.224968)
(0.000126732 -0.000546371 -0.208573)
(-0.00297508 0.00143367 -0.225854)
(-0.00158087 -0.000539994 -0.248004)
(0.000697906 0.000251533 -0.225247)
(0.000103041 -0.000548655 -0.209356)
(-0.00301335 0.00144459 -0.226797)
(-0.00152718 -0.000577531 -0.248633)
(0.000814558 0.00023109 -0.225467)
(7.27823e-05 -0.000550749 -0.210144)
(-0.00304151 0.00145423 -0.227715)
(-0.00146998 -0.000616812 -0.249205)
(0.000922956 0.000208442 -0.225628)
(3.38156e-05 -0.000553021 -0.210945)
(-0.00305866 0.00146258 -0.228594)
(-0.00141029 -0.000657617 -0.249714)
(0.00102039 0.000180452 -0.225729)
(-1.59032e-05 -0.000555551 -0.211765)
(-0.00306464 0.00146925 -0.229418)
(-0.00134897 -0.000699454 -0.250151)
(0.00110304 0.000144222 -0.225766)
(-7.81087e-05 -0.00055672 -0.212601)
(-0.00305979 0.00147602 -0.230168)
(-0.00128632 -0.00074169 -0.250513)
(0.0011632 0.000100651 -0.225757)
(-0.000154258 -0.000560155 -0.213431)
(-0.00304459 0.00147876 -0.230826)
(-0.00122221 -0.000786794 -0.250797)
(0.0011929 4.60867e-05 -0.225725)
(-0.000245247 -0.000565005 -0.214225)
(-0.00301993 0.00147974 -0.231369)
(-0.00115645 -0.000832866 -0.251002)
(0.00118852 -1.35712e-05 -0.225665)
(-0.00035167 -0.000572771 -0.214951)
(-0.00298649 0.0014777 -0.231766)
(-0.00108876 -0.000877486 -0.251126)
(0.00115796 -7.32243e-05 -0.225532)
(-0.000475961 -0.000586049 -0.215581)
(-0.00294372 0.00145659 -0.232)
(-0.0010168 -0.000918906 -0.251154)
(0.00112381 -0.000136024 -0.225245)
(0.000427327 -6.34967e-06 -0.00454746)
(-0.000121874 5.96026e-06 -0.00205078)
(-0.00044413 -6.92375e-06 -0.00397854)
(-1.53547e-05 5.04928e-06 -0.00523225)
(0.00122947 -8.59174e-06 -0.0151818)
(-0.000267629 2.1069e-05 -0.00762869)
(-0.00128304 -1.13763e-05 -0.013566)
(-0.000140426 1.10146e-05 -0.0168879)
(0.00192953 -1.85402e-05 -0.0266264)
(-0.000448538 4.85578e-05 -0.0140747)
(-0.00202306 -2.55021e-05 -0.0240954)
(-0.000227827 2.42253e-05 -0.029099)
(0.00256241 -2.1503e-05 -0.0379776)
(-0.000668816 8.35995e-05 -0.0206681)
(-0.00269767 -3.27201e-05 -0.0346141)
(-0.000274493 3.46143e-05 -0.0411195)
(0.00316572 -2.26647e-05 -0.0490182)
(-0.00089149 0.00012355 -0.027257)
(-0.00334467 -4.04742e-05 -0.0448732)
(-0.000315193 4.42393e-05 -0.0527671)
(0.00374006 -2.13813e-05 -0.0598106)
(-0.00110446 0.000169365 -0.0339294)
(-0.00396388 -4.71551e-05 -0.0549462)
(-0.00036029 5.24047e-05 -0.0640797)
(0.0042825 -1.82642e-05 -0.0703228)
(-0.00130217 0.00022038 -0.0406843)
(-0.00455173 -5.32999e-05 -0.0648104)
(-0.000413768 5.88002e-05 -0.0750314)
(0.00479007 -1.33617e-05 -0.0804862)
(-0.00148229 0.00027614 -0.0474751)
(-0.00510485 -5.91259e-05 -0.0744053)
(-0.000476658 6.34461e-05 -0.0855768)
(0.00526059 -7.07738e-06 -0.0902241)
(-0.00164418 0.000336137 -0.0542386)
(-0.00562082 -6.44859e-05 -0.0836627)
(-0.000548626 6.61593e-05 -0.0956685)
(0.00569322 4.41423e-07 -0.099474)
(-0.00178797 0.000400181 -0.0609099)
(-0.00609827 -6.95349e-05 -0.0925231)
(-0.000628346 6.69875e-05 -0.105265)
(0.0060887 9.04145e-06 -0.1082)
(-0.00191404 0.000467724 -0.0674322)
(-0.00653718 -7.4196e-05 -0.100944)
(-0.000713847 6.60996e-05 -0.114339)
(0.00644998 1.80874e-05 -0.116399)
(-0.00202394 0.000538539 -0.0737609)
(-0.00693954 -7.8549e-05 -0.108911)
(-0.00080289 6.29663e-05 -0.122906)
(0.00678153 2.83749e-05 -0.12411)
(-0.00211932 0.000612672 -0.079863)
(-0.00730909 -8.25124e-05 -0.116446)
(-0.000893374 5.75841e-05 -0.131005)
(0.00708755 4.03749e-05 -0.131371)
(-0.00220215 0.000689436 -0.0857257)
(-0.00764936 -8.54697e-05 -0.123578)
(-0.000984122 5.02736e-05 -0.138661)
(0.00737113 5.34368e-05 -0.138209)
(-0.00227472 0.00076892 -0.091359)
(-0.00796277 -8.77142e-05 -0.130326)
(-0.00107488 4.13959e-05 -0.145897)
(0.00763431 6.66096e-05 -0.144649)
(-0.00233681 0.000850916 -0.0967763)
(-0.00825115 -8.95101e-05 -0.136703)
(-0.00116685 3.10454e-05 -0.152733)
(0.00787816 7.87783e-05 -0.150726)
(-0.00239048 0.000935076 -0.101977)
(-0.00851629 -9.11366e-05 -0.142721)
(-0.0012611 1.81055e-05 -0.159188)
(0.00810243 8.94127e-05 -0.156485)
(-0.00244125 0.00102115 -0.106946)
(-0.00875983 -9.34192e-05 -0.148403)
(-0.001353 9.60056e-07 -0.165258)
(0.00830608 0.000102611 -0.16196)
(-0.00249668 0.00110821 -0.111667)
(-0.00898206 -9.7131e-05 -0.15379)
(-0.00143083 -1.96658e-05 -0.17092)
(0.0084907 0.000119388 -0.167144)
(-0.00256717 0.00119687 -0.11613)
(-0.00918158 -0.000101438 -0.158921)
(-0.00148514 -4.01688e-05 -0.176177)
(0.00865929 0.00013496 -0.171993)
(-0.00265411 0.00128905 -0.120355)
(-0.00935773 -0.000103342 -0.163809)
(-0.00152124 -5.76909e-05 -0.181094)
(0.00881473 0.000148357 -0.176509)
(-0.00274247 0.00138673 -0.124413)
(-0.00951227 -0.000103013 -0.168421)
(-0.00156388 -7.4164e-05 -0.185786)
(0.00895903 0.000160211 -0.180735)
(-0.00280146 0.00148646 -0.128414)
(-0.00964733 -0.0001033 -0.172723)
(-0.00163924 -9.96807e-05 -0.19034)
(0.00909038 0.000174734 -0.184722)
(-0.00281656 0.00158052 -0.132395)
(-0.00976453 -0.000105926 -0.176744)
(-0.00173584 -0.000135674 -0.194688)
(0.00920559 0.000192963 -0.188512)
(-0.00281579 0.00167128 -0.13621)
(-0.00986526 -0.000111636 -0.18053)
(-0.00181842 -0.000170696 -0.198676)
(0.0093032 0.000203982 -0.19214)
(-0.00283282 0.00176827 -0.139712)
(-0.00995028 -0.000118365 -0.184091)
(-0.00186849 -0.000200372 -0.202278)
(0.00938508 0.000208293 -0.195608)
(-0.00288086 0.00187174 -0.142894)
(-0.0100223 -0.000127835 -0.187404)
(-0.00188938 -0.000227931 -0.205576)
(0.00945537 0.000219367 -0.198882)
(-0.00294736 0.00197283 -0.145828)
(-0.010087 -0.000140686 -0.190446)
(-0.00190436 -0.000265729 -0.208651)
(0.00951849 0.000226473 -0.201945)
(-0.0030119 0.00206803 -0.148598)
(-0.0101467 -0.000150655 -0.19322)
(-0.00191653 -0.000315092 -0.211527)
(0.0095829 0.000239444 -0.204773)
(-0.003072 0.00216351 -0.15126)
(-0.0101981 -0.000151502 -0.195798)
(-0.00190158 -0.000362287 -0.21416)
(0.00965871 0.000256817 -0.207278)
(-0.0031305 0.00226784 -0.153838)
(-0.0102368 -0.000134582 -0.198301)
(-0.0018633 -0.000397669 -0.216554)
(0.00974534 0.000268108 -0.209432)
(-0.00318345 0.00237941 -0.15631)
(-0.0102608 -0.00012521 -0.200804)
(-0.00186324 -0.000415515 -0.218936)
(0.00982117 0.000270983 -0.211512)
(-0.00322717 0.00248638 -0.15863)
(-0.0102735 -0.000157403 -0.203246)
(-0.00201224 -0.000453123 -0.221709)
(0.00984301 0.000262216 -0.214148)
(-0.00325821 0.00259296 -0.160794)
(-0.0102716 -0.000225096 -0.205584)
(-0.00229037 -0.000541278 -0.224798)
(0.00980695 0.000274061 -0.217477)
(-0.00326828 0.00269667 -0.162828)
(-0.0102338 -0.000267082 -0.208124)
(-0.00251661 -0.00061354 -0.227387)
(0.00974519 0.000271542 -0.220489)
(-0.00329026 0.00278257 -0.164697)
(-0.0101639 -0.000230992 -0.210991)
(-0.00263955 -0.000659388 -0.229335)
(0.00967204 0.000276619 -0.222924)
(-0.00336944 0.00285146 -0.166346)
(-0.0100842 -0.000204452 -0.213519)
(-0.0026674 -0.000695983 -0.23089)
(0.00961099 0.000291533 -0.225063)
(-0.00347489 0.00297261 -0.167948)
(-0.00999959 -0.000218404 -0.215556)
(-0.00267144 -0.00075317 -0.232275)
(0.00955084 0.000326775 -0.227182)
(-0.0034496 0.00315996 -0.170023)
(-0.00992358 -0.0002527 -0.217267)
(-0.00269215 -0.000817474 -0.233549)
(0.00949408 0.000326157 -0.229164)
(-0.00314486 0.0032575 -0.172999)
(-0.00984625 -0.000270791 -0.218848)
(-0.0027221 -0.000876955 -0.234703)
(0.00945069 0.000284757 -0.23087)
(-0.00269334 0.00327507 -0.176181)
(-0.00975402 -0.000279163 -0.220382)
(-0.00275721 -0.000939198 -0.235741)
(0.00940399 0.000259903 -0.232389)
(-0.00227993 0.00333121 -0.178912)
(-0.00964863 -0.000293221 -0.221862)
(-0.00279094 -0.00100037 -0.236668)
(0.00934317 0.000253495 -0.23384)
(-0.00209768 0.00349211 -0.180857)