-0.0075 	373
-0.00715932 	358.741
-0.00676191 	356.509
-0.00629832 	355.633
-0.00575752 	355.104
-0.00512667 	354.696
-0.00439077 	354.338
-0.00353231 	354
-0.00253089 	353.662
-0.00136271 	353.304
0 	352.913
0.00136271 	352.487
0.00253089 	352.045
0.00353231 	351.595
0.00439077 	351.124
0.00512667 	350.594
0.00575752 	349.928
0.00629832 	348.946
0.00676191 	346.829
0.00715932 	336.355
0.0075 	313
