0 	0 	0 	0
0 	0 	0 	0
0.00752508 	0.000461704 	0.000971118 	-0.288448
0.00752508 	0.000461704 	0.000971118 	-0.288448
0.00757525 	0.000368263 	0.0010064 	-0.287875
0.00762542 	0.000274822 	0.00104167 	-0.287303
0.00762542 	0.000274822 	0.00104167 	-0.287303
0.00767559 	0.000181283 	0.0010776 	-0.286728
0.00772575 	7.70741e-05 	0.00118398 	-0.285939
0.00777592 	-2.71352e-05 	0.00129036 	-0.28515
0.00782609 	-0.000131345 	0.00139674 	-0.284361
0.00782609 	-0.000131345 	0.00139674 	-0.284361
0.00787625 	-0.000200552 	0.00144051 	-0.283806
0.00792642 	-0.000244369 	0.00143885 	-0.28342
0.00797659 	-0.000288187 	0.0014372 	-0.283034
0.00802676 	-0.000326195 	0.00142588 	-0.282693
0.00802676 	-0.000326195 	0.00142588 	-0.282693
0.00807692 	-0.000342423 	0.00137829 	-0.28252
0.00812709 	-0.00035865 	0.00133071 	-0.282347
0.00812709 	-0.00035865 	0.00133071 	-0.282347
0.00817726 	-0.000374877 	0.00128312 	-0.282175
0.00822742 	-0.000390801 	0.00130144 	-0.282009
0.00822742 	-0.000390801 	0.00130144 	-0.282009
0.00827759 	-0.000406691 	0.00132701 	-0.281843
0.00832776 	-0.000422581 	0.00135258 	-0.281678
0.00832776 	-0.000422581 	0.00135258 	-0.281678
0.00837793 	-0.000438562 	0.00138706 	-0.281482
0.00842809 	-0.000454591 	0.00142636 	-0.281269
0.00842809 	-0.000454591 	0.00142636 	-0.281269
0.00847826 	-0.000470621 	0.00146566 	-0.281056
0.00847826 	-0.000470621 	0.00146566 	-0.281056
0.00852843 	-0.000484946 	0.00148611 	-0.280856
0.00852843 	-0.000484946 	0.00148611 	-0.280856
0.0085786 	-0.000497233 	0.00148402 	-0.280674
0.0085786 	-0.000497233 	0.00148402 	-0.280674
0.00862876 	-0.00050952 	0.00148193 	-0.280491
0.00867893 	-0.000522088 	0.00147573 	-0.280321
0.00867893 	-0.000522088 	0.00147573 	-0.280321
0.0087291 	-0.000535258 	0.0014607 	-0.280176
0.00877926 	-0.000548428 	0.00144568 	-0.280031
0.00877926 	-0.000548428 	0.00144568 	-0.280031
0.00882943 	-0.000562834 	0.00143365 	-0.279886
0.0088796 	-0.000581266 	0.00143141 	-0.27974
0.0088796 	-0.000581266 	0.00143141 	-0.27974
0.00897993 	-0.000619038 	0.00142857 	-0.279442
0.00897993 	-0.000619038 	0.00142857 	-0.279442
0.0090301 	-0.000641856 	0.00143431 	-0.279268
0.00908027 	-0.000664674 	0.00144006 	-0.279094
0.00908027 	-0.000664674 	0.00144006 	-0.279094
0.00913043 	-0.000687568 	0.00144432 	-0.278907
0.0091806 	-0.000710717 	0.00144365 	-0.278679
0.0091806 	-0.000710717 	0.00144365 	-0.278679
0.00923077 	-0.000733865 	0.00144297 	-0.278451
0.00928094 	-0.000756494 	0.00144099 	-0.278202
0.00928094 	-0.000756494 	0.00144099 	-0.278202
0.0093311 	-0.000777965 	0.00143607 	-0.277907
0.00938127 	-0.000799436 	0.00143116 	-0.277612
0.00938127 	-0.000799436 	0.00143116 	-0.277612
0.00943144 	-0.00082015 	0.00142682 	-0.27729
0.00943144 	-0.00082015 	0.00142682 	-0.27729
0.00948161 	-0.000839895 	0.00142322 	-0.276934
0.00948161 	-0.000839895 	0.00142322 	-0.276934
0.00953177 	-0.000859639 	0.00141962 	-0.276578
0.00953177 	-0.000859639 	0.00141962 	-0.276578
0.00958194 	-0.000878109 	0.00141579 	-0.276188
0.00958194 	-0.000878109 	0.00141579 	-0.276188
0.00963211 	-0.000895792 	0.00141181 	-0.275778
0.00963211 	-0.000895792 	0.00141181 	-0.275778
0.00968227 	-0.000913474 	0.00140783 	-0.275368
0.00968227 	-0.000913474 	0.00140783 	-0.275368
0.00973244 	-0.000929153 	0.00140262 	-0.274919
0.00978261 	-0.00094447 	0.00139719 	-0.274462
0.00983278 	-0.000959407 	0.00139178 	-0.274
0.00988294 	-0.000971687 	0.00138656 	-0.273502
0.00988294 	-0.000971687 	0.00138656 	-0.273502
0.00993311 	-0.000983967 	0.00138135 	-0.273003
0.00998328 	-0.000994621 	0.00137696 	-0.272485
0.00998328 	-0.000994621 	0.00137696 	-0.272485
0.0100334 	-0.0010033 	0.00137358 	-0.271945
0.0100334 	-0.0010033 	0.00137358 	-0.271945
0.0100836 	-0.00101197 	0.00137021 	-0.271404
0.0101338 	-0.00101753 	0.00135773 	-0.270832
0.0101338 	-0.00101753 	0.00135773 	-0.270832
0.0102341 	-0.00102378 	0.00132273 	-0.269672
0.0102341 	-0.00102378 	0.00132273 	-0.269672
0.0102843 	-0.00101422 	0.00128302 	-0.269094
0.0103344 	-0.00100467 	0.00124331 	-0.268515
0.0103344 	-0.00100467 	0.00124331 	-0.268515
0.0103846 	-0.000970765 	0.00120743 	-0.267997
0.0103846 	-0.000970765 	0.00120743 	-0.267997
0.0104348 	-0.000926835 	0.00117313 	-0.267506
0.0104849 	-0.000878952 	0.00115411 	-0.267028
0.0104849 	-0.000878952 	0.00115411 	-0.267028
0.0105351 	-0.00081686 	0.00118997 	-0.266601
0.0105853 	-0.000754768 	0.00122584 	-0.266173
0.0105853 	-0.000754768 	0.00122584 	-0.266173
0.0106355 	-0.000744849 	0.00132664 	-0.265475
0.0106856 	-0.000750421 	0.00144672 	-0.264695
0.0106856 	-0.000750421 	0.00144672 	-0.264695
0.0107358 	-0.000814778 	0.00153668 	-0.263582
0.0107358 	-0.000814778 	0.00153668 	-0.263582
0.010786 	-0.000980291 	0.00157485 	-0.261893
0.010786 	-0.000980291 	0.00157485 	-0.261893
0.0108361 	-0.00114617 	0.00161217 	-0.260202
0.0108361 	-0.00114617 	0.00161217 	-0.260202
0.0108863 	-0.00136987 	0.00151816 	-0.258274
0.0109365 	-0.00159356 	0.00142415 	-0.256345
0.0109365 	-0.00159356 	0.00142415 	-0.256345
0.0109866 	-0.00175167 	0.00130235 	-0.254899
0.0109866 	-0.00175167 	0.00130235 	-0.254899
0.0110368 	-0.00187988 	0.00116787 	-0.253674
0.011087 	-0.0019749 	0.00103551 	-0.252553
0.011087 	-0.0019749 	0.00103551 	-0.252553
0.0111371 	-0.00202179 	0.000906209 	-0.251583
0.0111873 	-0.00207142 	0.000808377 	-0.250502
0.0111873 	-0.00207142 	0.000808377 	-0.250502
0.0112375 	-0.00213441 	0.000864823 	-0.248883
0.0112876 	-0.0021974 	0.00092127 	-0.247265
0.0112876 	-0.0021974 	0.00092127 	-0.247265
0.0113378 	-0.0022858 	0.00105996 	-0.245312
0.011388 	-0.00237498 	0.00120118 	-0.243349
0.011388 	-0.00237498 	0.00120118 	-0.243349
0.0114883 	-0.00245926 	0.00123061 	-0.240239
0.0114883 	-0.00245926 	0.00123061 	-0.240239
0.0115385 	-0.0024416 	0.00117723 	-0.239059
0.0115886 	-0.00239901 	0.00109893 	-0.23803
0.0115886 	-0.00239901 	0.00109893 	-0.23803
0.0116388 	-0.00232233 	0.00105786 	-0.237183
0.011689 	-0.00222316 	0.00104135 	-0.236456
0.011689 	-0.00222316 	0.00104135 	-0.236456
0.0117391 	-0.00213685 	0.00108459 	-0.235683
0.0117893 	-0.0020609 	0.00117589 	-0.234872
0.0117893 	-0.0020609 	0.00117589 	-0.234872
0.0118395 	-0.00204231 	0.00122408 	-0.233785
0.0118896 	-0.00207219 	0.00123587 	-0.232464
0.0118896 	-0.00207219 	0.00123587 	-0.232464
0.0119398 	-0.00214544 	0.0011759 	-0.230951
0.0119398 	-0.00214544 	0.0011759 	-0.230951
0.01199 	-0.00225204 	0.00106075 	-0.229291
0.01199 	-0.00225204 	0.00106075 	-0.229291
0.0120401 	-0.00234504 	0.000959413 	-0.227726
0.0120401 	-0.00234504 	0.000959413 	-0.227726
0.0120903 	-0.00242982 	0.000866409 	-0.226219
0.0120903 	-0.00242982 	0.000866409 	-0.226219
0.0121405 	-0.00246756 	0.000840156 	-0.224882
0.0121405 	-0.00246756 	0.000840156 	-0.224882
0.0121906 	-0.00248663 	0.000840415 	-0.223613
0.0121906 	-0.00248663 	0.000840415 	-0.223613
0.0122408 	-0.00246308 	0.000872688 	-0.222435
0.0122408 	-0.00246308 	0.000872688 	-0.222435
0.012291 	-0.0024315 	0.000910956 	-0.221275
0.012291 	-0.0024315 	0.000910956 	-0.221275
0.0123411 	-0.00238909 	0.000899142 	-0.220106
0.0123411 	-0.00238909 	0.000899142 	-0.220106
0.0123913 	-0.00234767 	0.000884183 	-0.218927
0.0123913 	-0.00234767 	0.000884183 	-0.218927
0.0124415 	-0.00231044 	0.000855984 	-0.217709
0.0124916 	-0.00227424 	0.000833628 	-0.216469
0.0124916 	-0.00227424 	0.000833628 	-0.216469
0.012592 	-0.00220495 	0.00080419 	-0.213886
0.012592 	-0.00220495 	0.00080419 	-0.213886
0.0126421 	-0.00217044 	0.000788288 	-0.212555
0.0126923 	-0.00213527 	0.000770243 	-0.211165
0.0126923 	-0.00213527 	0.000770243 	-0.211165
0.0127425 	-0.00209975 	0.00075164 	-0.209754
0.0127425 	-0.00209975 	0.00075164 	-0.209754
0.0127926 	-0.00206336 	0.000731802 	-0.208295
0.0128428 	-0.00202579 	0.000711132 	-0.206796
0.0128428 	-0.00202579 	0.000711132 	-0.206796
0.012893 	-0.00198748 	0.000689942 	-0.20527
0.0129431 	-0.00194635 	0.000668198 	-0.203676
0.0129431 	-0.00194635 	0.000668198 	-0.203676
0.0129933 	-0.00190377 	0.00064643 	-0.202053
0.0130435 	-0.00185898 	0.000624633 	-0.200386
0.0130435 	-0.00185898 	0.000624633 	-0.200386
0.0130936 	-0.00181085 	0.000603229 	-0.198654
0.0131438 	-0.00176081 	0.000581927 	-0.196884
0.0131438 	-0.00176081 	0.000581927 	-0.196884
0.013194 	-0.00170775 	0.000560667 	-0.195051
0.0132441 	-0.0016514 	0.000538411 	-0.193144
0.0132441 	-0.0016514 	0.000538411 	-0.193144
0.0132943 	-0.00159279 	0.000515538 	-0.191186
0.0133445 	-0.00153093 	0.000491854 	-0.189151
0.0133445 	-0.00153093 	0.000491854 	-0.189151
0.0133946 	-0.0014651 	0.00046789 	-0.187015
0.0134448 	-0.00139646 	0.000443979 	-0.184803
0.0134448 	-0.00139646 	0.000443979 	-0.184803
0.013495 	-0.00132472 	0.000420254 	-0.182503
0.0135452 	-0.00124806 	0.000397135 	-0.18004
0.0135452 	-0.00124806 	0.000397135 	-0.18004
0.0136455 	-0.00108609 	0.000351668 	-0.174747
0.0136455 	-0.00108609 	0.000351668 	-0.174747
0.0136957 	-0.00100065 	0.000329282 	-0.171869
0.0137458 	-0.000912558 	0.000307075 	-0.168778
0.0137458 	-0.000912558 	0.000307075 	-0.168778
0.013796 	-0.000823026 	0.000285148 	-0.165508
0.0138462 	-0.000732484 	0.000263637 	-0.162038
0.0138462 	-0.000732484 	0.000263637 	-0.162038
0.0138963 	-0.000641462 	0.000242708 	-0.158346
0.0138963 	-0.000641462 	0.000242708 	-0.158346
0.0139465 	-0.000551197 	0.000222688 	-0.154319
0.0139967 	-0.000462858 	0.000203424 	-0.149998
0.0139967 	-0.000462858 	0.000203424 	-0.149998
0.0140468 	-0.000377429 	0.000184958 	-0.14536
0.0140468 	-0.000377429 	0.000184958 	-0.14536
0.014097 	-0.000295733 	0.000167481 	-0.140374
0.0141472 	-0.0002181 	0.000151191 	-0.135008
0.0141973 	-0.000143818 	0.000136014 	-0.129232
0.0141973 	-0.000143818 	0.000136014 	-0.129232
0.0142475 	-7.00191e-05 	0.000121138 	-0.122948
0.0142977 	6.85683e-06 	0.000106414 	-0.116208
0.0143478 	8.70824e-05 	9.27322e-05 	-0.109001
0.0143478 	8.70824e-05 	9.27322e-05 	-0.109001
0.014398 	0.000166455 	8.10892e-05 	-0.101317
0.014398 	0.000166455 	8.10892e-05 	-0.101317
0.0144482 	0.000236125 	7.15013e-05 	-0.0931574
0.0144983 	0.00028452 	6.29502e-05 	-0.084555
0.0144983 	0.00028452 	6.29502e-05 	-0.084555
0.0145485 	0.000301368 	5.45926e-05 	-0.0755821
0.0145987 	0.000282298 	4.6306e-05 	-0.0663531
0.0145987 	0.000282298 	4.6306e-05 	-0.0663531
0.0146488 	0.000232229 	3.79301e-05 	-0.0570148
0.014699 	0.000167453 	2.91508e-05 	-0.0477312
0.014699 	0.000167453 	2.91508e-05 	-0.0477312
0.0147492 	0.000117726 	2.005e-05 	-0.0386724
0.0147993 	0.00013031 	1.11233e-05 	-0.0300213
0.0147993 	0.00013031 	1.11233e-05 	-0.0300213
0.0148495 	0.000279374 	3.16211e-06 	-0.0219887
0.0148495 	0.000279374 	3.16211e-06 	-0.0219887
0.0148997 	0.000539132 	-1.70036e-06 	-0.0146586
0.0148997 	0.000539132 	-1.70036e-06 	-0.0146586
0.0149498 	0.000565014 	-2.74226e-06 	-0.00760844
0.0149498 	0.000565014 	-2.74226e-06 	-0.00760844
0.015 	0 	0 	0
