/*--------------------------------*- C++ -*----------------------------------*\
| =========                 |                                                 |
| \\      /  F ield         | OpenFOAM: The Open Source CFD Toolbox           |
|  \\    /   O peration     | Version:  v1912                                 |
|   \\  /    A nd           | Website:  www.openfoam.com                      |
|    \\/     M anipulation  |                                                 |
\*---------------------------------------------------------------------------*/
FoamFile
{
    version     2.0;
    format      ascii;
    class       volVectorField;
    location    "200";
    object      wallShearStress;
}
// * * * * * * * * * * * * * * * * * * * * * * * * * * * * * * * * * * * * * //

dimensions      [1 -1 -2 0 0 0 0];


internalField   uniform (0 0 0);

boundaryField
{
    leftWall
    {
        type            calculated;
        value           nonuniform 0();
    }
    rightWall
    {
        type            calculated;
        value           nonuniform List<vector> 
128
(
(-2.45807e-08 -5.09715e-06 -0.232882)
(-3.21291e-05 1.13904e-05 -0.226749)
(1.89716e-05 -1.65522e-05 -0.232601)
(-2.04732e-05 1.08335e-05 -0.229133)
(1.93567e-05 -6.0443e-05 -0.234561)
(-2.09991e-05 1.35567e-05 -0.253686)
(2.91476e-05 -0.000613722 -0.239019)
(1.69885e-05 -0.00120884 -0.662451)
(-0.00116819 3.2298e-07 -0.229039)
(0.000734914 6.01533e-06 -0.230008)
(-0.00126087 -7.29433e-06 -0.228405)
(0.000998646 3.57884e-06 -0.233751)
(-0.00168294 -4.17093e-05 -0.229937)
(0.00142703 8.48954e-06 -0.26021)
(-0.00425164 -0.000562779 -0.233137)
(0.000396897 -0.00118602 -0.672806)
(-0.000556252 5.16838e-06 -0.226024)
(0.000348029 5.06898e-06 -0.231802)
(-0.000441647 -5.45435e-06 -0.2253)
(0.000356338 2.74849e-06 -0.235758)
(-0.00046214 -4.56137e-05 -0.226051)
(0.00084714 -3.06643e-06 -0.262718)
(-0.00211044 -0.000569139 -0.227226)
(0.00156816 -0.00124417 -0.676631)
(-0.000435612 3.69554e-06 -0.226755)
(0.000506551 4.25164e-06 -0.233656)
(-0.00048801 -5.19638e-06 -0.22596)
(0.00072424 2.17724e-06 -0.237887)
(-0.00099904 -3.87025e-05 -0.226722)
(0.00114478 -4.35815e-06 -0.265573)
(-0.00371542 -0.000539814 -0.227911)
(2.33626e-05 -0.00123306 -0.67889)
(-0.00011237 4.31658e-06 -0.22631)
(0.000162219 5.20785e-06 -0.234491)
(-4.2383e-05 -6.46231e-06 -0.22537)
(0.000191302 2.53545e-06 -0.238895)
(-6.50164e-05 -4.34233e-05 -0.225379)
(0.000573369 -1.05227e-05 -0.267115)
(-0.00109235 -0.000555006 -0.225551)
(0.00081318 -0.00122552 -0.68066)
(0.000145749 3.42997e-06 -0.22724)
(0.000189903 4.45868e-06 -0.234866)
(0.000125863 -5.97432e-06 -0.226312)
(0.000223253 2.69191e-06 -0.239261)
(-7.97602e-05 -4.07393e-05 -0.226725)
(0.000139147 -3.7611e-06 -0.267593)
(-0.00117077 -0.000546331 -0.227764)
(-0.000637428 -0.00120722 -0.680019)
(0.000156663 2.43395e-06 -0.228226)
(-2.6001e-06 6.57269e-06 -0.235088)
(0.000218584 -8.66311e-06 -0.227135)
(-2.50803e-05 4.17789e-06 -0.239173)
(0.000284082 -4.68298e-05 -0.227161)
(6.52425e-05 -6.829e-06 -0.267347)
(-7.90599e-05 -0.000550822 -0.227982)
(0.000648379 -0.00123222 -0.67981)
(9.06525e-05 2.13572e-06 -0.228616)
(3.96832e-05 5.52894e-06 -0.234961)
(7.78149e-05 -7.74381e-06 -0.227739)
(4.81201e-05 3.94046e-06 -0.239196)
(2.06525e-05 -4.44323e-05 -0.228177)
(5.09521e-05 -4.19053e-06 -0.267544)
(-0.000308977 -0.000546749 -0.229392)
(-1.94661e-05 -0.00122135 -0.679438)
(1.2652e-06 1.89268e-06 -0.228731)
(2.24733e-06 6.90088e-06 -0.234992)
(-1.015e-05 -9.06038e-06 -0.227677)
(-4.90988e-06 4.37202e-06 -0.239111)
(-1.15783e-05 -4.77386e-05 -0.227762)
(-2.27976e-07 -7.74277e-06 -0.267428)
(-2.68709e-05 -0.000552803 -0.228779)
(-3.72882e-05 -0.00122613 -0.679537)
(-9.02076e-05 2.03421e-06 -0.228673)
(-3.42551e-05 5.49262e-06 -0.235019)
(-9.72643e-05 -7.65966e-06 -0.227801)
(-5.45727e-05 3.96926e-06 -0.239255)
(-4.03331e-05 -4.4366e-05 -0.228237)
(-4.87438e-05 -4.25404e-06 -0.26761)
(0.000267153 -0.000546675 -0.229466)
(-5.24904e-05 -0.00122133 -0.679498)
(-0.000162782 2.24705e-06 -0.228332)
(8.11466e-06 6.65674e-06 -0.23521)
(-0.000239863 -8.59498e-06 -0.227255)
(2.30644e-05 4.30255e-06 -0.239297)
(-0.00030542 -4.67327e-05 -0.227287)
(-6.1832e-05 -6.88154e-06 -0.267487)
(3.96889e-05 -0.00055073 -0.228132)
(-0.000699938 -0.00123193 -0.679918)
(-0.000153194 3.1972e-06 -0.227396)
(-0.000181475 4.53796e-06 -0.23505)
(-0.000146531 -5.96782e-06 -0.226488)
(-0.000223144 2.88137e-06 -0.239453)
(5.64628e-05 -4.07331e-05 -0.226906)
(-0.000135184 -3.71008e-06 -0.267805)
(0.00114387 -0.000546233 -0.227976)
(0.000619325 -0.00120654 -0.680175)
(9.73056e-05 3.9734e-06 -0.226498)
(-0.000154222 4.99244e-06 -0.234722)
(1.75013e-05 -6.387e-06 -0.22558)
(-0.000193106 2.64148e-06 -0.239133)
(3.59299e-05 -4.31287e-05 -0.225589)
(-0.000574249 -1.06625e-05 -0.267374)
(0.00107357 -0.000555062 -0.225787)
(-0.000813653 -0.00122527 -0.680851)
(0.000412579 3.5019e-06 -0.226911)
(-0.000510394 3.73544e-06 -0.233898)
(0.000466344 -4.95289e-06 -0.226136)
(-0.000730308 2.21697e-06 -0.238138)
(0.00097489 -3.78961e-05 -0.22689)
(-0.00115938 -4.69231e-06 -0.265851)
(0.00370246 -0.000539996 -0.228087)
(-1.29561e-05 -0.00123296 -0.679124)
(0.000530707 5.10971e-06 -0.226106)
(-0.000375152 4.5027e-06 -0.232024)
(0.000432814 -5.15236e-06 -0.22539)
(-0.000372011 2.73218e-06 -0.235987)
(0.000457267 -4.48361e-05 -0.226125)
(-0.000875728 -3.13064e-06 -0.262972)
(0.00211626 -0.000569332 -0.227289)
(-0.00155249 -0.00124412 -0.676871)
(0.00115258 4.68863e-07 -0.229037)
(-0.000788223 5.6664e-06 -0.230139)
(0.00127642 -6.98578e-06 -0.228401)
(-0.0010309 3.49467e-06 -0.233894)
(0.0017023 -4.14691e-05 -0.22992)
(-0.00146543 8.74939e-06 -0.260376)
(0.00428214 -0.000563172 -0.233103)
(-0.000373726 -0.00118573 -0.672998)
)
;
    }
    leftSides_periodic0
    {
        type            cyclic;
    }
    leftSides_periodic1
    {
        type            cyclic;
    }
    rightSides_periodic0
    {
        type            cyclic;
    }
    rightSides_periodic1
    {
        type            cyclic;
    }
    leftInOut_periodic0
    {
        type            cyclic;
    }
    leftInOut_periodic1
    {
        type            cyclic;
    }
    rightInOut_periodic0
    {
        type            cyclic;
    }
    rightInOut_periodic1
    {
        type            cyclic;
    }
    procBoundary3to1
    {
        type            processor;
        value           uniform (0 0 0);
    }
    procBoundary3to1throughrightSides_periodic1
    {
        type            processorCyclic;
        value           uniform (0 0 0);
    }
    procBoundary3to2
    {
        type            processor;
        value           uniform (0 0 0);
    }
    procBoundary3to2throughrightInOut_periodic0
    {
        type            processorCyclic;
        value           uniform (0 0 0);
    }
}


// ************************************************************************* //
