0 	0 	0 	0
0 	0 	0 	0
0.00752508 	-0.00249152 	0.000612368 	-0.284824
0.00752508 	-0.00249152 	0.000612368 	-0.284824
0.00757525 	-0.0023984 	0.000477964 	-0.284183
0.00762542 	-0.00230529 	0.000343561 	-0.283542
0.00762542 	-0.00230529 	0.000343561 	-0.283542
0.00767559 	-0.00221202 	0.000210093 	-0.282903
0.00772575 	-0.00210229 	0.000179151 	-0.282476
0.00777592 	-0.00199255 	0.00014821 	-0.282049
0.00782609 	-0.00188282 	0.000117269 	-0.281622
0.00782609 	-0.00188282 	0.000117269 	-0.281622
0.00787625 	-0.00178307 	0.000142852 	-0.281332
0.00792642 	-0.00169056 	0.000209436 	-0.281141
0.00797659 	-0.00159805 	0.000276021 	-0.28095
0.00802676 	-0.00150903 	0.000329052 	-0.280759
0.00802676 	-0.00150903 	0.000329052 	-0.280759
0.00807692 	-0.00143315 	0.00033126 	-0.280569
0.00812709 	-0.00135726 	0.000333467 	-0.280378
0.00812709 	-0.00135726 	0.000333467 	-0.280378
0.00817726 	-0.00128138 	0.000335675 	-0.280188
0.00822742 	-0.00120824 	0.000291444 	-0.279929
0.00822742 	-0.00120824 	0.000291444 	-0.279929
0.00827759 	-0.00113539 	0.000242102 	-0.279663
0.00832776 	-0.00106255 	0.000192759 	-0.279397
0.00832776 	-0.00106255 	0.000192759 	-0.279397
0.00837793 	-0.000987454 	0.000145999 	-0.27909
0.00842809 	-0.000911135 	0.000100634 	-0.278761
0.00842809 	-0.000911135 	0.000100634 	-0.278761
0.00847826 	-0.000834817 	5.52681e-05 	-0.278432
0.00847826 	-0.000834817 	5.52681e-05 	-0.278432
0.00852843 	-0.000757127 	1.73729e-05 	-0.278085
0.00852843 	-0.000757127 	1.73729e-05 	-0.278085
0.0085786 	-0.000677794 	-1.15858e-05 	-0.277714
0.0085786 	-0.000677794 	-1.15858e-05 	-0.277714
0.00862876 	-0.000598461 	-4.05446e-05 	-0.277344
0.00867893 	-0.000518661 	-6.68185e-05 	-0.276963
0.00867893 	-0.000518661 	-6.68185e-05 	-0.276963
0.0087291 	-0.000437854 	-8.73205e-05 	-0.276558
0.00877926 	-0.000357048 	-0.000107822 	-0.276152
0.00877926 	-0.000357048 	-0.000107822 	-0.276152
0.00882943 	-0.000276379 	-0.000122031 	-0.275736
0.0088796 	-0.000196158 	-0.000115742 	-0.275282
0.0088796 	-0.000196158 	-0.000115742 	-0.275282
0.00897993 	-3.57508e-05 	-0.000102767 	-0.274356
0.00897993 	-3.57508e-05 	-0.000102767 	-0.274356
0.0090301 	4.43011e-05 	-9.45538e-05 	-0.273807
0.00908027 	0.000124353 	-8.63408e-05 	-0.273259
0.00908027 	0.000124353 	-8.63408e-05 	-0.273259
0.00913043 	0.000205332 	-9.40535e-05 	-0.272675
0.0091806 	0.000289388 	-0.000154571 	-0.271973
0.0091806 	0.000289388 	-0.000154571 	-0.271973
0.00923077 	0.000373443 	-0.000215089 	-0.271272
0.00928094 	0.000459494 	-0.000292203 	-0.270527
0.00928094 	0.000459494 	-0.000292203 	-0.270527
0.0093311 	0.000550006 	-0.000406399 	-0.269686
0.00938127 	0.000640517 	-0.000520594 	-0.268845
0.00938127 	0.000640517 	-0.000520594 	-0.268845
0.00943144 	0.000730785 	-0.000591239 	-0.26804
0.00943144 	0.000730785 	-0.000591239 	-0.26804
0.00948161 	0.000820738 	-0.00060604 	-0.267281
0.00948161 	0.000820738 	-0.00060604 	-0.267281
0.00953177 	0.000910692 	-0.000620842 	-0.266522
0.00953177 	0.000910692 	-0.000620842 	-0.266522
0.00958194 	0.000996908 	-0.000575286 	-0.265894
0.00958194 	0.000996908 	-0.000575286 	-0.265894
0.00963211 	0.00108081 	-0.000492374 	-0.265347
0.00963211 	0.00108081 	-0.000492374 	-0.265347
0.00968227 	0.00116471 	-0.000409462 	-0.2648
0.00968227 	0.00116471 	-0.000409462 	-0.2648
0.00973244 	0.00124749 	-0.000364197 	-0.264298
0.00978261 	0.00133006 	-0.000325736 	-0.263805
0.00983278 	0.00141316 	-0.000295271 	-0.263302
0.00988294 	0.00149997 	-0.000320801 	-0.26273
0.00988294 	0.00149997 	-0.000320801 	-0.26273
0.00993311 	0.00158678 	-0.000346331 	-0.262158
0.00998328 	0.00167634 	-0.00038002 	-0.261552
0.00998328 	0.00167634 	-0.00038002 	-0.261552
0.0100334 	0.00176926 	-0.000423645 	-0.260906
0.0100334 	0.00176926 	-0.000423645 	-0.260906
0.0100836 	0.00186217 	-0.000467269 	-0.26026
0.0101338 	0.00195911 	-0.000489978 	-0.259607
0.0101338 	0.00195911 	-0.000489978 	-0.259607
0.0102341 	0.00215565 	-0.000522071 	-0.258303
0.0102341 	0.00215565 	-0.000522071 	-0.258303
0.0102843 	0.00225731 	-0.000522268 	-0.257671
0.0103344 	0.00235896 	-0.000522466 	-0.257038
0.0103344 	0.00235896 	-0.000522466 	-0.257038
0.0103846 	0.00246398 	-0.000521418 	-0.256413
0.0103846 	0.00246398 	-0.000521418 	-0.256413
0.0104348 	0.00257039 	-0.000519858 	-0.25579
0.0104849 	0.00267797 	-0.000518585 	-0.255167
0.0104849 	0.00267797 	-0.000518585 	-0.255167
0.0105351 	0.00278974 	-0.000518345 	-0.254541
0.0105853 	0.00290151 	-0.000518105 	-0.253915
0.0105853 	0.00290151 	-0.000518105 	-0.253915
0.0106355 	0.00301657 	-0.000509412 	-0.253278
0.0106856 	0.00313261 	-0.000498209 	-0.252637
0.0106856 	0.00313261 	-0.000498209 	-0.252637
0.0107358 	0.00325155 	-0.000478227 	-0.251973
0.0107358 	0.00325155 	-0.000478227 	-0.251973
0.010786 	0.00337551 	-0.000443135 	-0.251267
0.010786 	0.00337551 	-0.000443135 	-0.251267
0.0108361 	0.00349959 	-0.00040816 	-0.250561
0.0108361 	0.00349959 	-0.00040816 	-0.250561
0.0108863 	0.00364304 	-0.000391498 	-0.249703
0.0109365 	0.00378649 	-0.000374836 	-0.248844
0.0109365 	0.00378649 	-0.000374836 	-0.248844
0.0109866 	0.0039482 	-0.000404638 	-0.247853
0.0109866 	0.0039482 	-0.000404638 	-0.247853
0.0110368 	0.00411825 	-0.000455635 	-0.246801
0.011087 	0.0042937 	-0.000515865 	-0.245706
0.011087 	0.0042937 	-0.000515865 	-0.245706
0.0111371 	0.00447703 	-0.000589492 	-0.24455
0.0111873 	0.00465659 	-0.000648072 	-0.243413
0.0111873 	0.00465659 	-0.000648072 	-0.243413
0.0112375 	0.00481777 	-0.000632873 	-0.242373
0.0112876 	0.00497894 	-0.000617674 	-0.241334
0.0112876 	0.00497894 	-0.000617674 	-0.241334
0.0113378 	0.00510149 	-0.000533353 	-0.240497
0.011388 	0.00522286 	-0.000446912 	-0.239667
0.011388 	0.00522286 	-0.000446912 	-0.239667
0.0114883 	0.00542784 	-0.000340421 	-0.238138
0.0114883 	0.00542784 	-0.000340421 	-0.238138
0.0115385 	0.00552968 	-0.000331402 	-0.23735
0.0115886 	0.00563211 	-0.000340906 	-0.236548
0.0115886 	0.00563211 	-0.000340906 	-0.236548
0.0116388 	0.00573976 	-0.000359294 	-0.235708
0.011689 	0.00585086 	-0.000383544 	-0.234843
0.011689 	0.00585086 	-0.000383544 	-0.234843
0.0117391 	0.00596371 	-0.000393424 	-0.233953
0.0117893 	0.00607797 	-0.000391745 	-0.233043
0.0117893 	0.00607797 	-0.000391745 	-0.233043
0.0118395 	0.00619169 	-0.000383037 	-0.232112
0.0118896 	0.00630496 	-0.00036839 	-0.231163
0.0118896 	0.00630496 	-0.00036839 	-0.231163
0.0119398 	0.00641751 	-0.000355865 	-0.230192
0.0119398 	0.00641751 	-0.000355865 	-0.230192
0.01199 	0.0065295 	-0.000344971 	-0.229202
0.01199 	0.0065295 	-0.000344971 	-0.229202
0.0120401 	0.00664085 	-0.000334724 	-0.228187
0.0120401 	0.00664085 	-0.000334724 	-0.228187
0.0120903 	0.0067518 	-0.000324867 	-0.227156
0.0120903 	0.0067518 	-0.000324867 	-0.227156
0.0121405 	0.0068619 	-0.000315062 	-0.226094
0.0121405 	0.0068619 	-0.000315062 	-0.226094
0.0121906 	0.00697165 	-0.000305279 	-0.225019
0.0121906 	0.00697165 	-0.000305279 	-0.225019
0.0122408 	0.00707992 	-0.000295313 	-0.223905
0.0122408 	0.00707992 	-0.000295313 	-0.223905
0.012291 	0.0071879 	-0.000285313 	-0.222784
0.012291 	0.0071879 	-0.000285313 	-0.222784
0.0123411 	0.00729345 	-0.000275222 	-0.221614
0.0123411 	0.00729345 	-0.000275222 	-0.221614
0.0123913 	0.00739844 	-0.000265129 	-0.220434
0.0123913 	0.00739844 	-0.000265129 	-0.220434
0.0124415 	0.00750104 	-0.000255032 	-0.219211
0.0124916 	0.00760226 	-0.000244965 	-0.217965
0.0124916 	0.00760226 	-0.000244965 	-0.217965
0.012592 	0.00779833 	-0.000225067 	-0.215366
0.012592 	0.00779833 	-0.000225067 	-0.215366
0.0126421 	0.00789391 	-0.000215264 	-0.214026
0.0126923 	0.0079856 	-0.000205731 	-0.212625
0.0126923 	0.0079856 	-0.000205731 	-0.212625
0.0127425 	0.0080759 	-0.000196264 	-0.211202
0.0127425 	0.0080759 	-0.000196264 	-0.211202
0.0127926 	0.00816294 	-0.000186943 	-0.209728
0.0128428 	0.00824704 	-0.000177674 	-0.208209
0.0128428 	0.00824704 	-0.000177674 	-0.208209
0.012893 	0.00832929 	-0.000168438 	-0.20666
0.0129431 	0.00840635 	-0.000159367 	-0.205031
0.0129431 	0.00840635 	-0.000159367 	-0.205031
0.0129933 	0.00848096 	-0.000150348 	-0.203365
0.0130435 	0.0085519 	-0.000141409 	-0.201645
0.0130435 	0.0085519 	-0.000141409 	-0.201645
0.0130936 	0.00861708 	-0.000132342 	-0.199845
0.0131438 	0.00867895 	-0.000123253 	-0.197997
0.0131438 	0.00867895 	-0.000123253 	-0.197997
0.013194 	0.00873558 	-0.000114174 	-0.196072
0.0132441 	0.00878684 	-0.000105487 	-0.194056
0.0132441 	0.00878684 	-0.000105487 	-0.194056
0.0132943 	0.00883453 	-9.716e-05 	-0.191975
0.0133445 	0.00887724 	-8.94513e-05 	-0.1898
0.0133445 	0.00887724 	-8.94513e-05 	-0.1898
0.0133946 	0.00891301 	-8.22942e-05 	-0.187506
0.0134448 	0.00894285 	-7.52248e-05 	-0.185123
0.0134448 	0.00894285 	-7.52248e-05 	-0.185123
0.013495 	0.00896561 	-6.8102e-05 	-0.182637
0.0135452 	0.00897409 	-6.07301e-05 	-0.179969
0.0135452 	0.00897409 	-6.07301e-05 	-0.179969
0.0136455 	0.00895936 	-4.6302e-05 	-0.174227
0.0136455 	0.00895936 	-4.6302e-05 	-0.174227
0.0136957 	0.00893249 	-3.94627e-05 	-0.171098
0.0137458 	0.00888889 	-3.31122e-05 	-0.167726
0.0137458 	0.00888889 	-3.31122e-05 	-0.167726
0.013796 	0.00883188 	-2.71749e-05 	-0.164149
0.0138462 	0.00876039 	-2.16806e-05 	-0.160346
0.0138462 	0.00876039 	-2.16806e-05 	-0.160346
0.0138963 	0.00867309 	-1.66585e-05 	-0.156299
0.0138963 	0.00867309 	-1.66585e-05 	-0.156299
0.0139465 	0.00856122 	-1.23443e-05 	-0.151903
0.0139967 	0.00842588 	-8.60552e-06 	-0.147216
0.0139967 	0.00842588 	-8.60552e-06 	-0.147216
0.0140468 	0.00826369 	-5.4498e-06 	-0.142228
0.0140468 	0.00826369 	-5.4498e-06 	-0.142228
0.014097 	0.00807065 	-2.91692e-06 	-0.13692
0.0141472 	0.00784274 	-1.07567e-06 	-0.131272
0.0141973 	0.00757615 	-3.90686e-08 	-0.125265
0.0141973 	0.00757615 	-3.90686e-08 	-0.125265
0.0142475 	0.00725904 	1.46914e-07 	-0.11882
0.0142977 	0.00689325 	5.17186e-08 	-0.111978
0.0143478 	0.0064767 	6.32137e-08 	-0.104732
0.0143478 	0.0064767 	6.32137e-08 	-0.104732
0.014398 	0.00601142 	3.30795e-07 	-0.0970887
0.014398 	0.00601142 	3.30795e-07 	-0.0970887
0.0144482 	0.00550674 	6.71782e-07 	-0.0890818
0.0144983 	0.00497928 	8.44472e-07 	-0.0807772
0.0144983 	0.00497928 	8.44472e-07 	-0.0807772
0.0145485 	0.0044495 	8.501e-07 	-0.0722725
0.0145987 	0.00393691 	8.25784e-07 	-0.0636866
0.0145987 	0.00393691 	8.25784e-07 	-0.0636866
0.0146488 	0.00345517 	9.02565e-07 	-0.0551406
0.014699 	0.00300672 	1.37356e-06 	-0.0467331
0.014699 	0.00300672 	1.37356e-06 	-0.0467331
0.0147492 	0.00257949 	2.53484e-06 	-0.03852
0.0147993 	0.00214556 	4.25964e-06 	-0.030507
0.0147993 	0.00214556 	4.25964e-06 	-0.030507
0.0148495 	0.00165745 	5.82164e-06 	-0.0226494
0.0148495 	0.00165745 	5.82164e-06 	-0.0226494
0.0148997 	0.00107873 	5.60552e-06 	-0.014893
0.0148997 	0.00107873 	5.60552e-06 	-0.014893
0.0149498 	0.000474086 	3.31267e-06 	-0.00729725
0.0149498 	0.000474086 	3.31267e-06 	-0.00729725
0.015 	0 	0 	0
