0 	0 	0 	0
0 	6.21428e-36 	-3.35551e-36 	1.85286e-31
5.01672e-05 	4.42185e-07 	-3.5663e-07 	0.017285
5.01672e-05 	4.42185e-07 	-3.5663e-07 	0.017285
0.000100334 	-1.78161e-07 	-1.08776e-06 	0.0332562
0.000150502 	-1.03193e-06 	-2.24148e-06 	0.0480793
0.000150502 	-1.03193e-06 	-2.24148e-06 	0.0480793
0.000200669 	-1.77246e-06 	-3.79944e-06 	0.0618413
0.000200669 	-1.77246e-06 	-3.79944e-06 	0.0618413
0.000250836 	-2.42344e-06 	-5.77156e-06 	0.07462
0.000301003 	-3.03039e-06 	-8.14431e-06 	0.0864802
0.000301003 	-3.03039e-06 	-8.14431e-06 	0.0864802
0.000351171 	-3.60533e-06 	-1.09137e-05 	0.0974645
0.000401338 	-4.15119e-06 	-1.40848e-05 	0.107593
0.000451505 	-4.66655e-06 	-1.76793e-05 	0.116881
0.000451505 	-4.66655e-06 	-1.76793e-05 	0.116881
0.000501672 	-5.14742e-06 	-2.17324e-05 	0.125354
0.000551839 	-5.58924e-06 	-2.62813e-05 	0.133057
0.000551839 	-5.58924e-06 	-2.62813e-05 	0.133057
0.000602007 	-5.98844e-06 	-3.13546e-05 	0.140053
0.000602007 	-5.98844e-06 	-3.13546e-05 	0.140053
0.000652174 	-6.34343e-06 	-3.69736e-05 	0.14641
0.000652174 	-6.34343e-06 	-3.69736e-05 	0.14641
0.000702341 	-6.65468e-06 	-4.31565e-05 	0.152203
0.000702341 	-6.65468e-06 	-4.31565e-05 	0.152203
0.000752508 	-6.92408e-06 	-4.99182e-05 	0.157501
0.000802676 	-7.15383e-06 	-5.72722e-05 	0.162359
0.000852843 	-7.34127e-06 	-6.53123e-05 	0.16677
0.000852843 	-7.34127e-06 	-6.53123e-05 	0.16677
0.00090301 	-7.49539e-06 	-7.3914e-05 	0.170844
0.00090301 	-7.49539e-06 	-7.3914e-05 	0.170844
0.000953177 	-7.61903e-06 	-8.30288e-05 	0.174622
0.00100334 	-7.71501e-06 	-9.26066e-05 	0.178137
0.00100334 	-7.71501e-06 	-9.26066e-05 	0.178137
0.00105351 	-7.78599e-06 	-0.000102599 	0.181423
0.00105351 	-7.78599e-06 	-0.000102599 	0.181423
0.00110368 	-7.83394e-06 	-0.000112971 	0.184503
0.00115385 	-7.85599e-06 	-0.000123762 	0.187354
0.00120401 	-7.86095e-06 	-0.000134825 	0.190055
0.00120401 	-7.86095e-06 	-0.000134825 	0.190055
0.00130435 	-7.82632e-06 	-0.000157632 	0.195064
0.00130435 	-7.82632e-06 	-0.000157632 	0.195064
0.00135452 	-7.78589e-06 	-0.000169363 	0.197366
0.00135452 	-7.78589e-06 	-0.000169363 	0.197366
0.00140468 	-7.73281e-06 	-0.000181246 	0.199558
0.00145485 	-7.66982e-06 	-0.000193232 	0.201666
0.00145485 	-7.66982e-06 	-0.000193232 	0.201666
0.00150502 	-7.59762e-06 	-0.000205302 	0.203697
0.00150502 	-7.59762e-06 	-0.000205302 	0.203697
0.00155518 	-7.51186e-06 	-0.000217453 	0.20562
0.00155518 	-7.51186e-06 	-0.000217453 	0.20562
0.00160535 	-7.41839e-06 	-0.00022962 	0.207483
0.00160535 	-7.41839e-06 	-0.00022962 	0.207483
0.00165552 	-7.31812e-06 	-0.00024179 	0.209294
0.00165552 	-7.31812e-06 	-0.00024179 	0.209294
0.00170569 	-7.20887e-06 	-0.000253927 	0.211034
0.00170569 	-7.20887e-06 	-0.000253927 	0.211034
0.00175585 	-7.09275e-06 	-0.000265988 	0.212718
0.00175585 	-7.09275e-06 	-0.000265988 	0.212718
0.00180602 	-6.97198e-06 	-0.000277979 	0.214365
0.00180602 	-6.97198e-06 	-0.000277979 	0.214365
0.00185619 	-6.8447e-06 	-0.000289838 	0.215958
0.00185619 	-6.8447e-06 	-0.000289838 	0.215958
0.00190635 	-6.71194e-06 	-0.000301531 	0.217506
0.00190635 	-6.71194e-06 	-0.000301531 	0.217506
0.00195652 	-6.57581e-06 	-0.000313106 	0.219026
0.00195652 	-6.57581e-06 	-0.000313106 	0.219026
0.00200669 	-6.43395e-06 	-0.00032444 	0.220499
0.00200669 	-6.43395e-06 	-0.00032444 	0.220499
0.00205686 	-6.28826e-06 	-0.000335563 	0.221938
0.00210702 	-6.14001e-06 	-0.000346544 	0.223357
0.00210702 	-6.14001e-06 	-0.000346544 	0.223357
0.00215719 	-5.98603e-06 	-0.000357126 	0.224726
0.00220736 	-5.83001e-06 	-0.000367533 	0.226077
0.00225753 	-5.67072e-06 	-0.000377662 	0.2274
0.00225753 	-5.67072e-06 	-0.000377662 	0.2274
0.00230769 	-5.50786e-06 	-0.000387428 	0.22869
0.00230769 	-5.50786e-06 	-0.000387428 	0.22869
0.00235786 	-5.34348e-06 	-0.000397034 	0.229966
0.00235786 	-5.34348e-06 	-0.000397034 	0.229966
0.00240803 	-5.17482e-06 	-0.000406125 	0.231202
0.00240803 	-5.17482e-06 	-0.000406125 	0.231202
0.00245819 	-5.0048e-06 	-0.000415028 	0.232424
0.00245819 	-5.0048e-06 	-0.000415028 	0.232424
0.00250836 	-4.83203e-06 	-0.000423546 	0.233619
0.00250836 	-4.83203e-06 	-0.000423546 	0.233619
0.00255853 	-4.65705e-06 	-0.000431712 	0.23479
0.0026087 	-4.4805e-06 	-0.000439628 	0.235945
0.0026087 	-4.4805e-06 	-0.000439628 	0.235945
0.00265886 	-4.30109e-06 	-0.000447038 	0.237068
0.00270903 	-4.121e-06 	-0.000454327 	0.238183
0.00270903 	-4.121e-06 	-0.000454327 	0.238183
0.0027592 	-3.9375e-06 	-0.000460969 	0.23926
0.00280936 	-3.75344e-06 	-0.000467507 	0.24033
0.00280936 	-3.75344e-06 	-0.000467507 	0.24033
0.00285953 	-3.56649e-06 	-0.000473486 	0.241368
0.00285953 	-3.56649e-06 	-0.000473486 	0.241368
0.0029097 	-3.37852e-06 	-0.000479276 	0.242394
0.0029097 	-3.37852e-06 	-0.000479276 	0.242394
0.00295987 	-3.188e-06 	-0.000484588 	0.243393
0.00295987 	-3.188e-06 	-0.000484588 	0.243393
0.00301003 	-2.99609e-06 	-0.000489653 	0.244378
0.0030602 	-2.80189e-06 	-0.000494308 	0.245338
0.00311037 	-2.6061e-06 	-0.000498689 	0.246282
0.00311037 	-2.6061e-06 	-0.000498689 	0.246282
0.00316054 	-2.40826e-06 	-0.000502715 	0.247205
0.00316054 	-2.40826e-06 	-0.000502715 	0.247205
0.00326087 	-2.00747e-06 	-0.000509908 	0.248994
0.00326087 	-2.00747e-06 	-0.000509908 	0.248994
0.00331104 	-1.80453e-06 	-0.000513107 	0.249861
0.0033612 	-1.5996e-06 	-0.000516008 	0.250707
0.0033612 	-1.5996e-06 	-0.000516008 	0.250707
0.00341137 	-1.39285e-06 	-0.000518719 	0.251538
0.00341137 	-1.39285e-06 	-0.000518719 	0.251538
0.00346154 	-1.18336e-06 	-0.000521143 	0.252345
0.00346154 	-1.18336e-06 	-0.000521143 	0.252345
0.00351171 	-9.7191e-07 	-0.000523436 	0.253141
0.00356187 	-7.56162e-07 	-0.000525442 	0.253911
0.00356187 	-7.56162e-07 	-0.000525442 	0.253911
0.00361204 	-5.39021e-07 	-0.00052738 	0.254675
0.00366221 	-3.15955e-07 	-0.000529025 	0.25541
0.00366221 	-3.15955e-07 	-0.000529025 	0.25541
0.00371237 	-9.2687e-08 	-0.00053066 	0.256143
0.00371237 	-9.2687e-08 	-0.00053066 	0.256143
0.00376254 	1.37161e-07 	-0.000531988 	0.256845
0.00376254 	1.37161e-07 	-0.000531988 	0.256845
0.00381271 	3.67009e-07 	-0.000533317 	0.257547
0.00381271 	3.67009e-07 	-0.000533317 	0.257547
0.00386288 	6.01194e-07 	-0.000534414 	0.258222
0.00391304 	8.36263e-07 	-0.000535465 	0.258891
0.00391304 	8.36263e-07 	-0.000535465 	0.258891
0.00396321 	1.0736e-06 	-0.000536371 	0.259542
0.00401338 	1.31251e-06 	-0.000537177 	0.260179
0.00401338 	1.31251e-06 	-0.000537177 	0.260179
0.00406355 	1.55235e-06 	-0.000537918 	0.260806
0.00406355 	1.55235e-06 	-0.000537918 	0.260806
0.00411371 	1.79425e-06 	-0.000538515 	0.261411
0.00411371 	1.79425e-06 	-0.000538515 	0.261411
0.00421405 	2.28028e-06 	-0.000539535 	0.26259
0.00421405 	2.28028e-06 	-0.000539535 	0.26259
0.00426421 	2.52442e-06 	-0.000539957 	0.263163
0.00426421 	2.52442e-06 	-0.000539957 	0.263163
0.00431438 	2.76947e-06 	-0.000540291 	0.263715
0.00431438 	2.76947e-06 	-0.000540291 	0.263715
0.00436455 	3.01504e-06 	-0.000540574 	0.264256
0.00436455 	3.01504e-06 	-0.000540574 	0.264256
0.00441472 	3.26072e-06 	-0.000540832 	0.264789
0.00441472 	3.26072e-06 	-0.000540832 	0.264789
0.00446488 	3.50676e-06 	-0.00054101 	0.265297
0.00446488 	3.50676e-06 	-0.00054101 	0.265297
0.00451505 	3.7528e-06 	-0.000541187 	0.265805
0.00451505 	3.7528e-06 	-0.000541187 	0.265805
0.00456522 	3.99836e-06 	-0.00054131 	0.266288
0.00456522 	3.99836e-06 	-0.00054131 	0.266288
0.00461538 	4.2438e-06 	-0.000541416 	0.266764
0.00461538 	4.2438e-06 	-0.000541416 	0.266764
0.00466555 	4.4887e-06 	-0.000541512 	0.26723
0.00471572 	4.73234e-06 	-0.000541581 	0.267674
0.00476589 	4.97597e-06 	-0.00054165 	0.268117
0.00476589 	4.97597e-06 	-0.00054165 	0.268117
0.00486622 	5.45794e-06 	-0.000541775 	0.268947
0.00486622 	5.45794e-06 	-0.000541775 	0.268947
0.00491639 	5.69782e-06 	-0.00054184 	0.269352
0.00496656 	5.93421e-06 	-0.000541921 	0.269731
0.00496656 	5.93421e-06 	-0.000541921 	0.269731
0.00501672 	6.17061e-06 	-0.000542002 	0.27011
0.00506689 	6.404e-06 	-0.000542106 	0.270471
0.00511706 	6.63491e-06 	-0.00054223 	0.270817
0.00511706 	6.63491e-06 	-0.00054223 	0.270817
0.00521739 	7.09084e-06 	-0.000542528 	0.271482
0.00521739 	7.09084e-06 	-0.000542528 	0.271482
0.00526756 	7.315e-06 	-0.00054271 	0.271797
0.00526756 	7.315e-06 	-0.00054271 	0.271797
0.00531773 	7.53794e-06 	-0.000542904 	0.272107
0.00536789 	7.75417e-06 	-0.000543157 	0.27239
0.00536789 	7.75417e-06 	-0.000543157 	0.27239
0.00541806 	7.9704e-06 	-0.000543411 	0.272673
0.00546823 	8.18321e-06 	-0.000543694 	0.272944
0.00551839 	8.39049e-06 	-0.000544025 	0.273196
0.00551839 	8.39049e-06 	-0.000544025 	0.273196
0.00556856 	8.59777e-06 	-0.000544355 	0.273449
0.00556856 	8.59777e-06 	-0.000544355 	0.273449
0.0056689 	8.99678e-06 	-0.000545137 	0.273905
0.0056689 	8.99678e-06 	-0.000545137 	0.273905
0.00571906 	9.19411e-06 	-0.000545545 	0.274127
0.00576923 	9.38373e-06 	-0.000546002 	0.274328
0.00576923 	9.38373e-06 	-0.000546002 	0.274328
0.0058194 	9.5699e-06 	-0.000546481 	0.27452
0.0058194 	9.5699e-06 	-0.000546481 	0.27452
0.00591973 	9.93246e-06 	-0.000547484 	0.274882
0.00591973 	9.93246e-06 	-0.000547484 	0.274882
0.0059699 	1.01059e-05 	-0.000548022 	0.275046
0.0059699 	1.01059e-05 	-0.000548022 	0.275046
0.00602007 	1.02794e-05 	-0.00054856 	0.275209
0.00607023 	1.04413e-05 	-0.000549132 	0.275351
0.0061204 	1.06003e-05 	-0.000549712 	0.275487
0.0061204 	1.06003e-05 	-0.000549712 	0.275487
0.00617057 	1.07592e-05 	-0.000550293 	0.275623
0.00622074 	1.09057e-05 	-0.000550891 	0.275738
0.00622074 	1.09057e-05 	-0.000550891 	0.275738
0.0062709 	1.10484e-05 	-0.000551495 	0.275847
0.00632107 	1.1191e-05 	-0.000552099 	0.275956
0.00632107 	1.1191e-05 	-0.000552099 	0.275956
0.00637124 	1.13213e-05 	-0.000552706 	0.276048
0.00637124 	1.13213e-05 	-0.000552706 	0.276048
0.0064214 	1.14457e-05 	-0.000553315 	0.276131
0.0064214 	1.14457e-05 	-0.000553315 	0.276131
0.00647157 	1.15702e-05 	-0.000553924 	0.276214
0.00647157 	1.15702e-05 	-0.000553924 	0.276214
0.00652174 	1.16836e-05 	-0.00055451 	0.276284
0.00657191 	1.17878e-05 	-0.000555078 	0.276342
0.00657191 	1.17878e-05 	-0.000555078 	0.276342
0.00662207 	1.18919e-05 	-0.000555646 	0.2764
0.00667224 	1.19882e-05 	-0.000556201 	0.276449
0.00672241 	1.20698e-05 	-0.000556731 	0.276482
0.00672241 	1.20698e-05 	-0.000556731 	0.276482
0.00677258 	1.21514e-05 	-0.000557261 	0.276515
0.00682274 	1.22305e-05 	-0.000557789 	0.276546
0.00682274 	1.22305e-05 	-0.000557789 	0.276546
0.00687291 	1.22869e-05 	-0.000558296 	0.276555
0.00687291 	1.22869e-05 	-0.000558296 	0.276555
0.00692308 	1.23433e-05 	-0.000558804 	0.276564
0.00697324 	1.23997e-05 	-0.000559311 	0.276573
0.00702341 	1.24341e-05 	-0.000559755 	0.276563
0.00707358 	1.24625e-05 	-0.000560181 	0.276547
0.00707358 	1.24625e-05 	-0.000560181 	0.276547
0.00717391 	1.25056e-05 	-0.000561027 	0.276507
0.00717391 	1.25056e-05 	-0.000561027 	0.276507
0.00722408 	1.25011e-05 	-0.000561435 	0.276468
0.00722408 	1.25011e-05 	-0.000561435 	0.276468
0.00727425 	1.24967e-05 	-0.000561843 	0.276428
0.00727425 	1.24967e-05 	-0.000561843 	0.276428
0.00732441 	1.24922e-05 	-0.000562251 	0.276389
0.00732441 	1.24922e-05 	-0.000562251 	0.276389
0.00737458 	1.24499e-05 	-0.00056258 	0.276326
0.00737458 	1.24499e-05 	-0.00056258 	0.276326
0.00742475 	1.24072e-05 	-0.000562909 	0.276263
0.00747492 	1.23645e-05 	-0.000563238 	0.2762
0.00752508 	1.23025e-05 	-0.000563483 	0.276125
0.00752508 	1.23025e-05 	-0.000563483 	0.276125
0.00757525 	1.22211e-05 	-0.000563643 	0.276038
0.00762542 	1.21397e-05 	-0.000563803 	0.275951
0.00767559 	1.2058e-05 	-0.000563962 	0.275864
0.00767559 	1.2058e-05 	-0.000563962 	0.275864
0.00772575 	1.19399e-05 	-0.000564023 	0.275753
0.00777592 	1.18217e-05 	-0.000564085 	0.275642
0.00777592 	1.18217e-05 	-0.000564085 	0.275642
0.00782609 	1.17036e-05 	-0.000564146 	0.275531
0.00787625 	1.15678e-05 	-0.000564107 	0.275407
0.00787625 	1.15678e-05 	-0.000564107 	0.275407
0.00792642 	1.14192e-05 	-0.000563994 	0.275273
0.00797659 	1.12707e-05 	-0.000563882 	0.275138
0.00802676 	1.11172e-05 	-0.000563734 	0.274999
0.00802676 	1.11172e-05 	-0.000563734 	0.274999
0.00807692 	1.0945e-05 	-0.000563456 	0.274842
0.00807692 	1.0945e-05 	-0.000563456 	0.274842
0.00812709 	1.07728e-05 	-0.000563177 	0.274685
0.00817726 	1.06006e-05 	-0.000562898 	0.274528
0.00817726 	1.06006e-05 	-0.000562898 	0.274528
0.00822742 	1.04102e-05 	-0.000562529 	0.27435
0.00827759 	1.02178e-05 	-0.000562151 	0.274171
0.00827759 	1.02178e-05 	-0.000562151 	0.274171
0.00832776 	1.00253e-05 	-0.000561772 	0.273991
0.00832776 	1.00253e-05 	-0.000561772 	0.273991
0.00837793 	9.82196e-06 	-0.000561308 	0.273796
0.00842809 	9.61265e-06 	-0.000560796 	0.273594
0.00842809 	9.61265e-06 	-0.000560796 	0.273594
0.00847826 	9.40335e-06 	-0.000560284 	0.273392
0.00847826 	9.40335e-06 	-0.000560284 	0.273392
0.0085786 	8.96475e-06 	-0.000559069 	0.272954
0.0085786 	8.96475e-06 	-0.000559069 	0.272954
0.00862876 	8.74172e-06 	-0.000558425 	0.272729
0.00867893 	8.51524e-06 	-0.000557739 	0.272497
0.0087291 	8.28135e-06 	-0.000556965 	0.27225
0.00877926 	8.04746e-06 	-0.00055619 	0.272003
0.00882943 	7.81164e-06 	-0.000555384 	0.27175
0.0088796 	7.56952e-06 	-0.000554478 	0.271481
0.0088796 	7.56952e-06 	-0.000554478 	0.271481
0.00892977 	7.3274e-06 	-0.000553572 	0.271211
0.00892977 	7.3274e-06 	-0.000553572 	0.271211
0.00897993 	7.08406e-06 	-0.000552639 	0.270937
0.00897993 	7.08406e-06 	-0.000552639 	0.270937
0.0090301 	6.83606e-06 	-0.000551603 	0.270644
0.00908027 	6.58806e-06 	-0.000550566 	0.270352
0.00908027 	6.58806e-06 	-0.000550566 	0.270352
0.00913043 	6.33918e-06 	-0.000549499 	0.270055
0.0091806 	6.0874e-06 	-0.000548332 	0.26974
0.0091806 	6.0874e-06 	-0.000548332 	0.26974
0.00923077 	5.83562e-06 	-0.000547165 	0.269425
0.00928094 	5.58325e-06 	-0.000545958 	0.269103
0.00928094 	5.58325e-06 	-0.000545958 	0.269103
0.0093311 	5.32956e-06 	-0.00054466 	0.268765
0.00938127 	5.07586e-06 	-0.000543362 	0.268427
0.00938127 	5.07586e-06 	-0.000543362 	0.268427
0.00943144 	4.82205e-06 	-0.000542006 	0.268079
0.00943144 	4.82205e-06 	-0.000542006 	0.268079
0.00948161 	4.56809e-06 	-0.000540576 	0.267718
0.00948161 	4.56809e-06 	-0.000540576 	0.267718
0.00953177 	4.31414e-06 	-0.000539146 	0.267357
0.00953177 	4.31414e-06 	-0.000539146 	0.267357
0.00958194 	4.06092e-06 	-0.000537633 	0.266981
0.00958194 	4.06092e-06 	-0.000537633 	0.266981
0.00963211 	3.80817e-06 	-0.00053607 	0.266597
0.00968227 	3.55541e-06 	-0.000534507 	0.266212
0.00968227 	3.55541e-06 	-0.000534507 	0.266212
0.00973244 	3.30477e-06 	-0.000532828 	0.265808
0.00978261 	3.05452e-06 	-0.000531129 	0.265399
0.00978261 	3.05452e-06 	-0.000531129 	0.265399
0.00983278 	2.80472e-06 	-0.000529412 	0.264988
0.00983278 	2.80472e-06 	-0.000529412 	0.264988
0.00988294 	2.5581e-06 	-0.000527575 	0.264555
0.00993311 	2.31148e-06 	-0.000525737 	0.264122
0.00993311 	2.31148e-06 	-0.000525737 	0.264122
0.00998328 	2.06695e-06 	-0.000523835 	0.263678
0.0100334 	1.82496e-06 	-0.000521854 	0.263221
0.0100836 	1.58298e-06 	-0.000519874 	0.262763
0.0100836 	1.58298e-06 	-0.000519874 	0.262763
0.0101338 	1.34555e-06 	-0.000517773 	0.262284
0.0101839 	1.10909e-06 	-0.000515646 	0.261801
0.0101839 	1.10909e-06 	-0.000515646 	0.261801
0.0102341 	8.74164e-07 	-0.000513482 	0.261312
0.0102341 	8.74164e-07 	-0.000513482 	0.261312
0.0102843 	6.44025e-07 	-0.000511202 	0.260803
0.0103344 	4.13886e-07 	-0.000508923 	0.260294
0.0103344 	4.13886e-07 	-0.000508923 	0.260294
0.0103846 	1.88731e-07 	-0.000506532 	0.259765
0.0103846 	1.88731e-07 	-0.000506532 	0.259765
0.0104348 	-3.43702e-08 	-0.000504095 	0.259229
0.0104348 	-3.43702e-08 	-0.000504095 	0.259229
0.0104849 	-2.55799e-07 	-0.000501621 	0.258687
0.0104849 	-2.55799e-07 	-0.000501621 	0.258687
0.0105351 	-4.7122e-07 	-0.000499019 	0.258124
0.0105853 	-6.8664e-07 	-0.000496417 	0.25756
0.0105853 	-6.8664e-07 	-0.000496417 	0.25756
0.0106856 	-1.10285e-06 	-0.000490908 	0.256382
0.0106856 	-1.10285e-06 	-0.000490908 	0.256382
0.0107358 	-1.30679e-06 	-0.000488068 	0.255779
0.010786 	-1.50518e-06 	-0.000485114 	0.255157
0.010786 	-1.50518e-06 	-0.000485114 	0.255157
0.0108361 	-1.70351e-06 	-0.000482159 	0.254535
0.0108863 	-1.89269e-06 	-0.000479019 	0.253883
0.0108863 	-1.89269e-06 	-0.000479019 	0.253883
0.0109365 	-2.08186e-06 	-0.000475878 	0.25323
0.0109365 	-2.08186e-06 	-0.000475878 	0.25323
0.0109866 	-2.26441e-06 	-0.000472604 	0.252555
0.0110368 	-2.44395e-06 	-0.000469269 	0.251871
0.0110368 	-2.44395e-06 	-0.000469269 	0.251871
0.011087 	-2.61937e-06 	-0.00046585 	0.251173
0.011087 	-2.61937e-06 	-0.00046585 	0.251173
0.0111371 	-2.78883e-06 	-0.00046231 	0.250455
0.0111873 	-2.95649e-06 	-0.000458732 	0.249731
0.0111873 	-2.95649e-06 	-0.000458732 	0.249731
0.0112375 	-3.11534e-06 	-0.000454971 	0.248978
0.0112876 	-3.27419e-06 	-0.00045121 	0.248225
0.0112876 	-3.27419e-06 	-0.00045121 	0.248225
0.0113378 	-3.42225e-06 	-0.000447219 	0.247437
0.0113378 	-3.42225e-06 	-0.000447219 	0.247437
0.011388 	-3.56998e-06 	-0.000443221 	0.246648
0.0114381 	-3.70831e-06 	-0.000439008 	0.245826
0.0114381 	-3.70831e-06 	-0.000439008 	0.245826
0.0114883 	-3.84444e-06 	-0.000434745 	0.244998
0.0115385 	-3.97208e-06 	-0.000430273 	0.244139
0.0115385 	-3.97208e-06 	-0.000430273 	0.244139
0.0115886 	-4.09587e-06 	-0.000425706 	0.243267
0.0116388 	-4.21164e-06 	-0.000420929 	0.242366
0.0116388 	-4.21164e-06 	-0.000420929 	0.242366
0.011689 	-4.32212e-06 	-0.000416015 	0.241447
0.0117391 	-4.42492e-06 	-0.000410881 	0.240498
0.0117893 	-4.52155e-06 	-0.00040557 	0.239526
0.0118395 	-4.61076e-06 	-0.00040002 	0.238523
0.0118395 	-4.61076e-06 	-0.00040002 	0.238523
0.0118896 	-4.69368e-06 	-0.000394267 	0.237494
0.0119398 	-4.76917e-06 	-0.00038825 	0.23643
0.0119398 	-4.76917e-06 	-0.00038825 	0.23643
0.01199 	-4.83893e-06 	-0.000382028 	0.235339
0.0120401 	-4.90077e-06 	-0.000375505 	0.234205
0.0120401 	-4.90077e-06 	-0.000375505 	0.234205
0.0120903 	-4.95782e-06 	-0.0003688 	0.233047
0.0120903 	-4.95782e-06 	-0.0003688 	0.233047
0.0121906 	-5.05033e-06 	-0.000354552 	0.230607
0.0121906 	-5.05033e-06 	-0.000354552 	0.230607
0.0122408 	-5.08417e-06 	-0.000346947 	0.229313
0.012291 	-5.116e-06 	-0.000339265 	0.228007
0.012291 	-5.116e-06 	-0.000339265 	0.228007
0.0123411 	-5.13518e-06 	-0.000331096 	0.226619
0.0123913 	-5.15192e-06 	-0.000322836 	0.225215
0.0123913 	-5.15192e-06 	-0.000322836 	0.225215
0.0124415 	-5.15844e-06 	-0.000314189 	0.223741
0.0124415 	-5.15844e-06 	-0.000314189 	0.223741
0.0124916 	-5.15975e-06 	-0.00030535 	0.222229
0.0124916 	-5.15975e-06 	-0.00030535 	0.222229
0.0125418 	-5.1537e-06 	-0.00029624 	0.220664
0.012592 	-5.13934e-06 	-0.000286837 	0.219035
0.0126421 	-5.12088e-06 	-0.00027729 	0.217373
0.0126421 	-5.12088e-06 	-0.00027729 	0.217373
0.0126923 	-5.09073e-06 	-0.00026736 	0.215615
0.0127425 	-5.05678e-06 	-0.000257317 	0.213824
0.0127425 	-5.05678e-06 	-0.000257317 	0.213824
0.0127926 	-5.01407e-06 	-0.000247017 	0.211954
0.0128428 	-4.96413e-06 	-0.000236539 	0.210016
0.0128428 	-4.96413e-06 	-0.000236539 	0.210016
0.0129431 	-4.8438e-06 	-0.00021514 	0.205939
0.0129431 	-4.8438e-06 	-0.00021514 	0.205939
0.0129933 	-4.77343e-06 	-0.000204275 	0.203793
0.0130435 	-4.69625e-06 	-0.000193326 	0.201573
0.0130435 	-4.69625e-06 	-0.000193326 	0.201573
0.0131438 	-4.51898e-06 	-0.000171342 	0.196858
0.0131438 	-4.51898e-06 	-0.000171342 	0.196858
0.013194 	-4.42029e-06 	-0.000160377 	0.194373
0.0132441 	-4.31373e-06 	-0.00014951 	0.191779
0.0132441 	-4.31373e-06 	-0.00014951 	0.191779
0.0132943 	-4.20201e-06 	-0.000138733 	0.189108
0.0133445 	-4.08321e-06 	-0.000128112 	0.186329
0.0133445 	-4.08321e-06 	-0.000128112 	0.186329
0.0133946 	-3.95664e-06 	-0.000117735 	0.183418
0.0133946 	-3.95664e-06 	-0.000117735 	0.183418
0.0134448 	-3.82487e-06 	-0.000107557 	0.180413
0.0134448 	-3.82487e-06 	-0.000107557 	0.180413
0.013495 	-3.68752e-06 	-9.76107e-05 	0.177303
0.0135452 	-3.5416e-06 	-8.81001e-05 	0.174015
0.0135452 	-3.5416e-06 	-8.81001e-05 	0.174015
0.0135953 	-3.39035e-06 	-7.89029e-05 	0.170607
0.0135953 	-3.39035e-06 	-7.89029e-05 	0.170607
0.0136455 	-3.23363e-06 	-7.00463e-05 	0.16707
0.0136455 	-3.23363e-06 	-7.00463e-05 	0.16707
0.0136957 	-3.07041e-06 	-6.163e-05 	0.163367
0.0136957 	-3.07041e-06 	-6.163e-05 	0.163367
0.0137458 	-2.90032e-06 	-5.37671e-05 	0.159456
0.013796 	-2.72564e-06 	-4.63584e-05 	0.155373
0.013796 	-2.72564e-06 	-4.63584e-05 	0.155373
0.0138462 	-2.54675e-06 	-3.94347e-05 	0.151103
0.0138462 	-2.54675e-06 	-3.94347e-05 	0.151103
0.0138963 	-2.36416e-06 	-3.30274e-05 	0.146633
0.0139465 	-2.17782e-06 	-2.73308e-05 	0.141873
0.0139465 	-2.17782e-06 	-2.73308e-05 	0.141873
0.0139967 	-1.98965e-06 	-2.22004e-05 	0.136866
0.0139967 	-1.98965e-06 	-2.22004e-05 	0.136866
0.0140468 	-1.80056e-06 	-1.76358e-05 	0.131599
0.0140468 	-1.80056e-06 	-1.76358e-05 	0.131599
0.014097 	-1.61141e-06 	-1.36457e-05 	0.126049
0.0141472 	-1.42296e-06 	-1.02306e-05 	0.120194
0.0141472 	-1.42296e-06 	-1.02306e-05 	0.120194
0.0141973 	-1.23579e-06 	-7.37643e-06 	0.114007
0.0142475 	-1.05155e-06 	-5.12779e-06 	0.107388
0.0142977 	-8.73463e-07 	-3.35155e-06 	0.100354
0.0142977 	-8.73463e-07 	-3.35155e-06 	0.100354
0.0143478 	-7.07591e-07 	-2.00289e-06 	0.0928934
0.014398 	-5.61379e-07 	-1.04135e-06 	0.0850245
0.014398 	-5.61379e-07 	-1.04135e-06 	0.0850245
0.0144482 	-4.41952e-07 	-4.1534e-07 	0.0768054
0.0144983 	-3.54674e-07 	-6.10037e-08 	0.0683405
0.0144983 	-3.54674e-07 	-6.10037e-08 	0.0683405
0.0145485 	-3.01714e-07 	9.35193e-08 	0.0597804
0.0145485 	-3.01714e-07 	9.35193e-08 	0.0597804
0.0145987 	-2.80577e-07 	1.21257e-07 	0.0513065
0.0146488 	-2.83386e-07 	8.74663e-08 	0.043101
0.014699 	-2.97384e-07 	4.12548e-08 	0.0353135
0.014699 	-2.97384e-07 	4.12548e-08 	0.0353135
0.0147492 	-3.05148e-07 	1.15828e-08 	0.0280402
0.0147993 	-2.80756e-07 	6.58949e-09 	0.021326
0.0147993 	-2.80756e-07 	6.58949e-09 	0.021326
0.0148495 	-1.76147e-07 	2.39427e-08 	0.0151806
0.0148495 	-1.76147e-07 	2.39427e-08 	0.0151806
0.0148997 	3.17236e-08 	3.48858e-08 	0.00959432
0.0148997 	3.17236e-08 	3.48858e-08 	0.00959432
0.0149498 	1.86057e-07 	2.81487e-08 	0.00454779
0.0149498 	1.86057e-07 	2.81487e-08 	0.00454779
0.015 	0 	0 	0
0.015 	0 	0 	0
