/*--------------------------------*- C++ -*----------------------------------*\
| =========                 |                                                 |
| \\      /  F ield         | OpenFOAM: The Open Source CFD Toolbox           |
|  \\    /   O peration     | Version:  v1912                                 |
|   \\  /    A nd           | Website:  www.openfoam.com                      |
|    \\/     M anipulation  |                                                 |
\*---------------------------------------------------------------------------*/
FoamFile
{
    version     2.0;
    format      ascii;
    class       volScalarField;
    location    "98";
    object      heatTransferCoeff(T);
}
// * * * * * * * * * * * * * * * * * * * * * * * * * * * * * * * * * * * * * //

dimensions      [1 0 -3 -1 0 0 0];


internalField   uniform 0;

boundaryField
{
    leftWall
    {
        type            calculated;
        value           nonuniform List<scalar> 
100
(
6.39906
-65.13
21.8749
-141.469
-21.1513
-170.514
-42.5907
-181.381
-73.4558
-174.716
-77.435
-148.571
-159.404
-194.674
-170.207
-200.487
-174.094
-200.085
-175.258
-177.467
-189.182
-207.174
-221.605
-216.171
-224.33
-214.882
-227.832
-210.602
-231.547
-190.425
-235.988
-230.573
-247.918
-230.026
-248.615
-226.043
-252.215
-218.876
-257.695
-199.996
-248.179
-241.256
-258.7
-239.87
-259.015
-235.512
-262.258
-227.952
-267.809
-210.605
-251.874
-245.159
-261.355
-243.286
-261.275
-238.885
-264.494
-231.314
-270.272
-214.375
-248.185
-241.263
-258.707
-239.876
-259.021
-235.517
-262.263
-227.957
-267.815
-210.608
-236.007
-230.587
-247.935
-230.038
-248.631
-226.053
-252.23
-218.884
-257.71
-200.003
-189.223
-207.206
-221.639
-216.194
-224.36
-214.9
-227.859
-210.618
-231.574
-190.442
-77.5263
-148.609
-159.486
-194.715
-170.28
-200.523
-174.154
-200.116
-175.315
-177.497
)
;
    }
    rightWall
    {
        type            calculated;
        value           nonuniform List<scalar> 
100
(
-589.491
-450.314
-386.241
-400.087
-422.101
-436.405
-421.235
-489.281
-358.552
-770.686
-562.863
-426.92
-355.324
-402.435
-406.207
-451.243
-406.194
-508.786
-336.114
-774.108
-530.356
-459.949
-380.962
-433.993
-399.998
-463.687
-388.102
-516.781
-311.989
-764.483
-519.771
-469.987
-371.595
-435.926
-383.359
-472.652
-376.464
-526.896
-303.951
-748.182
-511.374
-472.725
-372.502
-445.582
-381.776
-480.274
-371.992
-532.715
-298.591
-740.389
-507.742
-475.683
-374.452
-446.767
-379.536
-479.606
-368.913
-532.042
-296.361
-738
-511.366
-472.749
-372.511
-445.593
-381.769
-480.277
-371.982
-532.715
-298.579
-740.384
-519.76
-470.015
-371.613
-435.955
-383.357
-472.662
-376.446
-526.898
-303.935
-748.174
-530.347
-459.944
-380.934
-434.005
-399.978
-463.703
-388.076
-516.795
-311.958
-764.475
-562.854
-426.916
-355.31
-402.437
-406.201
-451.242
-406.185
-508.78
-336.119
-774.096
)
;
    }
    leftSides_periodic0
    {
        type            cyclic;
    }
    leftSides_periodic1
    {
        type            cyclic;
    }
    rightSides_periodic0
    {
        type            cyclic;
    }
    rightSides_periodic1
    {
        type            cyclic;
    }
    leftInOut_periodic0
    {
        type            cyclic;
    }
    leftInOut_periodic1
    {
        type            cyclic;
    }
    rightInOut_periodic0
    {
        type            cyclic;
    }
    rightInOut_periodic1
    {
        type            cyclic;
    }
}


// ************************************************************************* //
