/*--------------------------------*- C++ -*----------------------------------*\
| =========                 |                                                 |
| \\      /  F ield         | OpenFOAM: The Open Source CFD Toolbox           |
|  \\    /   O peration     | Version:  v1912                                 |
|   \\  /    A nd           | Website:  www.openfoam.com                      |
|    \\/     M anipulation  |                                                 |
\*---------------------------------------------------------------------------*/
FoamFile
{
    version     2.0;
    format      ascii;
    class       volScalarField;
    location    "98";
    object      k;
}
// * * * * * * * * * * * * * * * * * * * * * * * * * * * * * * * * * * * * * //

dimensions      [0 2 -2 0 0 0 0];


internalField   nonuniform List<scalar> 
2528
(
9.26136e-07
1.48615e-06
6.05159e-07
7.76298e-07
5.14275e-07
5.03818e-07
2.97547e-07
2.65878e-07
2.59179e-06
2.00014e-06
1.44955e-06
1.06839e-06
8.84602e-06
6.77977e-06
4.99362e-06
3.64693e-06
2.16369e-05
1.6658e-05
1.2368e-05
9.06703e-06
4.29444e-05
3.31794e-05
2.49069e-05
1.84094e-05
7.37319e-05
5.71097e-05
4.35154e-05
3.25684e-05
0.000113412
8.81054e-05
6.83829e-05
5.20418e-05
0.000159765
0.00012468
9.88325e-05
7.67291e-05
0.000209563
0.000164564
0.000133419
0.000105846
0.000259594
0.000205315
0.000170284
0.000138062
0.000307412
0.000244855
0.000207599
0.000171827
0.000351555
0.000281737
0.000243883
0.00020571
0.000391393
0.000315183
0.000278121
0.000238608
0.000426881
0.000345131
0.000309758
0.000269812
0.000458302
0.000371519
0.000338681
0.000299028
0.000485854
0.000394406
0.000364854
0.000326243
0.000509794
0.000413937
0.000388251
0.000351386
0.000530405
0.000430315
0.000408905
0.000374445
0.000547972
0.00044377
0.000426893
0.000395455
0.000562768
0.000454543
0.000442315
0.00041449
0.000575045
0.000462871
0.000455286
0.000431641
0.00058503
0.000468984
0.000465922
0.000447008
0.000592931
0.000473104
0.000474344
0.000460693
0.000598932
0.000475441
0.000480676
0.000472802
0.000603196
0.00047619
0.000485044
0.000483437
0.00060587
0.000475537
0.000487575
0.000492696
0.000607085
0.000473653
0.000488395
0.000500668
0.000606962
0.000470695
0.000487624
0.000507429
0.000605621
0.000466809
0.000485379
0.000513056
0.000603179
0.000462128
0.000481776
0.000517623
0.000599744
0.000456774
0.000476927
0.000521199
0.000595408
0.000450862
0.000470945
0.00052385
0.000590249
0.000444497
0.000463936
0.00052564
0.000584329
0.000437771
0.000456006
0.000526626
0.000577715
0.000430764
0.000447258
0.000526865
0.000570491
0.000423543
0.000437795
0.000526409
0.000562773
0.000416157
0.000427716
0.000525311
0.000554681
0.000408644
0.000417117
0.000523619
0.000546319
0.000401031
0.000406087
0.000521385
0.000537754
0.000393337
0.000394705
0.000518659
0.000529027
0.000385587
0.000383056
0.000515485
0.000520177
0.000377805
0.000371244
0.000511899
0.00051124
0.000370023
0.000359381
0.000507944
0.000502263
0.000362278
0.000347563
0.000503655
0.000493302
0.00035461
0.000335875
0.000499067
0.000484437
0.000347064
0.000324396
0.00049421
0.000475732
0.000339674
0.000313214
0.000489109
0.000467186
0.000332464
0.000302433
0.000483785
0.000458727
0.000325431
0.000292091
0.000478255
0.000450275
0.000318549
0.000282131
0.000472535
0.000441794
0.000311801
0.000272538
0.000466637
0.000433281
0.000305194
0.000263345
0.000460577
0.000424758
0.000298721
0.000254577
0.000454365
0.000416273
0.000292382
0.000246259
0.000448011
0.000407884
0.000286202
0.00023842
0.000441509
0.000399587
0.000280207
0.000231089
0.000434845
0.000391398
0.000274433
0.000224294
0.000427992
0.000383373
0.000268919
0.00021807
0.000420926
0.000375482
0.000263712
0.000212456
0.000413625
0.000367623
0.000258861
0.000207512
0.000406075
0.000359707
0.000254423
0.000203277
0.00039827
0.000351674
0.000250456
0.000199767
0.000390214
0.000343482
0.00024702
0.000196991
0.000381906
0.000335107
0.000244175
0.000194955
0.000373327
0.00032654
0.000241981
0.000193664
0.000364447
0.000317783
0.00024049
0.00019312
0.000355263
0.000308849
0.000239751
0.000193318
0.000345795
0.000299766
0.000239803
0.000194254
0.000336034
0.000290571
0.000240679
0.000195917
0.000325985
0.00028131
0.000242401
0.000198292
0.000315682
0.00027204
0.000244982
0.00020136
0.000305166
0.000262823
0.000248426
0.000205096
0.000294485
0.000253732
0.000252728
0.000209473
0.000283703
0.000244851
0.000257881
0.000214458
0.000272905
0.00023628
0.000263881
0.000220016
0.00026221
0.000228136
0.000270738
0.000226107
0.000251792
0.000220559
0.000278505
0.000232686
0.000241907
0.000213709
0.000287296
0.000239705
0.000232904
1.99641e-06
2.60017e-06
1.99804e-06
1.48093e-06
4.61835e-07
8.15119e-07
5.16871e-07
3.56636e-07
1.35287e-06
3.02511e-06
1.66849e-06
9.70834e-07
4.56713e-06
1.01185e-05
5.62277e-06
3.17699e-06
1.1322e-05
2.45834e-05
1.38697e-05
7.80199e-06
2.26995e-05
4.83099e-05
2.77217e-05
1.56634e-05
3.93351e-05
8.18389e-05
4.79267e-05
2.73594e-05
6.12476e-05
0.000124014
7.44303e-05
4.31334e-05
8.77823e-05
0.000172178
0.000106302
6.27913e-05
0.000117719
0.000222949
0.000141909
8.57032e-05
0.000149548
0.000273162
0.000179319
0.000110922
0.000181797
0.000320465
0.00021673
0.00013738
0.000213241
0.000363501
0.000252734
0.000164096
0.000243018
0.000401938
0.000286418
0.000190291
0.000270719
0.000435694
0.000317413
0.000215434
0.000296139
0.000464885
0.000345547
0.00023921
0.000319237
0.000489733
0.000370816
0.000261469
0.00034011
0.000510519
0.000393341
0.000282178
0.000358916
0.000527548
0.000413291
0.000301391
0.000375834
0.000541121
0.000430838
0.000319171
0.000391037
0.000551521
0.000446152
0.000335606
0.00040468
0.00055901
0.00045939
0.000350789
0.000416896
0.000563819
0.000470698
0.000364809
0.000427797
0.000566156
0.000480204
0.000377752
0.000437474
0.000566202
0.000488017
0.000389696
0.000446002
0.000564116
0.000494226
0.000400712
0.000453437
0.000560041
0.000498903
0.000410869
0.000459818
0.000554105
0.00050211
0.000420225
0.000465186
0.000546428
0.000503896
0.00042883
0.00046958
0.000537123
0.000504306
0.000436724
0.00047305
0.000526297
0.000503382
0.000443946
0.000475658
0.00051406
0.000501161
0.000450525
0.000477473
0.000500519
0.000497683
0.000456491
0.000478573
0.000485781
0.000492984
0.000461869
0.000479065
0.000469947
0.000487102
0.000466686
0.000479098
0.000453134
0.000480083
0.000470966
0.000478812
0.000435532
0.000471997
0.000474738
0.000478124
0.000417411
0.000462958
0.000478031
0.000476539
0.000399123
0.000453132
0.000480877
0.000473594
0.000381116
0.000442695
0.000483297
0.00046974
0.000363787
0.00043174
0.0004853
0.000465876
0.000346988
0.00042014
0.000486898
0.000462402
0.000330511
0.000407533
0.000488102
0.000459567
0.000314426
0.000393563
0.000488922
0.000457736
0.00029886
0.000378314
0.000489358
0.00045691
0.000283938
0.000362589
0.000489399
0.000455488
0.000269781
0.000347606
0.000489044
0.000449003
0.000256509
0.00033414
0.000488332
0.000437103
0.00024424
0.000321748
0.000487369
0.000425412
0.000233093
0.000309835
0.000486303
0.000417002
0.000223173
0.000298291
0.000485232
0.000410707
0.000214572
0.000287172
0.000484225
0.000405566
0.000207369
0.00027656
0.000483238
0.000401519
0.000201651
0.000266526
0.000481993
0.000399059
0.000197582
0.000257133
0.000480143
0.000398728
0.000195249
0.000248432
0.000477583
0.000400046
0.000194597
0.000240465
0.000474625
0.000398837
0.000195528
0.000233267
0.000471692
0.000387768
0.000197918
0.000226869
0.000468948
0.000370848
0.000201621
0.000221314
0.00046632
0.000358046
0.000206486
0.000216663
0.000463704
0.000349007
0.000212361
0.000212935
0.000461044
0.000341595
0.000219102
0.000210102
0.000458328
0.000335019
0.000226579
0.000208128
0.000455548
0.000329128
0.000234677
0.000206974
0.000452689
0.00032385
0.000243298
0.000206596
0.000449738
0.000319158
0.000252367
0.000206949
0.000446685
0.000315002
0.000261827
0.000207985
0.000443535
0.000311336
0.000271654
0.000209656
0.000440306
0.000308128
0.000281852
0.000211916
0.000437045
0.000305364
0.000292456
0.000214722
0.000433833
0.000303044
0.000303536
0.000218032
0.000430813
0.000301178
0.000315127
0.000221808
0.000428213
0.000299783
0.000327012
0.000226014
0.000426428
0.000298883
0.000339154
0.000230613
0.000426163
0.000298498
0.000352627
0.000235566
0.000428428
0.000298647
0.000369688
0.000240833
0.000433859
0.000299352
0.000392378
0.00024639
0.000440995
0.000300667
0.000412219
0.000252225
0.000439429
2.35461e-06
1.81826e-06
1.71282e-06
2.01257e-06
5.97941e-07
4.59286e-07
3.95475e-07
4.87577e-07
1.87463e-06
1.39822e-06
9.56084e-07
1.28777e-06
6.31786e-06
4.67091e-06
3.04959e-06
4.16158e-06
1.56087e-05
1.15186e-05
7.41452e-06
1.01246e-05
3.1163e-05
2.30806e-05
1.47768e-05
2.00876e-05
5.36001e-05
4.00614e-05
2.56275e-05
3.4521e-05
8.24671e-05
6.25233e-05
4.00993e-05
5.32902e-05
0.000116283
8.98153e-05
5.79168e-05
7.56557e-05
0.000152923
0.000120689
7.84307e-05
0.000100428
0.000190176
0.000153585
0.000100735
0.000126226
0.000226202
0.000186978
0.000123836
0.00015175
0.000259774
0.000219621
0.000146823
0.000175961
0.000290452
0.000250642
0.00016897
0.000198168
0.000318043
0.000279551
0.000189799
0.000218132
0.00034251
0.000306225
0.00020915
0.000235745
0.000363947
0.000330633
0.000226931
0.000251
0.000382537
0.000352814
0.000243118
0.000263977
0.000398512
0.00037286
0.000257743
0.000274813
0.000412128
0.000390897
0.000270881
0.000283687
0.000423649
0.000407071
0.000282628
0.000290799
0.000433332
0.000421529
0.000293096
0.000296365
0.000441421
0.000434415
0.000302396
0.000300596
0.000448145
0.000445864
0.000310642
0.000303695
0.00045371
0.000455996
0.000317935
0.000305841
0.000458301
0.000464917
0.000324371
0.000307189
0.000462074
0.000472716
0.000330029
0.000307855
0.000465146
0.000479465
0.000334976
0.000307936
0.000467611
0.000485218
0.000339259
0.000307516
0.000469532
0.00049002
0.000342912
0.000306662
0.000470956
0.000493911
0.000345957
0.000305429
0.00047192
0.000496921
0.000348406
0.000303862
0.000472456
0.000499072
0.000350268
0.000301999
0.000472596
0.000500381
0.000351547
0.000299867
0.000472373
0.000500854
0.000352243
0.00029749
0.000471814
0.000500496
0.000352358
0.000294884
0.000470929
0.000499312
0.000351888
0.000292064
0.000469706
0.000497313
0.000350828
0.000289038
0.000468115
0.000494516
0.00034917
0.000285814
0.000466129
0.000490948
0.000346906
0.000282395
0.000463739
0.000486639
0.000344028
0.000278784
0.000460947
0.000481619
0.000340531
0.000274982
0.000457758
0.000475921
0.000336413
0.000270989
0.000454179
0.000469577
0.000331685
0.000266805
0.000450212
0.000462621
0.000326368
0.000262431
0.000445849
0.000455088
0.000320507
0.000257867
0.000441063
0.000447016
0.000314165
0.000253117
0.000435785
0.000438444
0.000307408
0.000248186
0.000429994
0.000429411
0.000300294
0.000243083
0.000423764
0.000419958
0.000292869
0.000237816
0.000417196
0.000410124
0.000285167
0.000232399
0.000410366
0.000399945
0.000277213
0.000226844
0.000403303
0.000389453
0.000269042
0.000221164
0.000396023
0.000378679
0.000260715
0.000215371
0.000388522
0.000367667
0.000252295
0.000209479
0.000380725
0.000356482
0.000243837
0.000203507
0.000372478
0.000345225
0.000235384
0.000197479
0.000363568
0.00033403
0.000226974
0.000191427
0.000353852
0.000323029
0.000218648
0.00018538
0.000343474
0.000312178
0.000210451
0.000179363
0.000332794
0.000301385
0.000202432
0.000173399
0.000322136
0.000290651
0.000194639
0.000167517
0.000311704
0.000279986
0.000187126
0.000161742
0.000301487
0.000269395
0.00017995
0.000156092
0.000291382
0.00025888
0.00017317
0.000150568
0.000281375
0.000248439
0.000166851
0.000145175
0.000271498
0.00023808
0.000161125
0.000140003
0.000261781
0.000227833
0.000156134
0.000135233
0.000252246
0.000217734
0.000151968
0.000130999
0.000242918
0.000207816
0.000148702
0.000127451
0.000233828
0.000198121
0.000146405
0.0001248
0.000225013
0.000188701
0.00014514
0.000123283
0.000216518
0.000179622
0.000144954
0.000123126
0.000208406
0.000170962
0.000145883
0.0001245
0.000200751
0.000162814
0.00014794
0.000127494
0.000193645
0.000155282
0.000151125
0.00013209
0.000187195
0.000148465
0.000155421
0.00013816
0.000181522
0.000142417
0.000160796
0.000145467
0.000176766
0.00013709
0.000167208
0.000153696
2.92467e-07
1.40221e-06
7.82841e-07
4.94871e-07
2.16767e-07
5.03814e-07
3.47694e-07
2.04496e-07
1.18445e-06
2.06173e-06
1.59964e-06
9.27608e-07
4.11482e-06
6.95645e-06
5.46759e-06
3.23214e-06
1.02348e-05
1.69738e-05
1.34545e-05
8.14333e-06
2.07058e-05
3.35507e-05
2.68604e-05
1.6704e-05
3.63575e-05
5.72729e-05
4.63862e-05
2.97368e-05
5.74298e-05
8.75814e-05
7.18488e-05
4.75936e-05
8.34233e-05
0.000122798
0.000102128
6.99892e-05
0.000113154
0.000160532
0.000135413
9.60227e-05
0.00014502
0.000198304
0.000169652
0.000124397
0.000177368
0.000234094
0.000203011
0.000153725
0.000208807
0.000266736
0.000234161
0.000182797
0.000238407
0.000295852
0.000262462
0.000210743
0.000265704
0.000321174
0.00028773
0.000237173
0.00029063
0.00034264
0.00030981
0.000261913
0.000313095
0.000360344
0.000328682
0.000284814
0.000333088
0.000374485
0.000344421
0.000305814
0.000350664
0.00038533
0.000357179
0.000324916
0.000365936
0.000393177
0.000367146
0.000342173
0.000379041
0.000398334
0.000374539
0.000357662
0.000390131
0.000401108
0.000379581
0.00037148
0.000399363
0.000401796
0.000382499
0.000383724
0.000406911
0.000400675
0.00038351
0.00039449
0.000412974
0.000398003
0.000382822
0.000403879
0.000417765
0.000394016
0.000380633
0.000412
0.000421412
0.000388931
0.000377129
0.00041897
0.000423851
0.000382943
0.000372487
0.000424902
0.000424901
0.000376226
0.000366865
0.000429887
0.000424649
0.000368938
0.000360412
0.000434001
0.000423476
0.000361219
0.000353261
0.000437318
0.000422222
0.000353194
0.000345533
0.000439905
0.000421546
0.000344974
0.000337337
0.000441824
0.000421657
0.000336661
0.000328757
0.000443131
0.000422092
0.000328352
0.000319845
0.000443874
0.000421346
0.000320126
0.000310633
0.000444094
0.000418192
0.000312032
0.000301187
0.000443829
0.000413013
0.000304077
0.000291639
0.000443116
0.000407282
0.000296272
0.000282156
0.000441988
0.000402064
0.000288622
0.000272844
0.000440477
0.000397521
0.000281143
0.000263731
0.000438612
0.000393384
0.000273858
0.00025483
0.000436419
0.000389415
0.000266786
0.000246169
0.000433922
0.000385491
0.000259946
0.000237763
0.000431138
0.000381551
0.00025336
0.000229627
0.000428077
0.000377558
0.000247047
0.000221801
0.000424753
0.000373475
0.000241027
0.000214324
0.000421178
0.000369268
0.000235324
0.00020723
0.000417365
0.000364914
0.000229962
0.000200549
0.000413334
0.000360393
0.000224966
0.000194315
0.000409098
0.000355692
0.000220364
0.000188565
0.000404665
0.000350799
0.000216182
0.000183342
0.000400029
0.000345701
0.000212448
0.000178695
0.000395186
0.000340386
0.000209189
0.000174675
0.000390129
0.000334839
0.000206427
0.00017132
0.000384854
0.000329046
0.000204187
0.000168658
0.00037936
0.000322989
0.000202485
0.00016671
0.000373649
0.000316651
0.000201339
0.000165491
0.000367719
0.000310013
0.000200757
0.000165006
0.000361571
0.000303066
0.000200743
0.00016525
0.000355204
0.000295821
0.000201297
0.00016621
0.000348614
0.000288325
0.000202414
0.000167864
0.000341801
0.000280656
0.000204084
0.000170187
0.000334764
0.000272898
0.000206297
0.000173147
0.000327509
0.000265098
0.00020904
0.000176712
0.000320061
0.000257252
0.000212299
0.000180848
0.000312444
0.00024932
0.000216059
0.00018552
0.000304694
0.000241262
0.000220306
0.000190697
0.000296861
0.000233068
0.000225028
0.000196347
0.000289001
0.000224842
0.000230213
0.000202441
0.000281178
0.000216744
0.000235852
0.00020895
0.000273473
0.000208923
0.000241943
0.000215847
0.000265978
0.000201529
0.000248492
0.000223105
0.000258792
0.000194672
0.00025552
0.000230696
0.000252025
0.000188407
0.000263071
0.000238594
0.000245783
0.000182781
0.000271229
0.000246772
0.000240173
0.000177839
0.000280161
0.000255197
0.000235292
0.000173631
0.000290235
0.000263828
0.00023124
0.000170213
0.000301887
0.000272631
0.000228107
0.000207799
0.00029713
0.000247076
0.000225125
0.000203046
0.000307676
0.000254662
0.000218635
0.000199594
0.000318494
0.000262363
0.000213287
0.000197547
0.000329285
0.000270123
0.000208986
0.000196994
0.000339918
0.000277895
0.000205709
0.000198
0.000350373
0.000285637
0.000203457
0.00020061
0.000360652
0.000293313
0.000202242
0.00020484
0.00037075
0.000300891
0.00020207
0.000210666
0.000380641
0.00030834
0.00020294
0.000217898
0.000390283
0.000315634
0.000204835
0.000226345
0.000399607
0.000322748
0.00020772
0.000235954
0.000408512
0.00032966
0.000211544
0.000246632
0.000416888
0.000336348
0.000216238
0.000258276
0.000424662
0.000342796
0.000221725
0.00027077
0.000431837
0.000348989
0.000227916
0.000284002
0.000438454
0.000354917
0.000234718
0.000297857
0.000444558
0.00036057
0.000242035
0.000312233
0.000450176
0.000365943
0.000249774
0.00032703
0.000455316
0.000371028
0.000257841
0.000342158
0.000459969
0.000375823
0.000266151
0.000357532
0.000464108
0.000380325
0.000274622
0.000373073
0.000467703
0.000384531
0.000283182
0.000388702
0.000470733
0.000388444
0.000291767
0.000404346
0.0004732
0.000392064
0.000300341
0.000419929
0.000475119
0.000395394
0.000308886
0.000435377
0.000476513
0.000398438
0.000317371
0.000450635
0.000477403
0.000401203
0.000325762
0.000465626
0.000477805
0.000403695
0.000334022
0.00048024
0.000477734
0.000405924
0.000342117
0.000494412
0.000477202
0.000407898
0.000350016
0.000508099
0.000476223
0.000409628
0.000357694
0.000521265
0.000474813
0.000411126
0.000365131
0.000533875
0.000472991
0.000412405
0.000372316
0.000545903
0.000470774
0.000413478
0.000379241
0.000557323
0.000468177
0.000414359
0.000385911
0.000568114
0.00046521
0.000415062
0.000392338
0.000578255
0.000461886
0.0004156
0.000398543
0.000587729
0.000458221
0.000415987
0.000404533
0.000596517
0.000454231
0.000416232
0.000410318
0.000604603
0.000449928
0.000416341
0.000415906
0.000611974
0.000445322
0.000416311
0.00042131
0.000618609
0.000440418
0.000416137
0.00042654
0.000624486
0.000435215
0.000415802
0.000431613
0.000629577
0.000429708
0.000415283
0.00043655
0.000633854
0.000423882
0.000414543
0.00044137
0.000637284
0.000417716
0.000413535
0.000446076
0.000639825
0.000411174
0.000412195
0.000450655
0.00064142
0.000404214
0.000410441
0.000455075
0.000641992
0.000396786
0.000408177
0.00045928
0.000641442
0.000388829
0.000405283
0.000463185
0.000639645
0.00038027
0.000401606
0.000466677
0.000636451
0.000371022
0.0003969
0.000469561
0.000631683
0.000360987
0.000390894
0.000471596
0.000625132
0.000350047
0.000383321
0.000472499
0.000616557
0.000338071
0.000373943
0.00047195
0.000605683
0.000324909
0.000362547
0.000469585
0.000592187
0.000310379
0.000348939
0.000464996
0.00057572
0.000294316
0.000332955
0.000457735
0.00055591
0.000276589
0.00031447
0.000447321
0.000532378
0.000257112
0.000293426
0.00043326
0.000504756
0.000235863
0.000269862
0.000415071
0.00047273
0.000212859
0.000243931
0.000392335
0.000436089
0.000188276
0.000215905
0.000364752
0.000394801
0.000162518
0.000186132
0.000332225
0.000349076
0.000136244
0.000155477
0.000294962
0.00029925
0.000110355
0.000125179
0.000253533
0.000246628
8.59158e-05
9.66715e-05
0.000208959
0.000193602
6.3981e-05
7.13225e-05
0.000163611
0.000143396
4.53816e-05
5.01248e-05
0.00012061
9.93746e-05
3.05415e-05
3.34813e-05
8.30592e-05
6.40214e-05
1.94173e-05
2.11921e-05
5.31041e-05
3.81377e-05
1.15842e-05
1.26352e-05
3.13241e-05
2.08415e-05
6.40971e-06
7.01394e-06
1.687e-05
1.02765e-05
3.22238e-06
3.54976e-06
8.12871e-06
4.42066e-06
1.4204e-06
1.57943e-06
3.37632e-06
1.55603e-06
5.16684e-07
5.80178e-07
1.13331e-06
4.03339e-07
1.45754e-07
1.61906e-07
2.81901e-07
1.09571e-07
6.5344e-08
5.88745e-08
9.38277e-08
4.16248e-07
3.1789e-07
2.53824e-07
4.54785e-07
0.000302652
0.000415952
0.000258276
0.000419275
0.000305268
0.000411228
0.000264391
0.000393997
0.000308439
0.000406595
0.000270471
0.000375707
0.000312119
0.000404303
0.000276497
0.000361704
0.000316272
0.000404134
0.000282461
0.000349373
0.000320868
0.000405164
0.000288355
0.000337798
0.000325879
0.00040663
0.000294178
0.000327164
0.000331278
0.000408101
0.000299933
0.0003175
0.000337037
0.000409339
0.000305629
0.00030866
0.000343129
0.000410227
0.000311277
0.000300538
0.000349522
0.000410727
0.000316889
0.00029308
0.000356186
0.000410831
0.000322483
0.000286282
0.000363087
0.00041054
0.000328078
0.000280179
0.000370194
0.000409858
0.000333693
0.000274827
0.000377474
0.000408801
0.000339348
0.000270303
0.000384894
0.000407394
0.000345061
0.000266693
0.000392423
0.00040567
0.000350846
0.000264092
0.000400032
0.000403665
0.000356716
0.000262597
0.000407695
0.000401415
0.000362684
0.0002623
0.000415388
0.000398955
0.000368757
0.000263284
0.000423091
0.000396317
0.000374943
0.000265617
0.000430786
0.000393531
0.000381246
0.000269352
0.000438461
0.000390628
0.000387673
0.000274523
0.000446106
0.000387635
0.000394227
0.000281148
0.000453716
0.00038458
0.000400912
0.000289187
0.000461286
0.000381488
0.000407731
0.000298536
0.000468815
0.000378381
0.000414684
0.000309104
0.000476301
0.000375281
0.000421771
0.000320825
0.000483743
0.000372206
0.000428986
0.000333637
0.00049114
0.000369172
0.000436321
0.00034748
0.000498487
0.000366187
0.000443759
0.000362285
0.000505783
0.000363252
0.00045128
0.000377978
0.000513019
0.000360374
0.000458868
0.000394481
0.000520188
0.000357562
0.000466548
0.000411722
0.000527277
0.000354819
0.000474369
0.000429636
0.000534272
0.000352144
0.000482271
0.000448163
0.000541153
0.00034953
0.000490112
0.000467247
0.000547895
0.000346964
0.000497732
0.000486827
0.000554475
0.000344428
0.000505004
0.000506811
0.00056086
0.000341898
0.000511828
0.000527113
0.000567008
0.000339343
0.000518106
0.000547747
0.000572862
0.000336725
0.00052374
0.000569254
0.000578361
0.000334001
0.00052862
0.000592273
0.000583445
0.000331121
0.00053263
0.000616302
0.000588053
0.000328026
0.000535648
0.000640172
0.000592126
0.000324649
0.000537549
0.000662929
0.000595546
0.000320916
0.000538202
0.000684171
0.000598122
0.000316742
0.000537475
0.000703845
0.000599615
0.000312055
0.000535227
0.000721959
0.000599778
0.000306769
0.000531307
0.000738363
0.000598386
0.000300781
0.000525553
0.000752753
0.000595224
0.000293944
0.000517794
0.000764749
0.00059007
0.000286078
0.000507844
0.000773954
0.000582694
0.000277011
0.000495475
0.000779961
0.000572847
0.000266608
0.000480508
0.000782345
0.000560234
0.000254778
0.00046278
0.000780657
0.000544569
0.000241469
0.00044217
0.000774426
0.000525562
0.000226659
0.000418605
0.000763153
0.000502942
0.000210365
0.00039208
0.00074627
0.000476481
0.000192649
0.000362674
0.000723236
0.000446022
0.000173638
0.000330568
0.000693511
0.000411518
0.000153525
0.000296077
0.000656629
0.000373078
0.000132608
0.000259666
0.000612277
0.000331019
0.000111456
0.000221874
0.00056038
0.000285941
9.07923e-05
0.000183595
0.000501207
0.000238596
7.14071e-05
0.000146342
0.00043552
0.000190811
5.40423e-05
0.000111852
0.000364694
0.000145145
3.92527e-05
8.1697e-05
0.000290838
0.000104325
2.73011e-05
5.69055e-05
0.000218452
7.05167e-05
1.81361e-05
3.77445e-05
0.00015304
4.46813e-05
1.14578e-05
2.37779e-05
9.93038e-05
2.64345e-05
6.83122e-06
1.41399e-05
5.94274e-05
1.44744e-05
3.79247e-06
7.83966e-06
3.26153e-05
7.19831e-06
1.91695e-06
3.9641e-06
1.61792e-05
3.13625e-06
8.49265e-07
1.75965e-06
7.01987e-06
1.11964e-06
3.08441e-07
6.40594e-07
2.4948e-06
2.90088e-07
8.22736e-08
1.69157e-07
6.4195e-07
6.05936e-08
2.16593e-08
3.5112e-08
1.27376e-07
1.63079e-07
7.74114e-08
9.0151e-08
3.16683e-07
0.0001731
0.000132473
0.000174555
0.00016256
0.000170669
0.000128802
0.000182612
0.000171946
0.000169527
0.000126354
0.00019116
0.000181817
0.00016968
0.000125314
0.000200102
0.000192102
0.000171116
0.000125686
0.000209376
0.000202716
0.0001738
0.000127337
0.000218926
0.000213595
0.000177679
0.000130083
0.000228704
0.000224698
0.000182686
0.000133749
0.000238668
0.000235995
0.000188738
0.000138197
0.00024878
0.000247464
0.000195668
0.000143331
0.000259043
0.000259092
0.000203319
0.000149114
0.000269587
0.000270867
0.000211628
0.000155567
0.000280484
0.000282739
0.000220529
0.000162747
0.000291598
0.000294687
0.000229964
0.000170679
0.00030279
0.000306739
0.000239879
0.0001793
0.000313969
0.000319019
0.000250226
0.000188514
0.00032508
0.000331709
0.000260966
0.000198228
0.000336062
0.000344782
0.000272067
0.000208383
0.00034688
0.000358092
0.000283505
0.000218959
0.000357542
0.000371552
0.000295256
0.000229966
0.000368055
0.000385122
0.000307304
0.000241427
0.000378418
0.000398784
0.000319734
0.000253368
0.000388628
0.000412518
0.000332645
0.000265796
0.000398679
0.000426301
0.000345976
0.000278698
0.000408559
0.000440105
0.000359646
0.000292048
0.000418255
0.000453895
0.00037358
0.000305809
0.000427749
0.000467627
0.00038771
0.000319948
0.000437017
0.000481222
0.000401979
0.000334432
0.000446032
0.000494617
0.000416339
0.000349236
0.00045476
0.000507776
0.000430701
0.000364417
0.000463165
0.000520663
0.00044498
0.000380001
0.000471203
0.000533241
0.000459145
0.000395842
0.000478829
0.000545471
0.000473168
0.0004118
0.000485988
0.000557315
0.000487016
0.000427785
0.000492623
0.000568733
0.000500652
0.000443715
0.000498671
0.000579681
0.000514036
0.000459496
0.000504076
0.000590109
0.000527121
0.000475032
0.000508769
0.000599956
0.000539854
0.000490228
0.000512667
0.000609149
0.000552198
0.000504985
0.000515693
0.000617603
0.000564108
0.000519202
0.000517774
0.000625239
0.000575507
0.000532774
0.000518843
0.000631956
0.000586317
0.000545593
0.000518835
0.000637622
0.000596449
0.000557545
0.000517691
0.000642093
0.000605808
0.000568511
0.000515355
0.000645221
0.000614289
0.000578365
0.000511777
0.000646857
0.000621773
0.000586977
0.00050691
0.000646869
0.000628133
0.000594206
0.000500716
0.000645134
0.000633228
0.000599903
0.000493154
0.000641537
0.000636906
0.000603911
0.000484181
0.000635965
0.000639005
0.000606064
0.000473749
0.000628307
0.000639351
0.000606181
0.000461804
0.000618453
0.000637759
0.000604075
0.000448267
0.000606298
0.000634034
0.000599545
0.000433067
0.000591747
0.000627966
0.000592381
0.000416144
0.000574702
0.000619328
0.000582354
0.000397454
0.000555031
0.000607869
0.00056922
0.000376965
0.000532622
0.000593305
0.00055274
0.000354671
0.000507405
0.000575353
0.000532684
0.000330596
0.000479356
0.000553723
0.000508846
0.0003048
0.000448494
0.000528133
0.000481057
0.000277388
0.000414901
0.000498336
0.000449219
0.000248531
0.000378729
0.000464145
0.000413342
0.000218413
0.000340198
0.000425492
0.00037359
0.000187542
0.00029945
0.000382484
0.000330314
0.00015671
0.000257078
0.000335478
0.000283827
0.000126902
0.000214138
0.000284937
0.000235373
9.92041e-05
0.000172097
0.000232418
0.000187026
7.46225e-05
0.000132707
0.000180482
0.000141401
5.38815e-05
9.7711e-05
0.000132297
0.000101136
3.72752e-05
6.84388e-05
9.08998e-05
6.81637e-05
2.46511e-05
4.54686e-05
5.82443e-05
4.31669e-05
1.55218e-05
2.85573e-05
3.46407e-05
2.55784e-05
9.23484e-06
1.68533e-05
1.89679e-05
1.40481e-05
5.12232e-06
9.23596e-06
9.39628e-06
7.01327e-06
2.58954e-06
4.60002e-06
4.06725e-06
3.06837e-06
1.14824e-06
2.00487e-06
1.43972e-06
1.09948e-06
4.17057e-07
7.14022e-07
3.68597e-07
2.84061e-07
1.09348e-07
1.82318e-07
7.34629e-08
5.20892e-08
2.09556e-08
3.04244e-08
1.86284e-07
1.0685e-07
4.65649e-08
4.83371e-08
0.000167652
0.000314788
0.000281548
0.000225973
0.000165976
0.000328286
0.000290482
0.000224859
0.000165174
0.000340744
0.000299374
0.000224746
0.00016524
0.000348462
0.000308185
0.000225626
0.00016617
0.000353693
0.000316881
0.000227484
0.000167949
0.000359033
0.000325451
0.000230296
0.000170569
0.000365835
0.000333889
0.000234026
0.000174026
0.000374627
0.000342195
0.000238632
0.000178318
0.000385298
0.000350362
0.00024407
0.000183441
0.000398042
0.000358385
0.000250289
0.00018935
0.000412002
0.000366254
0.000257239
0.000195971
0.000425925
0.000373954
0.000264868
0.00020328
0.000438309
0.000381465
0.000273125
0.000211265
0.000446299
0.000388758
0.000281958
0.000219907
0.00045221
0.000395815
0.000291319
0.00022918
0.000458268
0.000402631
0.000301158
0.000239062
0.000465498
0.000409204
0.000311423
0.000249531
0.000474189
0.000415535
0.000322064
0.000260557
0.000483946
0.000421623
0.000333031
0.000272107
0.00049426
0.000427461
0.000344276
0.000284143
0.000504371
0.000433041
0.000355757
0.000296616
0.00051329
0.000438352
0.000367433
0.000309445
0.000520446
0.000443377
0.000379263
0.000322585
0.000526452
0.000448105
0.000391206
0.000336009
0.000532071
0.000452529
0.000403225
0.000349629
0.000537691
0.000456641
0.000415281
0.000363371
0.000543308
0.000460436
0.000427338
0.000377182
0.000548673
0.000463906
0.00043936
0.000391017
0.000553493
0.000467039
0.000451312
0.000404791
0.000557589
0.000469823
0.000463161
0.000418411
0.000560917
0.000472244
0.000474872
0.000431826
0.000563498
0.000474289
0.000486412
0.00044499
0.000565358
0.000475945
0.000497747
0.000457855
0.000566499
0.000477199
0.000508843
0.000470375
0.000566906
0.000478038
0.000519668
0.000482506
0.000566552
0.000478449
0.000530186
0.000494215
0.000565407
0.000478418
0.000540364
0.000505463
0.000563437
0.00047793
0.000550169
0.000516174
0.0005606
0.000476972
0.000559565
0.000526264
0.000556863
0.000475533
0.000568518
0.000535658
0.000552199
0.000473598
0.000576994
0.000544288
0.000546586
0.000471156
0.000584956
0.00055209
0.000540006
0.000468193
0.00059237
0.000558998
0.000532447
0.000464692
0.0005992
0.000564947
0.000523898
0.000460636
0.000605409
0.000569867
0.000514352
0.000456004
0.000610963
0.000573688
0.000503803
0.000450766
0.000615824
0.000576332
0.000492235
0.000444882
0.000619954
0.000577716
0.000479622
0.00043831
0.000623314
0.000577747
0.000465914
0.000431001
0.000625862
0.000576322
0.000451019
0.0004229
0.00062755
0.00057332
0.000434857
0.000413939
0.000628327
0.000568603
0.000417355
0.00040404
0.000628132
0.00056201
0.000398446
0.000393109
0.000626886
0.000553349
0.000378067
0.000381033
0.000624484
0.000542391
0.000356164
0.000367678
0.000620783
0.000528878
0.00033271
0.000352893
0.000615583
0.000512527
0.00030772
0.00033651
0.000608605
0.000493038
0.000281277
0.000318349
0.000599469
0.000470108