/*--------------------------------*- C++ -*----------------------------------*\
| =========                 |                                                 |
| \\      /  F ield         | OpenFOAM: The Open Source CFD Toolbox           |
|  \\    /   O peration     | Version:  v1912                                 |
|   \\  /    A nd           | Website:  www.openfoam.com                      |
|    \\/     M anipulation  |                                                 |
\*---------------------------------------------------------------------------*/
FoamFile
{
    version     2.0;
    format      ascii;
    class       volScalarField;
    location    "98";
    object      nut;
}
// * * * * * * * * * * * * * * * * * * * * * * * * * * * * * * * * * * * * * //

dimensions      [0 2 -1 0 0 0 0];


internalField   nonuniform List<scalar> 
2000
(
3.11102e-09
2.32227e-08
5.05118e-08
6.48152e-08
6.70617e-08
6.78325e-08
6.70598e-08
6.48165e-08
5.05198e-08
2.32377e-08
1.31462e-08
4.46785e-07
6.95204e-07
8.03729e-07
8.26101e-07
8.33116e-07
8.26085e-07
8.03728e-07
6.95245e-07
4.46898e-07
8.37536e-08
1.91048e-06
2.11462e-06
2.25807e-06
2.29281e-06
2.30688e-06
2.29278e-06
2.25803e-06
2.11464e-06
1.91056e-06
8.67871e-07
3.40232e-06
3.70327e-06
3.91666e-06
3.96953e-06
3.99177e-06
3.96947e-06
3.91656e-06
3.70334e-06
3.40241e-06
2.6389e-06
5.20295e-06
5.52827e-06
5.73597e-06
5.80597e-06
5.83698e-06
5.80585e-06
5.73581e-06
5.52834e-06
5.20308e-06
5.10259e-06
7.5334e-06
7.73175e-06
7.77184e-06
7.84961e-06
7.8873e-06
7.84942e-06
7.77156e-06
7.73165e-06
7.53351e-06
8.19015e-06
1.07971e-05
9.56188e-06
9.52081e-06
9.6319e-06
9.68476e-06
9.6316e-06
9.52028e-06
9.56152e-06
1.07971e-05
1.20384e-05
1.41143e-05
1.14504e-05
1.10911e-05
1.11801e-05
1.12351e-05
1.11797e-05
1.10904e-05
1.14497e-05
1.41135e-05
1.68147e-05
1.68297e-05
1.36332e-05
1.31313e-05
1.32361e-05
1.3285e-05
1.32358e-05
1.31307e-05
1.36326e-05
1.68289e-05
2.10613e-05
1.88626e-05
1.65212e-05
1.64572e-05
1.66369e-05
1.6673e-05
1.66369e-05
1.64572e-05
1.65212e-05
1.8862e-05
1.4307e-08
6.81079e-08
9.74059e-08
1.09684e-07
1.16424e-07
1.18518e-07
1.16426e-07
1.09689e-07
9.74211e-08
6.81255e-08
6.40531e-08
8.36759e-07
9.89854e-07
1.06358e-06
1.11426e-06
1.12777e-06
1.11427e-06
1.06361e-06
9.8994e-07
8.36875e-07
6.84536e-07
2.99424e-06
3.06085e-06
3.14848e-06
3.23366e-06
3.25819e-06
3.23369e-06
3.14853e-06
3.06093e-06
2.99431e-06
2.55682e-06
5.03031e-06
5.34004e-06
5.53006e-06
5.64601e-06
5.68523e-06
5.64606e-06
5.53016e-06
5.34017e-06
5.03049e-06
4.43517e-06
6.89152e-06
7.75688e-06
8.04782e-06
8.19216e-06
8.24562e-06
8.19224e-06
8.04796e-06
7.75713e-06
6.8919e-06
6.3757e-06
8.96326e-06
1.05163e-05
1.08325e-05
1.09975e-05
1.10599e-05
1.09976e-05
1.08327e-05
1.05166e-05
8.96383e-06
8.2546e-06
1.15213e-05
1.36649e-05
1.4015e-05
1.42088e-05
1.42736e-05
1.42089e-05
1.40153e-05
1.36654e-05
1.1522e-05
1.02129e-05
1.44664e-05
1.71778e-05
1.74853e-05
1.77225e-05
1.77715e-05
1.77228e-05
1.74859e-05
1.71783e-05
1.44672e-05
1.2819e-05
1.61322e-05
1.92864e-05
1.98356e-05
2.00692e-05
2.01093e-05
2.00696e-05
1.98364e-05
1.92871e-05
1.6133e-05
1.28332e-05
1.65399e-05
1.91048e-05
1.94967e-05
1.96622e-05
1.96936e-05
1.96627e-05
1.94974e-05
1.91052e-05
1.65406e-05
1.16908e-08
7.40643e-08
9.35109e-08
9.91427e-08
1.02638e-07
1.03236e-07
1.02639e-07
9.91458e-08
9.35204e-08
7.40877e-08
2.9454e-07
7.8194e-07
8.42759e-07
8.57943e-07
8.71451e-07
8.72953e-07
8.71443e-07
8.57941e-07
8.42798e-07
7.82054e-07
2.4648e-06
2.80954e-06
2.5622e-06
2.56995e-06
2.59829e-06
2.60488e-06
2.59828e-06
2.56993e-06
2.56221e-06
2.80952e-06
5.32068e-06
5.04823e-06
4.46575e-06
4.47827e-06
4.5294e-06
4.54507e-06
4.52938e-06
4.47822e-06
4.46572e-06
5.04813e-06
7.61694e-06
6.94497e-06
6.26113e-06
6.27484e-06
6.34935e-06
6.37695e-06
6.34928e-06
6.2747e-06
6.26104e-06
6.94487e-06
9.64292e-06
8.88474e-06
8.10665e-06
8.04853e-06
8.13409e-06
8.17445e-06
8.13395e-06
8.04823e-06
8.10643e-06
8.88463e-06
1.17282e-05
1.14173e-05
9.85485e-06
9.73256e-06
9.80609e-06
9.85745e-06
9.80578e-06
9.73197e-06
9.85431e-06
1.14171e-05
1.4255e-05
1.47721e-05
1.15603e-05
1.11027e-05
1.11795e-05
1.1238e-05
1.11791e-05
1.1102e-05
1.15595e-05
1.47713e-05
1.77557e-05
1.71442e-05
1.36681e-05
1.30679e-05
1.31542e-05
1.32109e-05
1.31539e-05
1.30672e-05
1.36674e-05
1.71434e-05
2.10963e-05
1.88495e-05
1.6383e-05
1.62206e-05
1.64094e-05
1.64612e-05
1.64094e-05
1.62206e-05
1.63829e-05
1.88489e-05
5.76937e-08
9.09975e-08
1.03881e-07
1.13504e-07
1.20573e-07
1.22695e-07
1.20573e-07
1.13508e-07
1.03891e-07
9.10159e-08
7.41641e-07
9.35955e-07
9.94357e-07
1.05123e-06
1.09528e-06
1.1081e-06
1.09527e-06
1.05123e-06
9.94405e-07
9.36054e-07
3.36486e-06
3.34908e-06
3.15228e-06
3.19206e-06
3.26806e-06
3.28893e-06
3.26807e-06
3.1921e-06
3.1523e-06
3.34908e-06
6.47963e-06
6.17789e-06
5.84116e-06
5.86785e-06
5.97682e-06
6.01017e-06
5.97687e-06
5.86795e-06
5.84116e-06
6.17791e-06
9.08805e-06
8.67236e-06
8.4844e-06
8.55978e-06
8.70194e-06
8.75093e-06
8.70204e-06
8.55997e-06
8.48447e-06
8.67253e-06
1.05997e-05
1.05512e-05
1.10728e-05
1.12531e-05
1.14308e-05
1.14936e-05
1.1431e-05
1.12534e-05
1.1073e-05
1.05516e-05
1.15867e-05
1.24608e-05
1.39296e-05
1.43078e-05
1.45274e-05
1.46014e-05
1.45276e-05
1.43081e-05
1.393e-05
1.24615e-05
1.23731e-05
1.48175e-05
1.73561e-05
1.78867e-05
1.80506e-05
1.8099e-05
1.80509e-05
1.78872e-05
1.73567e-05
1.48184e-05
1.2642e-05
1.64573e-05
1.95573e-05
2.01224e-05
2.02915e-05
2.03294e-05
2.0292e-05
2.01231e-05
1.9558e-05
1.64583e-05
1.2001e-05
1.65715e-05
1.91352e-05
1.9572e-05
1.97009e-05
1.97232e-05
1.97013e-05
1.95727e-05
1.91356e-05
1.65722e-05
3.20616e-08
8.33425e-08
9.75869e-08
1.00179e-07
1.02171e-07
1.02133e-07
1.02169e-07
1.00179e-07
9.75918e-08
8.3363e-08
4.56694e-07
7.46453e-07
8.35629e-07
8.46653e-07
8.56579e-07
8.56459e-07
8.56556e-07
8.46636e-07
8.35649e-07
7.46562e-07
2.85768e-06
2.58021e-06
2.5e-06
2.50294e-06
2.51922e-06
2.52057e-06
2.51917e-06
2.50289e-06
2.50001e-06
2.58024e-06
6.43941e-06
5.05617e-06
4.57736e-06
4.5202e-06
4.54456e-06
4.54787e-06
4.54449e-06
4.52011e-06
4.57729e-06
5.05605e-06
1.005e-05
7.67941e-06
6.71035e-06
6.56493e-06
6.60059e-06
6.61156e-06
6.60049e-06
6.56475e-06
6.71016e-06
7.67908e-06
1.27221e-05
1.03231e-05
8.54669e-06
8.43449e-06
8.47542e-06
8.50722e-06
8.47524e-06
8.43413e-06
8.54634e-06
1.03225e-05
1.47499e-05
1.29135e-05
1.02425e-05
9.94747e-06
9.9856e-06
1.00268e-05
9.98532e-06
9.94689e-06
1.0242e-05
1.29128e-05
1.6913e-05
1.55277e-05
1.18681e-05
1.12626e-05
1.12913e-05
1.13369e-05
1.1291e-05
1.12619e-05
1.18673e-05
1.55269e-05
1.982e-05
1.76793e-05
1.37718e-05
1.30357e-05
1.30828e-05
1.3128e-05
1.30825e-05
1.3035e-05
1.3771e-05
1.76784e-05
2.17238e-05
1.90208e-05
1.62925e-05
1.60767e-05
1.62596e-05
1.6303e-05
1.62596e-05
1.60767e-05
1.62924e-05
1.90203e-05
1.01786e-07
9.59495e-08
1.04618e-07
1.12544e-07
1.1863e-07
1.20597e-07
1.18629e-07
1.12544e-07
1.04624e-07
9.59623e-08
1.07846e-06
9.35682e-07
9.85228e-07
1.04175e-06
1.08645e-06
1.10102e-06
1.08644e-06
1.04175e-06
9.85256e-07
9.35735e-07
3.94485e-06
3.20658e-06
3.09881e-06
3.16e-06
3.23435e-06
3.25923e-06
3.23434e-06
3.16001e-06
3.0988e-06
3.2065e-06
7.46245e-06
6.23796e-06
5.81071e-06
5.82701e-06
5.92471e-06
5.95616e-06
5.92473e-06
5.82707e-06
5.81065e-06
6.23779e-06
1.03609e-05
9.18533e-06
8.65331e-06
8.6281e-06
8.74663e-06
8.78394e-06
8.7467e-06
8.62823e-06
8.65325e-06
9.1853e-06
1.22199e-05
1.15877e-05
1.14322e-05
1.14667e-05
1.16124e-05
1.16597e-05
1.16125e-05
1.14669e-05
1.14322e-05
1.15879e-05
1.30122e-05
1.367e-05
1.43984e-05
1.4609e-05
1.47867e-05
1.48446e-05
1.47869e-05
1.46093e-05
1.43987e-05
1.36706e-05
1.28564e-05
1.54554e-05
1.77576e-05
1.80905e-05
1.82426e-05
1.82884e-05
1.82429e-05
1.80911e-05
1.7758e-05
1.54563e-05
1.23036e-05
1.66045e-05
1.97772e-05
2.03118e-05
2.04629e-05
2.05001e-05
2.04633e-05
2.03126e-05
1.97779e-05
1.66055e-05
1.14991e-05
1.66443e-05
1.92718e-05
1.97178e-05
1.98137e-05
1.98359e-05
1.98141e-05
1.97186e-05
1.92723e-05
1.66451e-05
3.4239e-08
9.02664e-08
1.04701e-07
1.06233e-07
1.07474e-07
1.07315e-07
1.07472e-07
1.06231e-07
1.04703e-07
9.02796e-08
2.23826e-07
7.39904e-07
8.51306e-07
8.56126e-07
8.60817e-07
8.59212e-07
8.60793e-07
8.561e-07
8.51311e-07
7.39983e-07
1.60812e-06
2.42449e-06
2.50737e-06
2.52091e-06
2.53205e-06
2.53252e-06
2.53201e-06
2.52085e-06
2.50737e-06
2.4245e-06
4.54257e-06
4.7648e-06
4.68033e-06
4.64447e-06
4.65942e-06
4.66131e-06
4.65934e-06
4.64433e-06
4.68031e-06
4.76471e-06
8.80335e-06
7.59328e-06
6.80524e-06
6.73123e-06
6.76402e-06
6.7788e-06
6.76391e-06
6.73101e-06
6.80509e-06
7.59286e-06
1.30936e-05
1.0704e-05
8.80146e-06
8.59609e-06
8.6269e-06
8.65201e-06
8.62673e-06
8.59572e-06
8.80109e-06
1.07032e-05
1.58422e-05
1.35834e-05
1.05383e-05
1.01243e-05
1.01409e-05
1.01753e-05
1.01407e-05
1.01238e-05
1.05376e-05
1.35826e-05
1.81635e-05
1.6054e-05
1.20462e-05
1.13426e-05
1.13403e-05
1.13792e-05
1.134e-05
1.13418e-05
1.20453e-05
1.60531e-05
2.11197e-05
1.79808e-05
1.37375e-05
1.29432e-05
1.29735e-05
1.30137e-05
1.29732e-05
1.29425e-05
1.37367e-05
1.79799e-05
2.27859e-05
1.90732e-05
1.61136e-05
1.59127e-05
1.6098e-05
1.61417e-05
1.6098e-05
1.59126e-05
1.61135e-05
1.90726e-05
1.21607e-07
8.96629e-08
9.80616e-08
1.05333e-07
1.11089e-07
1.13064e-07
1.11087e-07
1.05332e-07
9.80677e-08
8.96746e-08
1.35354e-06
9.06428e-07
9.52401e-07
1.00384e-06
1.04725e-06
1.06239e-06
1.04724e-06
1.00383e-06
9.52438e-07
9.06495e-07
4.35362e-06
2.92243e-06
2.90577e-06
2.98892e-06
3.06546e-06
3.09389e-06
3.06546e-06
2.98892e-06
2.9058e-06
2.92243e-06
8.12288e-06
5.54587e-06
5.4187e-06
5.50493e-06
5.60908e-06
5.64686e-06
5.60909e-06
5.50497e-06
5.41872e-06
5.54583e-06
1.11532e-05
8.537e-06
8.27409e-06
8.31707e-06
8.44594e-06
8.48878e-06
8.44599e-06
8.31716e-06
8.27408e-06
8.53704e-06
1.24937e-05
1.12655e-05
1.13664e-05
1.13652e-05
1.15148e-05
1.15604e-05
1.15149e-05
1.13653e-05
1.13664e-05
1.12657e-05
1.22988e-05
1.3481e-05
1.46994e-05
1.47591e-05
1.4925e-05
1.49719e-05
1.49252e-05
1.47593e-05
1.46996e-05
1.34815e-05
1.15303e-05
1.53597e-05
1.77888e-05
1.81039e-05
1.82742e-05
1.83146e-05
1.82746e-05
1.81045e-05
1.77892e-05
1.53605e-05
1.13463e-05
1.66942e-05
1.98993e-05
2.04107e-05
2.05702e-05
2.0602e-05
2.05707e-05
2.04115e-05
1.99e-05
1.66952e-05
1.11578e-05
1.68514e-05
1.94965e-05
1.99214e-05
2.00018e-05
2.00203e-05
2.00023e-05
1.99221e-05
1.9497e-05
1.68522e-05
4.10355e-08
9.44204e-08
1.11349e-07
1.14302e-07
1.16457e-07
1.16825e-07
1.16454e-07
1.14301e-07
1.1135e-07
9.4433e-08
1.70523e-07
7.50512e-07
8.88265e-07
8.98236e-07
9.01934e-07
9.01167e-07
9.01909e-07
8.98214e-07
8.88269e-07
7.50602e-07
7.30665e-07
2.44149e-06
2.68953e-06
2.70802e-06
2.72939e-06
2.734e-06
2.72935e-06
2.70797e-06
2.68951e-06
2.44161e-06
2.42981e-06
4.77927e-06
4.79689e-06
4.81878e-06
4.85777e-06
4.86677e-06
4.8577e-06
4.81868e-06
4.79687e-06
4.77919e-06
6.61265e-06
7.66773e-06
6.94729e-06
6.89103e-06
6.93527e-06
6.95231e-06
6.93517e-06
6.89083e-06
6.94714e-06
7.66726e-06
1.07453e-05
1.07418e-05
8.87794e-06
8.68947e-06
8.72462e-06
8.75092e-06
8.72447e-06
8.68911e-06
8.87759e-06
1.07409e-05
1.37249e-05
1.35344e-05
1.0468e-05
1.00881e-05
1.01063e-05
1.01423e-05
1.0106e-05
1.00876e-05
1.04674e-05
1.35336e-05
1.66191e-05
1.59634e-05
1.18478e-05
1.12089e-05
1.12105e-05
1.12526e-05
1.12102e-05
1.12082e-05
1.18469e-05
1.59623e-05
2.0329e-05
1.7745e-05
1.35026e-05
1.27956e-05
1.28393e-05
1.28833e-05
1.2839e-05
1.2795e-05
1.35018e-05
1.77441e-05
2.39706e-05
1.89058e-05
1.59739e-05
1.58245e-05
1.60186e-05
1.60668e-05
1.60186e-05
1.58244e-05
1.59738e-05
1.89053e-05
6.02009e-08
4.56521e-08
6.02762e-08
7.13156e-08
7.74272e-08
7.93076e-08
7.7426e-08
7.13153e-08
6.0284e-08
4.5669e-08
1.27023e-06
6.1465e-07
6.55419e-07
7.15113e-07
7.61662e-07
7.76716e-07
7.61655e-07
7.15103e-07
6.55452e-07
6.14737e-07
3.42772e-06
2.08079e-06
2.25685e-06
2.40077e-06
2.4858e-06
2.51361e-06
2.4858e-06
2.40078e-06
2.25694e-06
2.08101e-06
5.6749e-06
4.23057e-06
4.60189e-06
4.81544e-06
4.96191e-06
5.00678e-06
4.96192e-06
4.81549e-06
4.60204e-06
4.23101e-06
9.48785e-06
7.43833e-06
7.66427e-06
7.7668e-06
7.94772e-06
8.00118e-06
7.94775e-06
7.76686e-06
7.66429e-06
7.43871e-06
1.17745e-05
1.05008e-05
1.08613e-05
1.08894e-05
1.11001e-05
1.11581e-05
1.11002e-05
1.08895e-05
1.08613e-05
1.05014e-05
1.05324e-05
1.31146e-05
1.40706e-05
1.41501e-05
1.43707e-05
1.44277e-05
1.43709e-05
1.41504e-05
1.40706e-05
1.31154e-05
9.82314e-06
1.53631e-05
1.70096e-05
1.73026e-05
1.75298e-05
1.75803e-05
1.75302e-05
1.73032e-05
1.701e-05
1.53639e-05
1.02485e-05
1.67511e-05
1.92072e-05
1.97483e-05
1.99644e-05
2.00035e-05
1.99649e-05
1.97491e-05
1.92079e-05
1.67518e-05
1.07837e-05
1.68776e-05
1.92815e-05
1.97545e-05
1.98661e-05
1.98867e-05
1.98666e-05
1.97552e-05
1.92821e-05
1.68783e-05
2.10595e-05
1.91539e-05
1.87498e-05
1.92833e-05
1.95328e-05
1.95535e-05
1.95332e-05
1.92839e-05
1.87505e-05
1.91536e-05
1.77915e-05
1.7513e-05
1.83842e-05
1.88932e-05
1.90435e-05
1.90322e-05
1.90439e-05
1.88939e-05
1.83849e-05
1.75128e-05
1.44746e-05
1.47761e-05
1.58663e-05
1.63511e-05
1.64582e-05
1.64421e-05
1.64583e-05
1.63514e-05
1.58669e-05
1.47763e-05
1.17399e-05
1.23652e-05
1.31166e-05
1.35081e-05
1.35866e-05
1.35773e-05
1.35865e-05
1.35081e-05
1.31171e-05
1.23654e-05
9.49603e-06
9.86887e-06
1.0266e-05
1.05033e-05
1.05239e-05
1.05112e-05
1.05238e-05
1.05032e-05
1.02662e-05
9.86903e-06
7.05446e-06
7.11637e-06
7.24044e-06
7.36408e-06
7.35592e-06
7.34628e-06
7.35581e-06
7.36397e-06
7.24051e-06
7.11645e-06
4.33873e-06
4.20799e-06
4.18656e-06
4.23672e-06
4.21702e-06
4.21081e-06
4.21696e-06
4.23663e-06
4.18653e-06
4.20801e-06
1.81046e-06
1.67732e-06
1.62057e-06
1.63428e-06
1.62195e-06
1.61905e-06
1.62191e-06
1.63423e-06
1.62051e-06
1.67731e-06
1.15889e-07
1.02101e-07
9.63735e-08
9.88464e-08
9.87087e-08
9.86738e-08
9.87066e-08
9.88432e-08
9.63702e-08
1.021e-07
8.55907e-09
8.2043e-09
8.05181e-09
8.27826e-09
8.35885e-09
8.37832e-09
8.35877e-09
8.27824e-09
8.05184e-09
8.20441e-09
1.31514e-05
1.53198e-05
1.61652e-05
1.62226e-05
1.62684e-05
1.62881e-05
1.62685e-05
1.62227e-05
1.61651e-05
1.532e-05
1.34683e-05
1.38608e-05
1.34707e-05
1.33827e-05
1.33786e-05
1.34052e-05
1.33783e-05
1.33823e-05
1.34704e-05
1.38625e-05
1.30726e-05
1.22579e-05
1.18035e-05
1.18209e-05
1.18411e-05
1.18817e-05
1.18407e-05
1.18205e-05
1.18032e-05
1.22583e-05
1.15473e-05
1.07047e-05
1.04202e-05
1.0498e-05
1.05357e-05
1.0585e-05
1.05354e-05
1.04977e-05
1.04199e-05
1.0705e-05
9.38547e-06
8.71774e-06
8.62503e-06
8.73363e-06
8.7712e-06
8.81773e-06
8.7711e-06
8.73353e-06
8.62486e-06
8.71799e-06
6.72698e-06
6.38215e-06
6.41632e-06
6.5332e-06
6.5787e-06
6.62443e-06
6.57873e-06
6.53324e-06
6.41622e-06
6.38233e-06
3.87705e-06
3.67295e-06
3.77459e-06
3.8762e-06
3.91604e-06
3.95196e-06
3.91614e-06
3.8763e-06
3.77453e-06
3.67302e-06
1.64347e-06
1.60797e-06
1.66853e-06
1.71284e-06
1.73799e-06
1.75246e-06
1.73803e-06
1.71289e-06
1.66852e-06
1.60801e-06
1.03551e-07
9.75042e-08
1.13762e-07
1.23253e-07
1.29224e-07
1.32424e-07
1.29236e-07
1.23268e-07
1.13764e-07
9.75083e-08
4.61969e-09
4.43214e-09
4.88921e-09
5.26126e-09
5.48877e-09
5.5911e-09
5.48915e-09
5.26175e-09
4.88941e-09
4.43226e-09
2.10841e-05
1.9037e-05
1.86965e-05
1.91439e-05
1.93909e-05
1.94238e-05
1.93913e-05
1.91445e-05
1.86972e-05
1.90367e-05
1.81081e-05
1.72616e-05
1.82102e-05
1.87529e-05
1.89424e-05
1.8948e-05
1.89428e-05
1.87534e-05
1.82109e-05
1.72603e-05
1.44845e-05
1.4626e-05
1.5786e-05
1.62931e-05
1.64394e-05
1.64389e-05
1.64396e-05
1.62934e-05
1.57866e-05
1.46262e-05
1.14793e-05
1.19823e-05
1.28664e-05
1.32621e-05
1.33787e-05
1.33778e-05
1.33787e-05
1.32622e-05
1.28668e-05
1.19825e-05
8.8234e-06
9.17286e-06
9.75843e-06
1.00239e-05
1.01032e-05
1.0114e-05
1.01032e-05
1.00238e-05
9.75864e-06
9.17291e-06
6.1976e-06
6.22986e-06
6.7052e-06
6.86209e-06
6.89712e-06
6.89511e-06
6.89702e-06
6.86199e-06
6.70528e-06
6.22986e-06
3.40527e-06
3.39654e-06
3.64845e-06
3.72894e-06
3.76664e-06
3.77716e-06
3.76661e-06
3.72896e-06
3.64843e-06
3.39652e-06
1.58029e-06
1.53717e-06
1.56506e-06
1.57251e-06
1.57982e-06
1.58031e-06
1.57976e-06
1.57245e-06
1.56501e-06
1.53715e-06
9.28256e-08
8.68323e-08
9.41105e-08
9.51146e-08
9.72593e-08
9.79692e-08
9.7256e-08
9.51135e-08
9.41051e-08
8.68302e-08
2.9467e-09
2.72086e-09
3.06038e-09
3.21387e-09
3.33674e-09
3.39344e-09
3.33679e-09
3.21399e-09
3.06027e-09
2.72082e-09
1.23801e-05
1.50725e-05
1.60717e-05
1.61158e-05
1.61322e-05
1.61442e-05
1.61322e-05
1.61159e-05
1.60716e-05
1.50729e-05
1.30381e-05
1.32323e-05
1.31391e-05
1.30843e-05
1.30983e-05
1.31275e-05
1.30979e-05
1.30839e-05
1.31387e-05
1.32324e-05
1.23013e-05
1.15792e-05
1.12659e-05
1.13002e-05
1.13639e-05
1.14116e-05
1.13635e-05
1.12998e-05
1.12656e-05
1.15796e-05
1.04447e-05
9.77296e-06
9.62617e-06
9.71512e-06
9.80884e-06
9.865e-06
9.80857e-06
9.7149e-06
9.62591e-06
9.77325e-06
8.0809e-06
7.73488e-06
7.87316e-06
7.99822e-06
8.106e-06
8.15235e-06
8.10587e-06
7.99824e-06
7.87308e-06
7.73515e-06
5.48739e-06
5.31792e-06
5.5034e-06
5.60439e-06
5.69935e-06
5.73302e-06
5.69932e-06
5.60446e-06
5.5034e-06
5.31808e-06
3.43328e-06
3.39236e-06
3.49414e-06
3.55404e-06
3.61585e-06
3.63511e-06
3.61585e-06
3.55408e-06
3.49417e-06
3.39245e-06
1.7628e-06
1.76869e-06
1.79995e-06
1.8299e-06
1.85638e-06
1.8632e-06
1.85638e-06
1.82991e-06
1.79998e-06
1.76872e-06
1.20109e-07
1.23264e-07
1.35277e-07
1.42277e-07
1.49928e-07
1.51632e-07
1.49931e-07
1.42286e-07
1.35286e-07
1.23268e-07
3.10781e-09
3.14627e-09
3.60087e-09
3.86175e-09
4.11828e-09
4.19324e-09
4.11848e-09
3.86216e-09
3.60114e-09
3.14639e-09
2.11304e-05
1.89479e-05
1.85441e-05
1.89731e-05
1.92476e-05
1.92814e-05
1.9248e-05
1.89736e-05
1.85447e-05
1.89477e-05
1.78876e-05
1.70387e-05
1.79425e-05
1.85186e-05
1.87597e-05
1.87723e-05
1.87601e-05
1.85192e-05
1.79433e-05
1.70387e-05
1.39693e-05
1.42796e-05
1.54983e-05
1.60328e-05
1.6226e-05
1.62343e-05
1.62263e-05
1.60332e-05
1.54989e-05
1.42796e-05
1.10135e-05
1.15339e-05
1.22233e-05
1.25415e-05
1.26654e-05
1.26848e-05
1.26655e-05
1.25417e-05
1.22235e-05
1.1534e-05
8.32008e-06
8.44735e-06
9.08778e-06
9.33062e-06
9.43226e-06
9.44941e-06
9.43229e-06
9.33073e-06
9.08794e-06
8.44742e-06
5.68963e-06
5.92401e-06
6.33057e-06
6.46535e-06
6.53548e-06
6.54572e-06
6.53544e-06
6.46535e-06
6.33067e-06
5.92404e-06
3.62766e-06
3.77864e-06
3.92053e-06
3.97981e-06
4.01354e-06
4.01515e-06
4.01346e-06
3.97973e-06
3.92058e-06
3.77864e-06
1.79211e-06
1.83032e-06
1.85017e-06
1.87312e-06
1.88378e-06
1.88364e-06
1.88374e-06
1.87307e-06
1.85019e-06
1.83031e-06
1.15099e-07
1.15138e-07
1.1737e-07
1.19277e-07
1.21282e-07
1.21377e-07
1.21276e-07
1.19271e-07
1.17369e-07
1.15137e-07
2.6522e-09
2.5642e-09
2.73403e-09
2.80109e-09
2.88902e-09
2.91116e-09
2.88896e-09
2.80108e-09
2.734e-09
2.56418e-09
1.18885e-05
1.50308e-05
1.60387e-05
1.60859e-05
1.60749e-05
1.60869e-05
1.60749e-05
1.6086e-05
1.60386e-05
1.50312e-05
1.25374e-05
1.29937e-05
1.2961e-05
1.29372e-05
1.29484e-05
1.29807e-05
1.29481e-05
1.29369e-05
1.29607e-05
1.2994e-05
1.1802e-05
1.13408e-05
1.11349e-05
1.12037e-05
1.12814e-05
1.13329e-05
1.1281e-05
1.12033e-05
1.11346e-05
1.13414e-05
1.00896e-05
9.70718e-06
9.5875e-06
9.68804e-06
9.79673e-06
9.85264e-06
9.79642e-06
9.68778e-06
9.58734e-06
9.70748e-06
7.73084e-06
7.58216e-06
7.69431e-06
7.81551e-06
7.93779e-06
7.97736e-06
7.93767e-06
7.81548e-06
7.6943e-06
7.58239e-06
5.54106e-06
5.52443e-06
5.59133e-06
5.71032e-06
5.8076e-06
5.83093e-06
5.80753e-06
5.7103e-06
5.59139e-06
5.52461e-06
3.62624e-06
3.66255e-06
3.68646e-06
3.77978e-06
3.84077e-06
3.85422e-06
3.84074e-06
3.77976e-06
3.68651e-06
3.66265e-06
1.81572e-06
1.83903e-06
1.86261e-06
1.9126e-06
1.94235e-06
1.95014e-06
1.94235e-06
1.91261e-06
1.86264e-06
1.83906e-06
1.25009e-07
1.31794e-07
1.40659e-07
1.51805e-07
1.59526e-07
1.61217e-07
1.59529e-07
1.51811e-07
1.40668e-07
1.31799e-07
3.19533e-09
3.36007e-09
3.67738e-09
3.97094e-09
4.21055e-09
4.26344e-09
4.21068e-09
3.9712e-09
3.67769e-09
3.36018e-09
2.14875e-05
1.88483e-05
1.83504e-05
1.88262e-05
1.91288e-05
1.91682e-05
1.91292e-05
1.88267e-05
1.8351e-05
1.88481e-05
1.77662e-05
1.69231e-05
1.77535e-05
1.83869e-05
1.86617e-05
1.86824e-05
1.86621e-05
1.83874e-05
1.77543e-05
1.69231e-05
1.37423e-05
1.42083e-05
1.50685e-05
1.53695e-05
1.5552e-05
1.55758e-05
1.55521e-05
1.53697e-05
1.50687e-05
1.4208e-05
1.08341e-05
1.09601e-05
1.15035e-05
1.18321e-05
1.19694e-05
1.19817e-05
1.19694e-05
1.18322e-05
1.15038e-05
1.09602e-05
7.89733e-06
8.19092e-06
8.69902e-06
8.9502e-06
9.04059e-06
9.04542e-06
9.04056e-06
8.95021e-06
8.69922e-06
8.19102e-06
5.774e-06
6.08518e-06
6.38449e-06
6.53917e-06
6.58815e-06
6.5907e-06
6.58808e-06
6.53908e-06
6.38458e-06
6.08523e-06
3.88748e-06
4.06454e-06
4.18814e-06
4.27044e-06
4.2925e-06
4.29551e-06
4.29243e-06
4.27033e-06
4.18816e-06
4.06453e-06
1.90464e-06
1.9557e-06
1.99121e-06
2.02455e-06
2.03415e-06
2.03717e-06
2.03411e-06
2.02449e-06
1.99121e-06
1.95568e-06
1.21301e-07
1.22425e-07
1.24691e-07
1.27883e-07
1.2932e-07
1.29599e-07
1.29315e-07
1.27875e-07
1.24687e-07
1.22423e-07
2.58261e-09
2.53494e-09
2.62122e-09
2.71249e-09
2.77804e-09
2.7905e-09
2.77794e-09
2.71237e-09
2.62114e-09
2.5349e-09
1.15645e-05
1.51489e-05
1.61668e-05
1.61967e-05
1.61564e-05
1.61627e-05
1.61565e-05
1.61969e-05
1.61668e-05
1.51493e-05
1.21229e-05
1.29815e-05
1.29618e-05
1.28942e-05
1.28705e-05
1.28988e-05
1.28702e-05
1.28939e-05
1.29615e-05
1.29818e-05
1.15288e-05
1.13174e-05
1.12356e-05
1.12901e-05
1.13477e-05
1.14031e-05
1.13473e-05
1.12897e-05
1.12353e-05
1.13177e-05
1.01941e-05
1.00311e-05
9.99135e-06
1.01504e-05
1.026e-05
1.03136e-05
1.02597e-05
1.01501e-05
9.99125e-06
1.00313e-05
8.10524e-06
8.0954e-06
8.17801e-06
8.32401e-06
8.44041e-06
8.47767e-06
8.44029e-06
8.32391e-06
8.17805e-06
8.0956e-06
6.13612e-06
6.22293e-06
6.25694e-06
6.39964e-06
6.4961e-06
6.52256e-06
6.49603e-06
6.39957e-06
6.25702e-06
6.22309e-06
3.9693e-06
4.04829e-06
4.05411e-06
4.1679e-06
4.23461e-06
4.25269e-06
4.23458e-06
4.16787e-06
4.05418e-06
4.0484e-06
1.83289e-06
1.86065e-06
1.87946e-06
1.93615e-06
1.96945e-06
1.97951e-06
1.96945e-06
1.93616e-06
1.87949e-06
1.86069e-06
1.27346e-07
1.35426e-07
1.42987e-07
1.54772e-07
1.62519e-07
1.6446e-07
1.62522e-07
1.54777e-07
1.42997e-07
1.3543e-07
3.45973e-09
3.70788e-09
4.00374e-09
4.35385e-09
4.60987e-09
4.67391e-09
4.60999e-09
4.35406e-09
4.00405e-09
3.70797e-09
2.20366e-05
1.88263e-05
1.8256e-05
1.87789e-05
1.90906e-05
1.91355e-05
1.9091e-05
1.87794e-05
1.82566e-05
1.88261e-05
1.78813e-05
1.69635e-05
1.77562e-05
1.84197e-05
1.86955e-05
1.87202e-05
1.86959e-05
1.84203e-05
1.7757e-05
1.69636e-05
1.37839e-05
1.43222e-05
1.50735e-05
1.54031e-05
1.55864e-05
1.56092e-05
1.55865e-05
1.54033e-05
1.50738e-05
1.43224e-05
1.08999e-05
1.12797e-05
1.17074e-05
1.20587e-05
1.21889e-05
1.21942e-05
1.21889e-05
1.20587e-05
1.17077e-05
1.12798e-05
8.10007e-06
8.42236e-06
8.81472e-06
9.08243e-06
9.15667e-06
9.15313e-06
9.1566e-06
9.08239e-06
8.81492e-06
8.42249e-06
5.73785e-06
6.00814e-06
6.24957e-06
6.42513e-06
6.4601e-06
6.46112e-06
6.46002e-06
6.42503e-06
6.24963e-06
6.00823e-06
3.7241e-06
3.84908e-06
3.97431e-06
4.06644e-06
4.07823e-06
4.08375e-06
4.07816e-06
4.06635e-06
3.97429e-06
3.8491e-06
1.83402e-06
1.86759e-06
1.91559e-06
1.94256e-06
1.94473e-06
1.94834e-06
1.9447e-06
1.94251e-06
1.91557e-06
1.86758e-06
1.14963e-07
1.14149e-07
1.16713e-07
1.18824e-07
1.18849e-07
1.19166e-07
1.18844e-07
1.18817e-07
1.16706e-07
1.14148e-07
2.25662e-09
2.19827e-09
2.26218e-09
2.38511e-09
2.44238e-09
2.45905e-09
2.44226e-09
2.38498e-09
2.26204e-09
2.19828e-09
1.12418e-05
1.52286e-05
1.63595e-05
1.64346e-05
1.64065e-05
1.6408e-05
1.64065e-05
1.64347e-05
1.63595e-05
1.5229e-05
1.23687e-05
1.38757e-05
1.37766e-05
1.35375e-05
1.34386e-05
1.3446e-05
1.34383e-05
1.35372e-05
1.37762e-05
1.38761e-05
1.17831e-05
1.21421e-05
1.19559e-05
1.1866e-05
1.184e-05
1.1868e-05
1.18396e-05
1.18655e-05
1.19555e-05
1.21425e-05
1.05956e-05
1.04682e-05
1.04065e-05
1.04844e-05
1.0567e-05
1.06125e-05
1.05668e-05
1.04843e-05
1.04063e-05
1.04683e-05
8.72668e-06
8.72412e-06
8.82848e-06
9.00255e-06
9.11442e-06
9.16555e-06
9.11434e-06
9.00247e-06
8.82845e-06
8.72434e-06
7.18864e-06
7.36445e-06
7.49743e-06
7.63962e-06
7.7269e-06
7.76806e-06
7.72685e-06
7.63955e-06
7.49748e-06
7.36462e-06
5.42368e-06
5.62165e-06
5.64599e-06
5.67449e-06
5.70718e-06
5.72332e-06
5.70714e-06
5.67442e-06
5.64604e-06
5.62173e-06
2.84843e-06
2.88745e-06
2.84889e-06
2.86775e-06
2.89042e-06
2.90028e-06
2.89043e-06
2.86775e-06
2.84895e-06
2.88747e-06
2.99567e-07
3.09954e-07
3.07038e-07
3.13648e-07
3.2085e-07
3.23165e-07
3.20852e-07
3.13651e-07
3.07055e-07
3.09954e-07
1.20237e-08
1.29051e-08
1.36316e-08
1.41141e-08
1.45322e-08
1.4675e-08
1.45325e-08
1.41145e-08
1.36322e-08
1.29052e-08
)
;

boundaryField
{
    leftWall
    {
        type            nutUWallFunction;
        Cmu             0.09;
        kappa           0.41;
        E               9.8;
        value           uniform 0;
    }
    rightWall
    {
        type            nutUWallFunction;
        Cmu             0.09;
        kappa           0.41;
        E               9.8;
        value           uniform 0;
    }
    leftSides_periodic0
    {
        type            cyclic;
    }
    leftSides_periodic1
    {
        type            cyclic;
    }
    rightSides_periodic0
    {
        type            cyclic;
    }
    rightSides_periodic1
    {
        type            cyclic;
    }
    leftInOut_periodic0
    {
        type            cyclic;
    }
    leftInOut_periodic1
    {
        type            cyclic;
    }
    rightInOut_periodic0
    {
        type            cyclic;
    }
    rightInOut_periodic1
    {
        type            cyclic;
    }
}


// ************************************************************************* //
