/*--------------------------------*- C++ -*----------------------------------*\
| =========                 |                                                 |
| \\      /  F ield         | OpenFOAM: The Open Source CFD Toolbox           |
|  \\    /   O peration     | Version:  v1912                                 |
|   \\  /    A nd           | Website:  www.openfoam.com                      |
|    \\/     M anipulation  |                                                 |
\*---------------------------------------------------------------------------*/
FoamFile
{
    version     2.0;
    format      ascii;
    class       volScalarField;
    location    "98";
    object      p;
}
// * * * * * * * * * * * * * * * * * * * * * * * * * * * * * * * * * * * * * //

dimensions      [1 -1 -2 0 0 0 0];


internalField   nonuniform List<scalar> 
2528
(
100000
99797.4
99877.8
99823.3
99999.9
99797.4
99877.8
99823.3
99999.7
99797.4
99877.8
99823.3
99999.6
99797.4
99877.7
99823.3
99999.4
99797.5
99877.7
99823.3
99999.2
99797.5
99877.7
99823.4
99998.9
99797.6
99877.6
99823.4
99998.7
99797.6
99877.6
99823.5
99998.5
99797.7
99877.5
99823.5
99998.2
99797.8
99877.5
99823.6
99997.8
99797.9
99877.4
99823.7
99997.5
99798
99877.3
99823.8
99997.1
99798.2
99877.2
99823.9
99996.6
99798.4
99877
99824.1
99996.1
99798.5
99876.9
99824.2
99995.6
99798.8
99876.7
99824.4
99994.9
99799
99876.5
99824.6
99994.3
99799.3
99876.3
99824.8
99993.6
99799.6
99876.1
99825.1
99992.8
99799.9
99875.8
99825.4
99992
99800.3
99875.5
99825.7
99991.1
99800.7
99875.2
99826
99990.2
99801.1
99874.9
99826.4
99989.2
99801.5
99874.6
99826.7
99988.2
99802
99874.2
99827.2
99987.1
99802.5
99873.8
99827.6
99986
99803
99873.4
99828.1
99984.8
99803.6
99872.9
99828.5
99983.6
99804.2
99872.5
99829.1
99982.4
99804.8
99872
99829.6
99981.1
99805.5
99871.5
99830.2
99979.7
99806.2
99870.9
99830.8
99978.3
99806.9
99870.4
99831.4
99976.8
99807.7
99869.8
99832.1
99975.4
99808.5
99869.2
99832.7
99973.8
99809.3
99868.6
99833.5
99972.3
99810.2
99868
99834.2
99970.7
99811.1
99867.4
99834.9
99969
99812
99866.7
99835.7
99967.3
99813
99866
99836.5
99965.5
99814
99865.3
99837.4
99963.7
99815
99864.6
99838.2
99961.9
99816
99863.8
99839.1
99960
99817.1
99863.1
99840
99958.1
99818.2
99862.3
99840.9
99956.2
99819.4
99861.5
99841.9
99954.2
99820.6
99860.7
99842.9
99952.1
99821.8
99859.9
99843.8
99950
99823.1
99859
99844.9
99947.9
99824.5
99858.1
99845.9
99945.8
99825.8
99857.2
99846.9
99943.7
99827.3
99856.3
99848
99941.6
99828.7
99855.3
99849
99939.5
99830.1
99854.4
99850.1
99937.3
99831.6
99853.5
99851.2
99935
99833.1
99852.6
99852.3
99932.8
99834.6
99851.7
99853.4
99930.6
99836
99850.7
99854.5
99928.3
99837.5
99849.8
99855.6
99926.2
99839
99848.9
99856.7
99924
99840.4
99848
99857.8
99921.9
99841.9
99847.1
99858.9
99919.8
99843.3
99846.2
99860
99917.7
99844.7
99845.3
99861.1
99915.7
99846.1
99844.4
99862.1
99913.8
99847.4
99843.5
99863.2
99911.9
99848.8
99842.6
99864.2
99910
99850.1
99841.7
99865.2
99908.2
99851.3
99840.9
99866.2
99906.5
99852.6
99840
99867.2
99904.8
99853.8
99839.2
99868.1
99903.2
99854.9
99838.4
99869
99901.6
99856.1
99837.6
99869.8
99900.1
99857.2
99836.8
99870.6
99898.7
99858.2
99836
99871.4
99897.4
99859.3
99835.2
99872.1
99896.2
99860.3
99834.5
99872.8
99895
99861.2
99833.7
99873.5
99893.9
99862.2
99833
99874.1
99538.5
99463
99508.7
99458.6
99538.5
99463
99508.6
99458.6
99538.5
99463
99508.6
99458.6
99538.5
99463
99508.6
99458.6
99538.5
99463
99508.6
99458.7
99538.5
99463
99508.6
99458.7
99538.5
99463.1
99508.6
99458.7
99538.4
99463.1
99508.6
99458.7
99538.4
99463.1
99508.5
99458.7
99538.4
99463.1
99508.5
99458.8
99538.3
99463.2
99508.5
99458.8
99538.3
99463.2
99508.4
99458.9
99538.3
99463.3
99508.4
99458.9
99538.2
99463.4
99508.3
99459
99538.1
99463.4
99508.2
99459.1
99538
99463.5
99508.1
99459.2
99537.9
99463.6
99508
99459.3
99537.8
99463.7
99507.9
99459.4
99537.7
99463.9
99507.8
99459.5
99537.6
99464
99507.7
99459.6
99537.5
99464.2
99507.5
99459.8
99537.3
99464.3
99507.4
99460
99537.1
99464.5
99507.2
99460.2
99536.9
99464.7
99507
99460.4
99536.7
99464.9
99506.8
99460.6
99536.5
99465.1
99506.6
99460.8
99536.2
99465.3
99506.3
99461.1
99536
99465.6
99506.1
99461.4
99535.7
99465.8
99505.8
99461.7
99535.4
99466.1
99505.6
99462
99535.1
99466.3
99505.3
99462.3
99534.8
99466.6
99505
99462.6
99534.5
99466.9
99504.7
99463
99534.1
99467.2
99504.4
99463.4
99533.7
99467.5
99504.1
99463.8
99533.3
99467.8
99503.7
99464.2
99532.9
99468.1
99503.4
99464.6
99532.5
99468.5
99503
99465
99532.1
99468.8
99502.7
99465.5
99531.7
99469.1
99502.3
99466
99531.3
99469.5
99501.9
99466.5
99530.9
99469.9
99501.5
99467
99530.4
99470.3
99501.2
99467.5
99529.9
99470.7
99500.8
99468
99529.4
99471.1
99500.5
99468.6
99528.8
99471.4
99500.1
99469.1
99528.4
99471.8
99499.7
99469.7
99528
99472.2
99499.3
99470.3
99527.7
99472.6
99498.8
99470.9
99527.3
99472.9
99498.4
99471.5
99526.8
99473.3
99497.9
99472.1
99526.2
99473.7
99497.4
99472.8
99525.6
99474.1
99496.9
99473.5
99524.9
99474.5
99496.4
99474.1
99524.3
99474.9
99495.9
99474.8
99523.7
99475.3
99495.5
99475.4
99523.1
99475.7
99495
99476.1
99522.6
99476.1
99494.5
99476.8
99522.3
99476.6
99494
99477.5
99522.1
99477
99493.4
99478.3
99521.7
99477.5
99492.9
99479.1
99521.1
99478
99492.4
99479.9
99520.5
99478.6
99491.9
99480.7
99519.8
99479.1
99491.3
99481.5
99519.1
99479.7
99490.8
99482.3
99518.4
99480.3
99490.2
99483.1
99517.7
99480.9
99489.7
99484
99517
99481.5
99489.1
99484.8
99516.3
99482.1
99488.6
99485.7
99515.6
99482.7
99488
99486.5
99514.9
99483.4
99487.4
99487.4
99514.2
99484
99486.9
99488.3
99513.5
99484.7
99486.3
99489.2
99512.8
99485.3
99485.7
99490
99512.1
99485.9
99485.2
99490.9
99511.4
99486.5
99484.6
99491.8
99510.7
99486.8
99484.1
99492.6
99510
99487
99483.5
99493.2
99509.3
99487.1
99483
99493.5
99091.7
99097.1
99091.8
99094.8
99091.7
99097.1
99091.8
99094.8
99091.7
99097.1
99091.8
99094.8
99091.6
99097.1
99091.8
99094.8
99091.6
99097.1
99091.8
99094.8
99091.6
99097.1
99091.8
99094.8
99091.6
99097.1
99091.8
99094.8
99091.6
99097.1
99091.8
99094.8
99091.6
99097.1
99091.8
99094.8
99091.6
99097.1
99091.8
99094.8
99091.6
99097.1
99091.8
99094.8
99091.6
99097.1
99091.8
99094.8
99091.6
99097.1
99091.8
99094.8
99091.6
99097.1
99091.8
99094.8
99091.6
99097.1
99091.8
99094.7
99091.6
99097.2
99091.8
99094.7
99091.6
99097.2
99091.8
99094.7
99091.6
99097.2
99091.8
99094.7
99091.6
99097.2
99091.8
99094.7
99091.6
99097.2
99091.8
99094.7
99091.6
99097.2
99091.8
99094.7
99091.6
99097.2
99091.8
99094.7
99091.5
99097.2
99091.8
99094.7
99091.5
99097.2
99091.8
99094.6
99091.5
99097.2
99091.8
99094.6
99091.5
99097.2
99091.8
99094.6
99091.5
99097.2
99091.9
99094.6
99091.5
99097.2
99091.9
99094.6
99091.5
99097.2
99091.9
99094.5
99091.4
99097.2
99091.9
99094.5
99091.4
99097.2
99091.9
99094.5
99091.4
99097.2
99091.9
99094.4
99091.4
99097.2
99091.9
99094.4
99091.4
99097.2
99092
99094.4
99091.3
99097.2
99092
99094.4
99091.3
99097.2
99092
99094.3
99091.3
99097.2
99092
99094.3
99091.3
99097.2
99092
99094.2
99091.2
99097.2
99092.1
99094.2
99091.2
99097.2
99092.1
99094.2
99091.2
99097.2
99092.1
99094.1
99091.1
99097.2
99092.1
99094.1
99091.1
99097.2
99092.1
99094.1
99091.1
99097.2
99092.2
99094
99091.1
99097.2
99092.2
99094
99091
99097.2
99092.2
99093.9
99091
99097.2
99092.2
99093.9
99091
99097.2
99092.3
99093.8
99090.9
99097.2
99092.3
99093.8
99090.9
99097.2
99092.3
99093.8
99090.9
99097.2
99092.4
99093.7
99090.8
99097.2
99092.4
99093.7
99090.8
99097.2
99092.4
99093.6
99090.8
99097.2
99092.5
99093.6
99090.8
99097.2
99092.5
99093.5
99090.7
99097.2
99092.5
99093.5
99090.7
99097.1
99092.6
99093.4
99090.7
99097.1
99092.6
99093.4
99090.7
99097.1
99092.6
99093.4
99090.6
99097.1
99092.7
99093.3
99090.6
99097.1
99092.7
99093.3
99090.6
99097.1
99092.7
99093.2
99090.6
99097.1
99092.8
99093.2
99090.6
99097.1
99092.8
99093.2
99090.5
99097.1
99092.8
99093.1
99090.5
99097.1
99092.9
99093.1
99090.5
99097.1
99092.9
99093
99090.5
99097
99092.9
99093
99090.5
99097
99093
99093
99090.5
99097
99093
99092.9
99090.5
99097
99093.1
99092.9
99090.5
99097
99093.1
99092.8
99090.5
99097
99093.1
99092.8
99090.5
99097
99093.2
99092.7
99090.5
99097
99093.2
99092.7
99090.5
99097
99093.3
99092.6
99090.5
99097
99093.3
99092.6
99090.5
99096.9
99093.4
99092.5
99090.5
99096.9
99093.4
99092.4
98902.7
98828.9
98892.5
98824.6
98902.7
98828.9
98892.5
98824.6
98902.7
98828.9
98892.5
98824.6
98902.7
98828.9
98892.5
98824.6
98902.7
98828.9
98892.5
98824.6
98902.7
98828.9
98892.5
98824.6
98902.7
98828.9
98892.5
98824.6
98902.7
98828.9
98892.5
98824.6
98902.7
98829
98892.4
98824.7
98902.6
98829
98892.4
98824.7
98902.6
98829
98892.4
98824.7
98902.6
98829
98892.3
98824.8
98902.6
98829.1
98892.3
98824.8
98902.5
98829.1
98892.2
98824.9
98902.5
98829.2
98892.2
98824.9
98902.4
98829.2
98892.1
98825
98902.4
98829.3
98892
98825.1
98902.3
98829.4
98891.9
98825.2
98902.3
98829.4
98891.8
98825.3
98902.2
98829.5
98891.7
98825.4
98902.1
98829.6
98891.6
98825.5
98902
98829.7
98891.5
98825.6
98901.9
98829.8
98891.4
98825.7
98901.8
98829.9
98891.2
98825.9
98901.7
98830.1
98891.1
98826.1
98901.6
98830.2
98890.9
98826.2
98901.5
98830.3
98890.7
98826.4
98901.3
98830.5
98890.5
98826.6
98901.2
98830.6
98890.3
98826.9
98901
98830.8
98890.1
98827.1
98900.9
98831
98889.9
98827.3
98900.7
98831.2
98889.7
98827.6
98900.5
98831.4
98889.5
98827.9
98900.3
98831.6
98889.2
98828.2
98900.1
98831.8
98889
98828.5
98899.9
98832
98888.7
98828.8
98899.7
98832.3
98888.4
98829.2
98899.5
98832.5
98888.1
98829.5
98899.2
98832.8
98887.8
98829.9
98898.9
98833.1
98887.5
98830.3
98898.6
98833.4
98887.2
98830.7
98898.3
98833.7
98886.8
98831.2
98898
98834
98886.5
98831.6
98897.6
98834.3
98886.1
98832.1
98897.3
98834.6
98885.8
98832.6
98896.9
98834.9
98885.4
98833.1
98896.6
98835.3
98885
98833.6
98896.2
98835.6
98884.6
98834.2
98895.8
98836
98884.3
98834.7
98895.5
98836.3
98883.9
98835.3
98895.1
98836.7
98883.5
98835.9
98894.7
98837.1
98883
98836.5
98894.3
98837.4
98882.6
98837.1
98893.9
98837.8
98882.2
98837.7
98893.4
98838.3
98881.7
98838.4
98893
98838.7
98881.3
98839
98892.6
98839.1
98880.8
98839.7
98892.2
98839.6
98880.3
98840.4
98891.8
98840
98879.8
98841
98891.3
98840.5
98879.3
98841.7
98890.9
98841
98878.8
98842.4
98890.5
98841.5
98878.2
98843.1
98890
98842
98877.6
98843.8
98889.6
98842.6
98877
98844.5
98889.1
98843.1
98876.3
98845.3
98888.7
98843.7
98875.6
98846
98888.3
98844.3
98874.9
98846.7
98887.9
98844.9
98874.2
98847.5
98887.5
98845.5
98873.4
98848.2
98887.1
98846.2
98872.6
98848.9
98886.6
98846.8
98871.7
98849.7
98886.2
98847.5
98870.8
98850.4
98885.7
98848.2
98869.9
98851.2
98885.3
98848.9
98869
98851.9
98884.8
98849.6
98868
98852.7
98884.4
98850.3
98867
98853.4
98884
98851.1
98866
98854.2
98883.5
98851.8
98864.9
98855
98883.1
98852.6
98863.9
98855.7
99892.9
99863.1
99832.3
99874.8
99891.9
99864
99831.5
99875.4
99890.9
99865
99830.8
99876
99889.9
99866
99829.9
99876.6
99888.9
99867
99829.1
99877.3
99887.9
99868.1
99828.2
99878
99886.9
99869.2
99827.3
99878.7
99885.9
99870.3
99826.4
99879.4
99884.9
99871.4
99825.4
99880.1
99883.8
99872.6
99824.4
99880.9
99882.8
99873.8
99823.3
99881.6
99881.8
99875
99822.3
99882.4
99880.7
99876.2
99821.2
99883.3
99879.6
99877.5
99820.1
99884.1
99878.4
99878.7
99819
99885
99877.3
99880
99817.8
99885.9
99876.1
99881.3
99816.6
99886.9
99874.8
99882.6
99815.5
99887.8
99873.5
99883.9
99814.3
99888.8
99872.2
99885.2
99813.1
99889.8
99870.9
99886.5
99811.9
99890.8
99869.5
99887.7
99810.7
99891.9
99868.1
99889
99809.5
99892.9
99866.7
99890.3
99808.3
99894
99865.3
99891.6
99807.1
99895.1
99863.9
99892.8
99806
99896.1
99862.4
99894.1
99804.8
99897.2
99861
99895.3
99803.6
99898.3
99859.5
99896.5
99802.5
99899.3
99858.1
99897.7
99801.4
99900.3
99856.7
99898.9
99800.3
99901.4
99855.3
99900
99799.2
99902.4
99853.9
99901.1
99798.2
99903.4
99852.5
99902.2
99797.1
99904.5
99851.2
99903.3
99796.1
99905.5
99849.8
99904.3
99795.2
99906.5
99848.5
99905.3
99794.2
99907.4
99847.2
99906.3
99793.3
99908.4
99846
99907.2
99792.4
99909.3
99844.8
99908.1
99791.6
99910.2
99843.6
99909
99790.8
99911
99842.5
99909.8
99790
99911.9
99841.3
99910.6
99789.3
99912.7
99840.3
99911.3
99788.6
99913.4
99839.3
99912
99787.9
99914.2
99838.3
99912.7
99787.2
99914.9
99837.4
99913.3
99786.6
99915.5
99836.5
99913.9
99786.1
99916.2
99835.6
99914.5
99785.5
99916.8
99834.8
99915
99785
99917.3
99834.1
99915.5
99784.5
99917.9
99833.4
99916
99784.1
99918.3
99832.8
99916.4
99783.7
99918.8
99832.2
99916.8
99783.3
99919.2
99831.7
99917.2
99783
99919.6
99831.2
99917.5
99782.7
99919.9
99830.7
99917.8
99782.4
99920.2
99830.3
99918.1
99782.2
99920.5
99829.9
99918.3
99782
99920.7
99829.6
99918.5
99781.8
99920.9
99829.3
99918.7
99781.6
99921.1
99829.1
99918.9
99781.4
99921.3
99828.8
99919.1
99781.3
99921.5
99828.7
99919.2
99781.2
99921.6
99828.5
99919.3
99781.1
99921.7
99828.3
99919.4
99781
99921.8
99828.2
99919.5
99780.9
99921.9
99828.1
99919.6
99780.8
99922
99828
99919.7
99780.7
99922.1
99827.9
99919.7
99780.7
99922.1
99827.9
99919.8
99780.6
99922.2
99827.8
99919.9
99780.6
99922.2
99827.8
99919.9
99780.5
99922.3
99827.7
99920
99780.5
99922.3
99827.7
99920
99780.4
99922.3
99827.6
99920
99780.4
99922.4
99827.6
99920
99780.4
99922.4
99827.6
99920.1
99780.4
99922.4
99827.6
99920.1
99780.4
99922.4
99508.6
99487.3
99482.4
99493.7
99507.9
99487.7
99481.9
99494
99507.2
99488.3
99481.3
99494.4
99506.4
99489
99480.6
99495.2
99505.5
99489.7
99480
99496.1
99504.7
99490.4
99479.3
99497.1
99503.8
99491.1
99478.6
99498.1
99502.9
99491.9
99477.9
99499.1
99501.9
99492.6
99477.1
99500.1
99501
99493.4
99476.3
99501.2
99500
99494.1
99475.6
99502.2
99499
99494.8
99474.8
99503.3
99498
99495.6
99473.9
99504.3
99497
99496.3
99473.1
99505.3
99496
99497.1
99472.3
99506.4
99495
99497.8
99471.4
99507.4
99494
99498.6
99470.5
99508.4
99492.9
99499.3
99469.7
99509.4
99491.9
99500
99468.8
99510.4
99490.8
99500.8
99467.9
99511.4
99489.8
99501.5
99467
99512.4
99488.8
99502.2
99466.1
99513.4
99487.7
99502.9
99465.2
99514.4
99486.7
99503.6
99464.3
99515.4
99485.7
99504.2
99463.4
99516.4
99484.7
99504.9
99462.5
99517.3
99483.7
99505.5
99461.6
99518.3
99482.7
99506.2
99460.7
99519.3
99481.7
99506.8
99459.9
99520.3
99480.8
99507.4
99459
99521.3
99479.8
99508
99458.2
99522.2
99478.9
99508.5
99457.3
99523.2
99478
99509.1
99456.5
99524.2
99477.1
99509.6
99455.8
99525.2
99476.3
99510.1
99455
99526.2
99475.5
99510.6
99454.3
99527.2
99474.6
99511.1
99453.7
99528.1
99473.9
99511.6
99453
99529.1
99473.1
99512
99452.4
99530
99472.4
99512.4
99451.9
99531
99471.6
99512.9
99451.3
99531.9
99471
99513.2
99450.8
99532.7
99470.3
99513.6
99450.3
99533.5
99469.7
99514
99449.8
99534.2
99469.1
99514.3
99449.3
99534.8
99468.5
99514.6
99448.9
99535.5
99468
99514.9
99448.5
99536.1
99467.5
99515.2
99448.1
99536.6
99467
99515.5
99447.8
99537.2
99466.6
99515.7
99447.4
99537.7
99466.2
99516
99447.1
99538.2
99465.9
99516.2
99446.8
99538.7
99465.5
99516.4
99446.5
99539.1
99465.2
99516.5
99446.3
99539.5
99464.9
99516.7
99446
99539.9
99464.7
99516.9
99445.8
99540.2
99464.4
99517
99445.6
99540.5
99464.2
99517.1
99445.4
99540.8
99464
99517.3
99445.3
99541.1
99463.8
99517.4
99445.1
99541.3
99463.7
99517.5
99445
99541.5
99463.5
99517.6
99444.9
99541.7
99463.4
99517.7
99444.8
99541.9
99463.3
99517.7
99444.7
99542
99463.2
99517.8
99444.6
99542.2
99463.1
99517.9
99444.5
99542.3
99463
99517.9
99444.4
99542.4
99463
99518
99444.4
99542.5
99462.9
99518
99444.3
99542.5
99462.9
99518
99444.3
99542.6
99462.8
99518.1
99444.2
99542.6
99462.8
99518.1
99444.2
99542.7
99462.7
99518.1
99444.1
99542.7
99462.7
99518.2
99444.1
99542.7
99462.7
99518.2
99444.1
99542.8
99462.7
99518.2
99444.1
99542.8
99462.6
99518.2
99444.1
99542.8
99462.6
99518.2
99444
99542.8
99462.6
99518.2
99444
99542.8
99090.5
99096.9
99093.5
99092.4
99090.5
99096.9
99093.5
99092.3
99090.5
99096.9
99093.6
99092.2
99090.5
99096.9
99093.7
99092.1
99090.5
99096.9
99093.7
99091.9
99090.6
99096.8
99093.8
99091.8
99090.6
99096.8
99093.9
99091.6
99090.6
99096.8
99094
99091.5
99090.7
99096.8
99094.2
99091.3
99090.7
99096.7
99094.3
99091.1
99090.8
99096.7
99094.4
99090.9
99090.9
99096.6
99094.5
99090.7
99090.9
99096.6
99094.7
99090.4
99091
99096.5
99094.8
99090.2
99091.1
99096.5
99094.9
99089.9
99091.2
99096.4
99095.1
99089.7
99091.2
99096.4
99095.2
99089.4
99091.3
99096.3
99095.4
99089.2
99091.4
99096.2
99095.6
99088.9
99091.5
99096.1
99095.7
99088.6
99091.7
99096.1
99095.9
99088.4
99091.8
99096
99096.1
99088.1
99091.9
99095.9
99096.2
99087.8
99092
99095.8
99096.4
99087.6
99092.1
99095.7
99096.6
99087.3
99092.3
99095.6
99096.8
99087
99092.4
99095.5
99097
99086.7
99092.5
99095.4
99097.1
99086.5
99092.6
99095.3
99097.3
99086.2
99092.8
99095.2
99097.5
99085.9
99092.9
99095.1
99097.7
99085.7
99093
99094.9
99097.9
99085.4
99093.2
99094.8
99098
99085.1
99093.3
99094.7
99098.2
99084.9
99093.4
99094.6
99098.4
99084.6
99093.6
99094.5
99098.6
99084.4
99093.7
99094.4
99098.7
99084.1
99093.8
99094.3
99098.9
99083.9
99094
99094.2
99099
99083.6
99094.1
99094.1
99099.2
99083.4
99094.2
99094
99099.3
99083.2
99094.3
99093.9
99099.5
99083
99094.5
99093.8
99099.6
99082.8
99094.6
99093.7
99099.8
99082.5
99094.7
99093.6
99099.9
99082.4
99094.8
99093.5
99100
99082.2
99094.9
99093.4
99100.1
99082
99095
99093.3
99100.3
99081.8
99095.1
99093.3
99100.4
99081.7
99095.2
99093.2
99100.5
99081.5
99095.3
99093.1
99100.6
99081.4
99095.4
99093
99100.7
99081.2
99095.5
99093
99100.8
99081.1
99095.5
99092.9
99100.8
99081
99095.6
99092.9
99100.9
99080.9
99095.7
99092.8
99101
99080.7
99095.7
99092.8
99101
99080.7
99095.8
99092.7
99101.1
99080.6
99095.8
99092.7
99101.2
99080.5
99095.9
99092.6
99101.2
99080.4
99095.9
99092.6
99101.2
99080.3
99095.9
99092.6
99101.3
99080.3
99096
99092.5
99101.3
99080.2
99096
99092.5
99101.3
99080.2
99096
99092.5
99101.4
99080.1
99096.1
99092.5
99101.4
99080.1
99096.1
99092.5
99101.4
99080.1
99096.1
99092.5
99101.4
99080.1
99096.1
99092.4
99101.4
99080
99096.1
99092.4
99101.5
99080
99096.1
99092.4
99101.5
99080
99096.1
99092.4
99101.5
99080
99096.1
99092.4
99101.5
99080
99096.1
99092.4
99101.5
99080
99096.2
99092.4
99101.5
99079.9
99096.2
99092.4
99101.5
99079.9
99096.2
99092.4
99101.5
99079.9
99096.2
99092.4
99101.5
99079.9
99096.2
99092.4
99101.5
99079.9
98882.6
98853.2
98862.8
98856.5
98882.2
98853.8
98861.7
98857.4
98881.7
98854.1
98860.4
98858.3
98881.1
98854.5
98859.1
98859.3
98880.5
98855.1
98857.7
98860.3
98879.9
98856
98856.2
98861.4
98879.2
98857.1
98854.6
98862.7
98878.5
98858.3
98853
98863.9
98877.7
98859.6
98851.3
98865.3
98876.9
98860.9
98849.5
98866.8
98876
98862.2
98847.6
98868.3
98875.2
98863.2
98845.7
98869.9
98874.2
98864
98843.8
98871.6
98873.2
98864.8
98841.8
98873.4
98872.2
98865.8
98839.8
98875.3
98871.1
98867.2
98837.7
98877.2
98870
98868.8
98835.6
98879.3
98868.8
98870.6
98833.4
98881.4
98867.6
98872.3
98831.2
98883.5
98866.3
98874
98829
98885.8
98865
98875.5
98826.8
98888.1
98863.6
98876.8
98824.6
98890.4
98862.2
98878.1
98822.3
98892.8
98860.8
98879.5
98820
98895.3
98859.3
98881
98817.8
98897.8
98857.9
98882.6
98815.5
98900.3
98856.4
98884.3
98813.3
98902.8
98854.9
98886
98811
98905.4
98853.3
98887.6
98808.8
98908
98851.8
98889.2
98806.6
98910.6
98850.2
98890.7
98804.4
98913.2
98848.6
98892.2
98802.3
98915.8
98847.1
98893.8
98800.1
98918.4
98845.5
98895.3
98798.1
98920.9
98843.9
98896.7
98796
98923.5
98842.3
98898.2
98794
98926
98840.8
98899.6
98792
98928.5
98839.2
98901
98790.1
98931
98837.7
98902.4
98788.3
98933.4
98836.2
98903.7
98786.5
98935.8
98834.8
98905
98784.7
98938.1
98833.4
98906.3
98783
98940.4
98832
98907.5
98781.4
98942.6
98830.6
98908.6
98779.8
98944.8
98829.3
98909.8
98778.3
98946.8
98828.1
98910.8
98776.9
98948.9
98826.9
98911.8
98775.5
98950.8
98825.7
98912.8
98774.2
98952.7
98824.6
98913.7
98773
98954.5
98823.5
98914.6
98771.8
98956.2
98822.5
98915.4
98770.8
98957.8
98821.6
98916.1
98769.7
98959.3
98820.7
98916.8
98768.8
98960.7
98819.8
98917.5
98767.9
98962.1
98819
98918.1
98767.1
98963.3
98818.3
98918.6
98766.4
98964.5
98817.7
98919.1
98765.7
98965.6
98817
98919.6
98765.1
98966.5
98816.5
98920
98764.6
98967.4
98816
98920.3
98764.1
98968.2
98815.6
98920.6
98763.7
98968.9
98815.2
98920.9
98763.3
98969.5
98814.8
98921.2
98763
98970
98814.5
98921.4
98762.7
98970.4
98814.3
98921.6
98762.4
98970.8
98814
98921.8
98762.2
98971.2
98813.8
98921.9
98762
98971.4
98813.7
98922.1
98761.8
98971.7
98813.5
98922.2
98761.7
98971.9
98813.4
98922.3
98761.5
98972
98813.3
98922.4
98761.4
98972.2
98813.2
98922.5
98761.3
98972.3
98813.1
98922.6
98761.2
98972.4
98813
98922.7
98761.1
98972.4
98813
98922.7
98761
98972.5
98812.9
98922.8
98761
98972.6
98812.9
98922.8
98760.9
98972.6
98812.8
98922.8
98760.9
98972.7
98812.8
98922.9
98760.9
98972.7
)
;

boundaryField
{
    leftWall
    {
        type            calculated;
        value           nonuniform List<scalar> 
16
(
100000
99538.5
99091.7
98902.7
99797.4
99463
99097.1
98828.9
99877.8
99508.7
99091.8
98892.5
99823.3
99458.6
99094.8
98824.6
)
;
    }
    rightWall
    {
        type            calculated;
        value           nonuniform List<scalar> 
16
(
99827.6
99462.6
99096.2
98812.8
99920.1
99518.2
99092.4
98922.9
99780.4
99444
99101.5
98760.9
99922.4
99542.8
99079.9
98972.7
)
;
    }
    leftSides_periodic0
    {
        type            cyclic;
    }
    leftSides_periodic1
    {
        type            cyclic;
    }
    rightSides_periodic0
    {
        type            cyclic;
    }
    rightSides_periodic1
    {
        type            cyclic;
    }
    leftInOut_periodic0
    {
        type            cyclic;
    }
    leftInOut_periodic1
    {
        type            cyclic;
    }
    rightInOut_periodic0
    {
        type            cyclic;
    }
    rightInOut_periodic1
    {
        type            cyclic;
    }
}


// ************************************************************************* //
