/*--------------------------------*- C++ -*----------------------------------*\
| =========                 |                                                 |
| \\      /  F ield         | OpenFOAM: The Open Source CFD Toolbox           |
|  \\    /   O peration     | Version:  v1912                                 |
|   \\  /    A nd           | Website:  www.openfoam.com                      |
|    \\/     M anipulation  |                                                 |
\*---------------------------------------------------------------------------*/
FoamFile
{
    version     2.0;
    format      ascii;
    class       volScalarField;
    location    "200";
    object      nut;
}
// * * * * * * * * * * * * * * * * * * * * * * * * * * * * * * * * * * * * * //

dimensions      [0 2 -1 0 0 0 0];


internalField   nonuniform List<scalar> 
40448
(
9.75632e-12
4.52291e-12
1.58984e-12
4.49677e-12
4.38797e-12
5.18818e-12
5.34934e-12
5.56179e-12
5.54471e-12
5.55111e-12
5.32436e-12
5.15457e-12
4.34955e-12
4.46402e-12
1.57791e-12
4.4906e-12
1.67464e-11
1.14154e-11
1.54158e-11
1.65295e-11
1.649e-11
1.71902e-11
1.74542e-11
1.78296e-11
1.77843e-11
1.78086e-11
1.74268e-11
1.71622e-11
1.64631e-11
1.65094e-11
1.54385e-11
1.13989e-11
1.86465e-10
1.45479e-10
2.81102e-10
2.56921e-10
2.5781e-10
2.58584e-10
2.61173e-10
2.65132e-10
2.64497e-10
2.64896e-10
2.61052e-10
2.58596e-10
2.57923e-10
2.57074e-10
2.81759e-10
1.45685e-10
1.4368e-09
1.01576e-09
2.03353e-09
1.86148e-09
1.86711e-09
1.8697e-09
1.88774e-09
1.91553e-09
1.91089e-09
1.91392e-09
1.88704e-09
1.87003e-09
1.8682e-09
1.86283e-09
2.03835e-09
1.01738e-09
6.76214e-09
4.27886e-09
8.64139e-09
8.02612e-09
8.04376e-09
8.06447e-09
8.14277e-09
8.26331e-09
8.243e-09
8.25651e-09
8.13988e-09
8.06601e-09
8.04838e-09
8.03189e-09
8.66149e-09
4.28541e-09
2.32352e-08
1.30926e-08
2.62252e-08
2.49897e-08
2.50171e-08
2.51671e-08
2.54224e-08
2.58136e-08
2.57487e-08
2.57921e-08
2.54119e-08
2.51697e-08
2.5028e-08
2.50047e-08
2.62829e-08
1.31101e-08
6.41201e-08
3.1969e-08
6.22774e-08
6.1689e-08
6.16589e-08
6.24178e-08
6.3108e-08
6.41587e-08
6.39914e-08
6.41018e-08
6.30717e-08
6.24106e-08
6.16679e-08
6.17104e-08
6.24018e-08
3.20017e-08
1.4872e-07
6.53445e-08
1.21542e-07
1.26512e-07
1.26169e-07
1.28865e-07
1.30461e-07
1.3288e-07
1.32516e-07
1.32751e-07
1.30353e-07
1.28806e-07
1.26133e-07
1.26508e-07
1.21754e-07
6.53841e-08
2.96323e-07
1.15149e-07
2.02059e-07
2.21956e-07
2.20741e-07
2.27793e-07
2.30961e-07
2.35763e-07
2.3508e-07
2.35507e-07
2.30698e-07
2.27597e-07
2.20572e-07
2.21853e-07
2.02364e-07
1.15171e-07
5.1518e-07
1.79474e-07
2.95703e-07
3.42091e-07
3.3919e-07
3.53606e-07
3.5905e-07
3.67335e-07
3.66211e-07
3.66896e-07
3.58527e-07
3.53159e-07
3.38777e-07
3.41788e-07
2.96089e-07
1.79438e-07
7.97332e-07
2.52049e-07
3.68277e-07
4.75835e-07
4.70346e-07
4.94899e-07
5.03188e-07
5.15881e-07
5.14218e-07
5.15213e-07
5.02309e-07
4.94096e-07
4.69591e-07
4.75238e-07
3.68637e-07
2.51751e-07
1.12491e-06
3.07601e-07
4.30004e-07
5.89921e-07
5.77736e-07
6.26538e-07
6.40098e-07
6.61842e-07
6.591e-07
6.60706e-07
6.38403e-07
6.24805e-07
5.76162e-07
5.88573e-07
4.30431e-07
3.07256e-07
1.4795e-06
3.65304e-07
4.887e-07
6.76746e-07
6.61824e-07
7.18651e-07
7.34122e-07
7.59092e-07
7.55936e-07
7.57809e-07
7.32169e-07
7.16665e-07
6.60036e-07
6.75209e-07
4.89199e-07
3.64929e-07
1.84696e-06
4.26333e-07
5.4451e-07
7.59126e-07
7.41812e-07
8.0515e-07
8.22177e-07
8.49695e-07
8.46211e-07
8.48312e-07
8.20026e-07
8.02986e-07
7.39875e-07
7.57463e-07
5.45084e-07
4.25934e-07
2.18244e-06
4.91198e-07
5.97484e-07
8.39044e-07
8.19312e-07
8.89321e-07
9.07927e-07
9.37978e-07
9.34172e-07
9.36505e-07
9.05577e-07
8.86982e-07
8.17238e-07
8.37266e-07
5.98133e-07
4.90782e-07
2.44015e-06
5.60661e-07
6.48058e-07
9.17138e-07
8.94893e-07
9.71875e-07
9.92086e-07
1.02469e-06
1.02056e-06
1.02314e-06
9.89537e-07
9.69366e-07
8.92689e-07
9.15253e-07
6.48786e-07
5.60239e-07
2.70722e-06
6.35872e-07
6.97063e-07
9.95308e-07
9.70277e-07
1.05472e-06
1.07649e-06
1.11166e-06
1.10718e-06
1.11004e-06
1.07375e-06
1.05206e-06
9.67947e-07
9.93322e-07
6.97873e-07
6.35455e-07
3.00224e-06
7.18412e-07
7.45686e-07
1.07739e-06
1.04887e-06
1.14204e-06
1.16518e-06
1.20306e-06
1.19814e-06
1.20135e-06
1.1623e-06
1.13921e-06
1.04639e-06
1.07528e-06
7.46582e-07
7.18007e-07
3.33955e-06
8.10302e-07
7.95373e-07
1.16867e-06
1.13536e-06
1.24001e-06
1.26423e-06
1.30519e-06
1.29967e-06
1.30339e-06
1.26123e-06
1.23701e-06
1.13266e-06
1.16639e-06
7.96358e-07
8.09909e-07
3.73115e-06
9.13709e-07
8.4769e-07
1.27463e-06
1.23475e-06
1.35516e-06
1.37965e-06
1.42356e-06
1.41728e-06
1.42163e-06
1.37665e-06
1.35192e-06
1.2317e-06
1.27206e-06
8.48766e-07
9.13319e-07
4.17241e-06
1.03068e-06
9.04225e-07
1.39781e-06
1.35107e-06
1.48817e-06
1.50899e-06
1.54899e-06
1.54287e-06
1.54719e-06
1.50657e-06
1.48472e-06
1.34764e-06
1.39493e-06
9.05397e-07
1.03028e-06
4.62955e-06
1.16317e-06
9.66553e-07
1.52111e-06
1.48109e-06
1.60159e-06
1.62177e-06
1.6652e-06
1.65826e-06
1.66322e-06
1.61935e-06
1.59872e-06
1.47806e-06
1.51876e-06
9.67824e-07
1.16273e-06
5.07598e-06
1.31278e-06
1.03623e-06
1.62674e-06
1.58527e-06
1.71337e-06
1.73445e-06
1.78255e-06
1.77468e-06
1.78039e-06
1.73199e-06
1.71049e-06
1.58231e-06
1.62439e-06
1.03761e-06
1.31227e-06
5.49921e-06
1.4798e-06
1.11479e-06
1.7278e-06
1.68628e-06
1.82074e-06
1.84222e-06
1.8942e-06
1.88547e-06
1.89183e-06
1.83984e-06
1.81793e-06
1.68333e-06
1.72557e-06
1.11627e-06
1.47927e-06
5.8964e-06
1.65706e-06
1.20369e-06
1.82231e-06
1.78443e-06
1.91734e-06
1.93801e-06
1.99205e-06
1.9826e-06
1.98947e-06
1.93593e-06
1.91485e-06
1.7818e-06
1.82052e-06
1.20527e-06
1.65699e-06
6.27063e-06
1.81994e-06
1.30424e-06
1.90738e-06
1.87713e-06
1.99922e-06
2.01765e-06
2.07138e-06
2.06157e-06
2.0687e-06
2.0161e-06
1.99735e-06
1.87522e-06
1.90637e-06
1.30594e-06
1.82013e-06
6.62616e-06
1.99435e-06
1.41768e-06
1.98169e-06
1.96296e-06
2.06537e-06
2.08018e-06
2.13117e-06
2.12139e-06
2.12853e-06
2.07938e-06
2.06442e-06
1.96217e-06
1.9818e-06
1.41948e-06
1.99475e-06
6.96711e-06
2.18625e-06
1.54495e-06
2.04576e-06
2.04213e-06
2.11713e-06
2.12715e-06
2.17324e-06
2.16373e-06
2.17071e-06
2.1273e-06
2.11734e-06
2.04282e-06
2.04727e-06
1.54685e-06
2.18687e-06
7.29646e-06
2.39748e-06
1.68574e-06
2.10329e-06
2.11638e-06
2.15785e-06
2.16225e-06
2.20155e-06
2.19256e-06
2.19921e-06
2.16351e-06
2.15943e-06
2.11887e-06
2.10634e-06
1.68773e-06
2.39834e-06
7.61499e-06
2.62891e-06
1.83243e-06
2.16117e-06
2.19028e-06
2.1949e-06
2.19309e-06
2.22352e-06
2.21535e-06
2.22148e-06
2.19555e-06
2.19796e-06
2.19464e-06
2.16577e-06
1.83439e-06
2.63003e-06
7.92134e-06
2.88104e-06
1.98366e-06
2.22439e-06
2.26984e-06
2.238e-06
2.22993e-06
2.24994e-06
2.24288e-06
2.24831e-06
2.23359e-06
2.24258e-06
2.27596e-06
2.2305e-06
1.98574e-06
2.88245e-06
8.21495e-06
3.1544e-06
2.14932e-06
2.29452e-06
2.35863e-06
2.29342e-06
2.27982e-06
2.2893e-06
2.28355e-06
2.28815e-06
2.28464e-06
2.29949e-06
2.3664e-06
2.30208e-06
2.15153e-06
3.15608e-06
8.50502e-06
3.44931e-06
2.33222e-06
2.3726e-06
2.45832e-06
2.36423e-06
2.34643e-06
2.346e-06
2.34171e-06
2.34538e-06
2.35232e-06
2.37172e-06
2.46761e-06
2.38153e-06
2.33451e-06
3.45122e-06
8.82689e-06
3.76577e-06
2.53358e-06
2.46056e-06
2.57068e-06
2.45244e-06
2.43201e-06
2.4227e-06
2.42003e-06
2.42265e-06
2.43889e-06
2.46125e-06
2.58134e-06
2.47081e-06
2.53593e-06
3.76782e-06
9.23816e-06
4.10323e-06
2.75409e-06
2.56151e-06
2.69835e-06
2.56057e-06
2.53891e-06
2.52162e-06
2.52073e-06
2.52216e-06
2.54673e-06
2.57063e-06
2.71021e-06
2.573e-06
2.75642e-06
4.1053e-06
9.79051e-06
4.45989e-06
2.99225e-06
2.67929e-06
2.84478e-06
2.69252e-06
2.67104e-06
2.64643e-06
2.64754e-06
2.64757e-06
2.67976e-06
2.70375e-06
2.85763e-06
2.69191e-06
2.9945e-06
4.46181e-06
1.0499e-05
4.83049e-06
3.23723e-06
2.8184e-06
3.01425e-06
2.85331e-06
2.83382e-06
2.80279e-06
2.80609e-06
2.80452e-06
2.84336e-06
2.86555e-06
3.0279e-06
2.83198e-06
3.2392e-06
4.83201e-06
1.12214e-05
5.20383e-06
3.43677e-06
2.98448e-06
3.21282e-06
3.04883e-06
3.03382e-06
2.99798e-06
3.00366e-06
3.00027e-06
3.04397e-06
3.06184e-06
3.22717e-06
2.99882e-06
3.43801e-06
5.20467e-06
1.16508e-05
5.55151e-06
3.63222e-06
3.18437e-06
3.4494e-06
3.28572e-06
3.27802e-06
3.23966e-06
3.24783e-06
3.24244e-06
3.28855e-06
3.29924e-06
3.46454e-06
3.19932e-06
3.63322e-06
5.55124e-06
1.17301e-05
5.86086e-06
3.83301e-06
3.42522e-06
3.73359e-06
3.56931e-06
3.57184e-06
3.53358e-06
3.54432e-06
3.53676e-06
3.5825e-06
3.58309e-06
3.74951e-06
3.44077e-06
3.83373e-06
5.86027e-06
1.17818e-05
6.17304e-06
4.03906e-06
3.70593e-06
4.05632e-06
3.89552e-06
3.91107e-06
3.87648e-06
3.89004e-06
3.88009e-06
3.9213e-06
3.90909e-06
4.07291e-06
3.72212e-06
4.03948e-06
6.17207e-06
1.18125e-05
6.48827e-06
4.25039e-06
3.96899e-06
4.33932e-06
4.20081e-06
4.22999e-06
4.21494e-06
4.22927e-06
4.21894e-06
4.23797e-06
4.2126e-06
4.35779e-06
3.98637e-06
4.25049e-06
6.48681e-06
1.18289e-05
6.80759e-06
4.46705e-06
4.20052e-06
4.59193e-06
4.46191e-06
4.49941e-06
4.48554e-06
4.50161e-06
4.48949e-06
4.50719e-06
4.47333e-06
4.6098e-06
4.21758e-06
4.46681e-06
6.80547e-06
1.18369e-05
7.13179e-06
4.68912e-06
4.44981e-06
4.85868e-06
4.74227e-06
4.78799e-06
4.77411e-06
4.79236e-06
4.77806e-06
4.79554e-06
4.75333e-06
4.87563e-06
4.4663e-06
4.68853e-06
7.1288e-06
1.18421e-05
7.46122e-06
4.91665e-06
4.71347e-06
5.13595e-06
5.03794e-06
5.09215e-06
5.0803e-06
5.1003e-06
5.08416e-06
5.09933e-06
5.04848e-06
5.15175e-06
4.72919e-06
4.9157e-06
7.45707e-06
1.18501e-05
7.79526e-06
5.1496e-06
4.98779e-06
5.42012e-06
5.34388e-06
5.40637e-06
5.39807e-06
5.41941e-06
5.40176e-06
5.41311e-06
5.35384e-06
5.43461e-06
5.00253e-06
5.14828e-06
7.79038e-06
1.18665e-05
8.13066e-06
5.38778e-06
5.26905e-06
5.70773e-06
5.65592e-06
5.7261e-06
5.7221e-06
5.74441e-06
5.72559e-06
5.7324e-06
5.66534e-06
5.72084e-06
5.28266e-06
5.3861e-06
8.12536e-06
1.18956e-05
8.46547e-06
5.63082e-06
5.55375e-06
5.99559e-06
5.97132e-06
6.04903e-06
6.0497e-06
6.07279e-06
6.05301e-06
6.05496e-06
5.98014e-06
6.00735e-06
5.56616e-06
5.6288e-06
8.45993e-06
1.19421e-05
8.79861e-06
5.87812e-06
5.83853e-06
6.28268e-06
6.28822e-06
6.37407e-06
6.38087e-06
6.40458e-06
6.38395e-06
6.37959e-06
6.29639e-06
6.29319e-06
5.84971e-06
5.87578e-06
8.79295e-06
1.20105e-05
9.12954e-06
6.12971e-06
6.12179e-06
6.56849e-06
6.60527e-06
6.6992e-06
6.71308e-06
6.73717e-06
6.71588e-06
6.70426e-06
6.61276e-06
6.5778e-06
6.13181e-06
6.12707e-06
9.12384e-06
1.21059e-05
9.45791e-06
6.3865e-06
6.40298e-06
6.85085e-06
6.9199e-06
7.02161e-06
7.04324e-06
7.0675e-06
7.04575e-06
7.02622e-06
6.92668e-06
6.85905e-06
6.41192e-06
6.38353e-06
9.45222e-06
1.22311e-05
9.78352e-06
6.64864e-06
6.68022e-06
7.12766e-06
7.22997e-06
7.33901e-06
7.36886e-06
7.39308e-06
7.37108e-06
7.34317e-06
7.23608e-06
7.13483e-06
6.68814e-06
6.6454e-06
9.77789e-06
1.23868e-05
1.01064e-05
6.91541e-06
6.95129e-06
7.39681e-06
7.5337e-06
7.64944e-06
7.68793e-06
7.71187e-06
7.68986e-06
7.6532e-06
7.53918e-06
7.40308e-06
6.95827e-06
6.91192e-06
1.01008e-05
1.25726e-05
1.04269e-05
7.18599e-06
7.2171e-06
7.65942e-06
7.82943e-06
7.95109e-06
7.99875e-06
8.0221e-06
8.0004e-06
7.95451e-06
7.83437e-06
7.66488e-06
7.22317e-06
7.18229e-06
1.04215e-05
1.27867e-05
1.07455e-05
7.45959e-06
7.47901e-06
7.91688e-06
8.11569e-06
8.24226e-06
8.29977e-06
8.32213e-06
8.30115e-06
8.24542e-06
8.12018e-06
7.92163e-06
7.48421e-06
7.45571e-06
1.07401e-05
1.29124e-05
1.10616e-05
7.7354e-06
7.7375e-06
8.16981e-06
8.39185e-06
8.524e-06
8.58959e-06
8.61119e-06
8.59073e-06
8.52684e-06
8.39588e-06
8.17393e-06
7.74189e-06
7.73139e-06
1.10563e-05
1.29469e-05
1.13745e-05
8.01267e-06
7.99262e-06
8.41835e-06
8.65979e-06
8.79756e-06
8.86962e-06
8.89107e-06
8.87059e-06
8.80008e-06
8.66337e-06
8.42193e-06
7.99627e-06
8.00858e-06
1.13692e-05
1.30754e-05
1.16832e-05
8.29064e-06
8.24428e-06
8.66247e-06
8.92027e-06
9.06335e-06
9.14085e-06
9.16243e-06
9.14169e-06
9.06557e-06
8.92346e-06
8.66558e-06
8.24728e-06
8.28651e-06
1.16779e-05
1.33695e-05
1.19868e-05
8.56857e-06
8.49228e-06
8.90201e-06
9.17356e-06
9.32142e-06
9.40356e-06
9.42538e-06
9.4043e-06
9.32338e-06
9.17642e-06
8.90474e-06
8.49476e-06
8.56446e-06
1.19816e-05
1.38508e-05
1.22843e-05
8.84578e-06
8.73629e-06
9.13668e-06
9.41961e-06
9.57158e-06
9.65769e-06
9.67977e-06
9.65836e-06
9.57332e-06
9.42219e-06
9.13908e-06
8.73835e-06
8.84173e-06
1.22792e-05
1.4455e-05
1.25745e-05
9.1216e-06
8.97584e-06
9.36597e-06
9.658e-06
9.81337e-06
9.90286e-06
9.92519e-06
9.90346e-06
9.81493e-06
9.66035e-06
9.36809e-06
8.97758e-06
9.11768e-06
1.25696e-05
1.47791e-05
1.28561e-05
9.39544e-06
9.21058e-06
9.58933e-06
9.88807e-06
1.0046e-05
1.01383e-05
1.01608e-05
1.01388e-05
1.00474e-05
9.89021e-06
9.59126e-06
9.21208e-06
9.39173e-06
1.28513e-05
1.50823e-05
1.31276e-05
9.66677e-06
9.44045e-06
9.80648e-06
1.01092e-05
1.02688e-05
1.03628e-05
1.03857e-05
1.03632e-05
1.027e-05
1.01112e-05
9.80832e-06
9.44183e-06
9.66333e-06
1.3123e-05
1.53755e-05
1.33874e-05
9.93508e-06
9.66583e-06
1.00176e-05
1.03213e-05
1.04812e-05
1.05754e-05
1.05989e-05
1.05757e-05
1.04824e-05
1.03232e-05
1.00194e-05
9.66723e-06
9.93199e-06
1.3383e-05
1.56532e-05
1.36338e-05
1.01998e-05
9.8875e-06
1.02231e-05
1.05245e-05
1.06833e-05
1.0776e-05
1.07999e-05
1.07763e-05
1.06844e-05
1.05264e-05
1.02252e-05
9.88906e-06
1.01972e-05
1.36296e-05
1.59107e-05
1.38647e-05
1.04603e-05
1.01064e-05
1.0424e-05
1.07192e-05
1.08752e-05
1.0965e-05
1.09889e-05
1.09653e-05
1.08763e-05
1.07212e-05
1.04263e-05
1.01083e-05
1.04582e-05
1.38607e-05
1.61437e-05
1.4078e-05
1.07158e-05
1.03233e-05
1.06212e-05
1.09057e-05
1.10568e-05
1.11427e-05
1.11663e-05
1.1143e-05
1.1058e-05
1.09077e-05
1.06239e-05
1.03256e-05
1.07143e-05
1.40742e-05
1.63487e-05
1.42713e-05
1.09652e-05
1.05385e-05
1.08152e-05
1.10839e-05
1.12284e-05
1.13096e-05
1.13325e-05
1.13099e-05
1.12297e-05
1.10862e-05
1.08184e-05
1.05413e-05
1.09644e-05
1.42678e-05
1.65227e-05
1.44424e-05
1.12072e-05
1.07516e-05
1.10059e-05
1.12543e-05
1.13904e-05
1.14659e-05
1.14879e-05
1.14663e-05
1.13918e-05
1.12569e-05
1.10096e-05
1.0755e-05
1.12071e-05
1.44392e-05
1.6663e-05
1.45888e-05
1.14402e-05
1.09608e-05
1.11915e-05
1.1417e-05
1.15428e-05
1.16117e-05
1.16325e-05
1.16122e-05
1.15445e-05
1.142e-05
1.11958e-05
1.09649e-05
1.14408e-05
1.45859e-05
1.67676e-05
1.47081e-05
1.16625e-05
1.11644e-05
1.1371e-05
1.15721e-05
1.16858e-05
1.17469e-05
1.17662e-05
1.17476e-05
1.16878e-05
1.15755e-05
1.13758e-05
1.11693e-05
1.16639e-05
1.47055e-05
1.68343e-05
1.4798e-05
1.18718e-05
1.13617e-05
1.15439e-05
1.17193e-05
1.18192e-05
1.18716e-05
1.18889e-05
1.18724e-05
1.18215e-05
1.17233e-05
1.15493e-05
1.13674e-05
1.18744e-05
1.47957e-05
1.68613e-05
1.48565e-05
1.20653e-05
1.15517e-05
1.17097e-05
1.18584e-05
1.19428e-05
1.19854e-05
1.20006e-05
1.19864e-05
1.19455e-05
1.18628e-05
1.17159e-05
1.15584e-05
1.20689e-05
1.48546e-05
1.68463e-05
1.48817e-05
1.22414e-05
1.17333e-05
1.18678e-05
1.19887e-05
1.20563e-05
1.20882e-05
1.21009e-05
1.20894e-05
1.20593e-05
1.19937e-05
1.18746e-05
1.17409e-05
1.22461e-05
1.48803e-05
1.67854e-05
1.48723e-05
1.23986e-05
1.19049e-05
1.20169e-05
1.21096e-05
1.21591e-05
1.21796e-05
1.21895e-05
1.2181e-05
1.21625e-05
1.21152e-05
1.20245e-05
1.19135e-05
1.24045e-05
1.48714e-05
1.66738e-05
1.48269e-05
1.25356e-05
1.20648e-05
1.21559e-05
1.22202e-05
1.22506e-05
1.22592e-05
1.22662e-05
1.22608e-05
1.22545e-05
1.22263e-05
1.21643e-05
1.20744e-05
1.25426e-05
1.48266e-05
1.65102e-05
1.47439e-05
1.26512e-05
1.22111e-05
1.22834e-05
1.23194e-05
1.23303e-05
1.23265e-05
1.23304e-05
1.23283e-05
1.23345e-05
1.23261e-05
1.22925e-05
1.22216e-05
1.26594e-05
1.47442e-05
1.62973e-05
1.4626e-05
1.27445e-05
1.23419e-05
1.23978e-05
1.24062e-05
1.23973e-05
1.2381e-05
1.23818e-05
1.2383e-05
1.24019e-05
1.24133e-05
1.24076e-05
1.23535e-05
1.27539e-05
1.4627e-05
1.60365e-05
1.44758e-05
1.28138e-05
1.24548e-05
1.24973e-05
1.24797e-05
1.24513e-05
1.24226e-05
1.24202e-05
1.24249e-05
1.24562e-05
1.24873e-05
1.25079e-05
1.24673e-05
1.28243e-05
1.44776e-05
1.03423e-11
6.75463e-12
4.27582e-12
4.2656e-12
4.45926e-12
4.54802e-12
4.59086e-12
4.62144e-12
4.62719e-12
4.62721e-12
4.60322e-12
4.56463e-12
4.47712e-12
4.28114e-12
4.2898e-12
6.76681e-12
7.50609e-11
2.01305e-11
1.74045e-11
2.18845e-11
2.22603e-11
2.40066e-11
2.45666e-11
2.52125e-11
2.51825e-11
2.52173e-11
2.45608e-11
2.40066e-11
2.22501e-11
2.18785e-11
1.74423e-11
2.01249e-11
1.27507e-09
2.82744e-10
2.77527e-10
3.65559e-10
3.68815e-10
4.0138e-10
4.11417e-10
4.23434e-10
4.22703e-10
4.23428e-10
4.11086e-10
4.0109e-10
3.68303e-10
3.65167e-10
2.7804e-10
2.82438e-10
8.80857e-09
1.97389e-09
1.99805e-09
2.62611e-09
2.64105e-09
2.87097e-09
2.94045e-09
3.02479e-09
3.01922e-09
3.02466e-09
2.93789e-09
2.86864e-09
2.63713e-09
2.62309e-09
2.00164e-09
1.97167e-09
3.58576e-08
8.20133e-09
8.4956e-09
1.11359e-08
1.11669e-08
1.21233e-08
1.24068e-08
1.27553e-08
1.27308e-08
1.27544e-08
1.23952e-08
1.21125e-08
1.11494e-08
1.11223e-08
8.51033e-09
8.19194e-09
1.04893e-07
2.46268e-08
2.59681e-08
3.40353e-08
3.40366e-08
3.69221e-08
3.77604e-08
3.88035e-08
3.87264e-08
3.87993e-08
3.77219e-08
3.68849e-08
3.39792e-08
3.39901e-08
2.60106e-08
2.45976e-08
2.42504e-07
5.9056e-08
6.30388e-08
8.28247e-08
8.26066e-08
8.95874e-08
9.15711e-08
9.40672e-08
9.3876e-08
9.40516e-08
9.14668e-08
8.94832e-08
8.24538e-08
8.27033e-08
6.31336e-08
5.89818e-08
4.67935e-07
1.1931e-07
1.28255e-07
1.69261e-07
1.68355e-07
1.82542e-07
1.8649e-07
1.91515e-07
1.91121e-07
1.9147e-07
1.86251e-07
1.82294e-07
1.68011e-07
1.68985e-07
1.28427e-07
1.19151e-07
7.84605e-07
2.09835e-07
2.26143e-07
3.00097e-07
2.97676e-07
3.228e-07
3.2965e-07
3.38453e-07
3.37753e-07
3.38349e-07
3.29174e-07
3.22295e-07
2.97005e-07
2.99556e-07
2.26409e-07
2.09538e-07
1.18061e-06
3.29263e-07
3.54542e-07
4.733e-07
4.68256e-07
5.08076e-07
5.18743e-07
5.32554e-07
5.31454e-07
5.32352e-07
5.17907e-07
5.07171e-07
4.67102e-07
4.72365e-07
3.54901e-07
3.28771e-07
1.63491e-06
4.70921e-07
5.06059e-07
6.78746e-07
6.69895e-07
7.27673e-07
7.42954e-07
7.62833e-07
7.61261e-07
7.6249e-07
7.4163e-07
7.26223e-07
6.68109e-07
6.77296e-07
5.06502e-07
4.70188e-07
2.1236e-06
6.26065e-07
6.70978e-07
9.02195e-07
8.88459e-07
9.66637e-07
9.87157e-07
1.01391e-06
1.01182e-06
1.01339e-06
9.85233e-07
9.64513e-07
8.85924e-07
9.00134e-07
6.71495e-07
6.25092e-07
2.62441e-06
7.86671e-07
8.40288e-07
1.12936e-06
1.10999e-06
1.20994e-06
1.23613e-06
1.27027e-06
1.26766e-06
1.26955e-06
1.23351e-06
1.20705e-06
1.10667e-06
1.12663e-06
8.40873e-07
7.85461e-07
3.11897e-06
9.46509e-07
1.00739e-06
1.35188e-06
1.32633e-06
1.44683e-06
1.47849e-06
1.51962e-06
1.51657e-06
1.51869e-06
1.47518e-06
1.44319e-06
1.32221e-06
1.34847e-06
1.00804e-06
9.45084e-07
3.59423e-06
1.09449e-06
1.15029e-06
1.56395e-06
1.5318e-06
1.67214e-06
1.70919e-06
1.75712e-06
1.75367e-06
1.75598e-06
1.70517e-06
1.66774e-06
1.52691e-06
1.55987e-06
1.15089e-06
1.09229e-06
4.04191e-06
1.21765e-06
1.26798e-06
1.76291e-06
1.72383e-06
1.88289e-06
1.92514e-06
1.9795e-06
1.97572e-06
1.97818e-06
1.92042e-06
1.87778e-06
1.7182e-06
1.7582e-06
1.26865e-06
1.21531e-06
4.45765e-06
1.33374e-06
1.37784e-06
1.94836e-06
1.90203e-06
2.07855e-06
2.1257e-06
2.18607e-06
2.18201e-06
2.18457e-06
2.12032e-06
2.07275e-06
1.89569e-06
1.94306e-06
1.37862e-06
1.33144e-06
4.83981e-06
1.44704e-06
1.48429e-06
2.11661e-06
2.04809e-06
2.26006e-06
2.31175e-06
2.37765e-06
2.37337e-06
2.37602e-06
2.30574e-06
2.25363e-06
2.03924e-06
2.10905e-06
1.48518e-06
1.44485e-06
5.18849e-06
1.55999e-06
1.58982e-06
2.22982e-06
2.15417e-06
2.40646e-06
2.47057e-06
2.5559e-06
2.55142e-06
2.55413e-06
2.46255e-06
2.39742e-06
2.14484e-06
2.22185e-06
1.59085e-06
1.55796e-06
5.5045e-06
1.67494e-06
1.69687e-06
2.33209e-06
2.25269e-06
2.5112e-06
2.57693e-06
2.66824e-06
2.66196e-06
2.6653e-06
2.56863e-06
2.50177e-06
2.2434e-06
2.32424e-06
1.69804e-06
1.67311e-06
5.78865e-06
1.79441e-06
1.80795e-06
2.43305e-06
2.35081e-06
2.60718e-06
2.67165e-06
2.7626e-06
2.7559e-06
2.75946e-06
2.66353e-06
2.59792e-06
2.34171e-06
2.42537e-06
1.80926e-06
1.79282e-06
6.04116e-06
1.92054e-06
1.92498e-06
2.53703e-06
2.45073e-06
2.7047e-06
2.76735e-06
2.85675e-06
2.84995e-06
2.85367e-06
2.75948e-06
2.69569e-06
2.44173e-06
2.52947e-06
1.92644e-06
1.91922e-06
6.27659e-06
2.05268e-06
2.04631e-06
2.64512e-06
2.55382e-06
2.80648e-06
2.8674e-06
2.95546e-06
2.94857e-06
2.95247e-06
2.85974e-06
2.79768e-06
2.54485e-06
2.63764e-06
2.04791e-06
2.05172e-06
6.51189e-06
2.18398e-06
2.17255e-06
2.75791e-06
2.66076e-06
2.91329e-06
2.97266e-06
3.05984e-06
3.05279e-06
3.05691e-06
2.96516e-06
2.90464e-06
2.65175e-06
2.75047e-06
2.17433e-06
2.18341e-06
6.74762e-06
2.31967e-06
2.30763e-06
2.8764e-06
2.7725e-06
3.02589e-06
3.0838e-06
3.17045e-06
3.16319e-06
3.16754e-06
3.07643e-06
3.01732e-06
2.76342e-06
2.86895e-06
2.30963e-06
2.31954e-06
6.98413e-06
2.46149e-06
2.45376e-06
3.00237e-06
2.89058e-06
3.1458e-06
3.20227e-06
3.28856e-06
3.28104e-06
3.28565e-06
3.19499e-06
3.13725e-06
2.88138e-06
2.99487e-06
2.456e-06
2.46186e-06
7.22163e-06
2.61056e-06
2.61244e-06
3.13823e-06
3.01714e-06
3.27511e-06
3.33006e-06
3.41595e-06
3.40814e-06
3.41301e-06
3.32285e-06
3.26655e-06
3.00774e-06
3.13062e-06
2.61494e-06
2.61147e-06
7.46023e-06
2.76788e-06
2.78468e-06
3.28553e-06
3.15391e-06
3.41407e-06
3.467e-06
3.55195e-06
3.54389e-06
3.54899e-06
3.4599e-06
3.40552e-06
3.14426e-06
3.27778e-06
2.78746e-06
2.7694e-06
7.69996e-06
2.9344e-06
2.97096e-06
3.44238e-06
3.30012e-06
3.55746e-06
3.60692e-06
3.68921e-06
3.68104e-06
3.68624e-06
3.60014e-06
3.54916e-06
3.29032e-06
3.43461e-06
2.97402e-06
2.93657e-06
7.94066e-06
3.1109e-06
3.17126e-06
3.60379e-06
3.45217e-06
3.69644e-06
3.73992e-06
3.81642e-06
3.80839e-06
3.81351e-06
3.73383e-06
3.68882e-06
3.44247e-06
3.59631e-06
3.17461e-06
3.11373e-06
8.18186e-06
3.29791e-06
3.38524e-06
3.76454e-06
3.60558e-06
3.82351e-06
3.85802e-06
3.92496e-06
3.91736e-06
3.92221e-06
3.85305e-06
3.81708e-06
3.59641e-06
3.75774e-06
3.38889e-06
3.30142e-06
8.42196e-06
3.49575e-06
3.61231e-06
3.92127e-06
3.75708e-06
3.93515e-06
3.95795e-06
4.0118e-06
4.00492e-06
4.00935e-06
3.95444e-06
3.93038e-06
3.7489e-06
3.91556e-06
3.61624e-06
3.49992e-06
8.65563e-06
3.70447e-06
3.85143e-06
4.07303e-06
3.90541e-06
4.03219e-06
4.04131e-06
4.07952e-06
4.07356e-06
4.07747e-06
4.03952e-06
4.02943e-06
3.89867e-06
4.06882e-06
3.85561e-06
3.70926e-06
8.87311e-06
3.92375e-06
4.10098e-06
4.22116e-06
4.05139e-06
4.11997e-06
4.11502e-06
4.13636e-06
4.13154e-06
4.13485e-06
4.11499e-06
4.11936e-06
4.04645e-06
4.21872e-06
4.10536e-06
3.92908e-06
9.06366e-06
4.15285e-06
4.3586e-06
4.36899e-06
4.19801e-06
4.20874e-06
4.19072e-06
4.1956e-06
4.19202e-06
4.19472e-06
4.19234e-06
4.2102e-06
4.19506e-06
4.3685e-06
4.3631e-06
4.15861e-06
9.22224e-06
4.39063e-06
4.62125e-06
4.52249e-06
4.35071e-06
4.3089e-06
4.27918e-06
4.26904e-06
4.26665e-06
4.2688e-06
4.28225e-06
4.3122e-06
4.34969e-06
4.52385e-06
4.6258e-06
4.39667e-06
9.34458e-06
4.63562e-06
4.88565e-06
4.68844e-06
4.51552e-06
4.42724e-06
4.38715e-06
4.3637e-06
4.36237e-06
4.36405e-06
4.39144e-06
4.43209e-06
4.51627e-06
4.69137e-06
4.89016e-06
4.64175e-06
9.42129e-06
4.88606e-06
5.1493e-06
4.87181e-06
4.69704e-06
4.56847e-06
4.5193e-06
4.4843e-06
4.48388e-06
4.48519e-06
4.52458e-06
4.57459e-06
4.69934e-06
4.87602e-06
5.15371e-06
4.89213e-06
9.44537e-06
5.13894e-06
5.41157e-06
5.07554e-06
4.89821e-06
4.73552e-06
4.67858e-06
4.63394e-06
4.6342e-06
4.63528e-06
4.68459e-06
4.74259e-06
4.90183e-06
5.08076e-06
5.41583e-06
5.14495e-06
9.41779e-06
5.38788e-06
5.67358e-06
5.30023e-06
5.11972e-06
4.92935e-06
4.86613e-06
4.81407e-06
4.81476e-06
4.81579e-06
4.8726e-06
4.93703e-06
5.12442e-06
5.30618e-06
5.67769e-06
5.39411e-06
9.34292e-06
5.60813e-06
5.9372e-06
5.54366e-06
5.35964e-06
5.14882e-06
5.08112e-06
5.02433e-06
5.02512e-06
5.02632e-06
5.08773e-06
5.15673e-06
5.36519e-06
5.55006e-06
5.94118e-06
5.61678e-06
9.22654e-06
5.78976e-06
6.20394e-06
5.8015e-06
5.61444e-06
5.39137e-06
5.32124e-06
5.26272e-06
5.26328e-06
5.26489e-06
5.32768e-06
5.39912e-06
5.62062e-06
5.80811e-06
6.20781e-06
5.79879e-06
9.075e-06
5.96718e-06
6.47377e-06
6.06934e-06
5.88128e-06
5.65462e-06
5.58422e-06
5.52685e-06
5.5268e-06
5.52911e-06
5.59023e-06
5.66187e-06
5.8879e-06
6.07593e-06
6.47755e-06
5.97652e-06
8.8948e-06
6.14072e-06
6.74458e-06
6.34447e-06
6.15949e-06
5.93733e-06
5.86864e-06
5.81433e-06
5.81336e-06
5.81661e-06
5.87403e-06
5.94384e-06
6.16635e-06
6.35091e-06
6.74828e-06
6.15029e-06
8.69225e-06
6.31072e-06
7.01291e-06
6.62643e-06
6.44925e-06
6.23873e-06
6.1726e-06
6.1196e-06
6.11788e-06
6.12193e-06
6.17731e-06
6.24439e-06
6.45596e-06
6.63261e-06
7.01653e-06
6.3205e-06
8.47343e-06
6.47802e-06
7.27514e-06
6.91653e-06
6.75043e-06
6.55636e-06
6.49038e-06
6.42594e-06
6.42531e-06
6.42862e-06
6.49466e-06
6.5615e-06
6.75639e-06
6.92216e-06
7.27868e-06
6.488e-06
8.24425e-06
6.64318e-06
7.52829e-06
7.21763e-06
7.06329e-06
6.88121e-06
6.80466e-06
6.68607e-06
6.69314e-06
6.6901e-06
6.80948e-06
6.88721e-06
7.06794e-06
7.22224e-06
7.53178e-06
6.65333e-06
8.01051e-06
6.80627e-06
7.77077e-06
7.53435e-06
7.38829e-06
7.17942e-06
7.06314e-06
6.94135e-06
6.94768e-06
6.94519e-06
7.07112e-06
7.19001e-06
7.39128e-06
7.53746e-06
7.77425e-06
6.81659e-06
7.77802e-06
6.96748e-06
8.00312e-06
7.87146e-06
7.72261e-06
7.42961e-06
7.31279e-06
7.1959e-06
7.20093e-06
7.19938e-06
7.32012e-06
7.43927e-06
7.72419e-06
7.8729e-06
8.00666e-06
6.97796e-06
7.55255e-06
7.12706e-06
8.22902e-06
8.22882e-06
8.04982e-06
7.67547e-06
7.55827e-06
7.44572e-06
7.44961e-06
7.44888e-06
7.56499e-06
7.68423e-06
8.05155e-06
8.22906e-06
8.23271e-06
7.13767e-06
7.33978e-06
7.28532e-06
8.45665e-06
8.59177e-06
8.31768e-06
7.91515e-06
7.79791e-06
7.68937e-06
7.69221e-06
7.69223e-06
7.80404e-06
7.92306e-06
8.32372e-06
8.59268e-06
8.46059e-06
7.29603e-06
7.14509e-06
7.44259e-06
8.6995e-06
8.91352e-06
8.53764e-06
8.14678e-06
8.03001e-06
7.92526e-06
7.9272e-06
7.92784e-06
8.03556e-06
8.15383e-06
8.54307e-06
8.91971e-06
8.70379e-06
7.45336e-06
6.97395e-06
7.59921e-06
8.97527e-06
9.1357e-06
8.75402e-06
8.36971e-06
8.25296e-06
8.15188e-06
8.15305e-06
8.1542e-06
8.25794e-06
8.37606e-06
8.75893e-06
9.14155e-06
8.97997e-06
7.61002e-06
6.83235e-06
7.75553e-06
9.30391e-06
9.3529e-06
8.96501e-06
8.58475e-06
8.46742e-06
8.36865e-06
8.36928e-06
8.37075e-06
8.4719e-06
8.59052e-06
8.96952e-06
9.35855e-06
9.30904e-06
7.76634e-06
6.72559e-06
7.91187e-06
9.70086e-06
9.56407e-06
9.16949e-06
8.79309e-06
8.67481e-06
8.57687e-06
8.57726e-06
8.57881e-06
8.67886e-06
8.79839e-06
9.17375e-06
9.56964e-06
9.70646e-06
7.92264e-06
6.65718e-06
8.06849e-06
1.01584e-05
9.76933e-06
9.36758e-06
8.99553e-06
8.87452e-06
8.77804e-06
8.77794e-06
8.77987e-06
8.87833e-06
9.00054e-06
9.37169e-06
9.77493e-06
1.01647e-05
8.07918e-06
6.62734e-06
8.22557e-06
1.06112e-05
9.9688e-06
9.55938e-06
9.19051e-06
9.06578e-06
8.97106e-06
8.96995e-06
8.97277e-06
9.06946e-06
9.19537e-06
9.56346e-06
9.9745e-06
1.06187e-05
8.23613e-06
6.63527e-06
8.38336e-06
1.08366e-05
1.01628e-05
9.74528e-06
9.37794e-06
9.24894e-06
9.15569e-06
9.15342e-06
9.15731e-06
9.25257e-06
9.38274e-06
9.74941e-06
1.01686e-05
1.08456e-05
8.39377e-06
6.67931e-06
8.54228e-06
1.10193e-05
1.03516e-05
9.92578e-06
9.55835e-06
9.42483e-06
9.33257e-06
9.32916e-06
9.33415e-06
9.42846e-06
9.56318e-06
9.93005e-06
1.03576e-05
1.10286e-05
8.5525e-06
6.75759e-06
8.70289e-06
1.11963e-05
1.05359e-05
1.01015e-05
9.73262e-06
9.59447e-06
9.50274e-06
9.49827e-06
9.50431e-06
9.59816e-06
9.73753e-06
1.0106e-05
1.05421e-05
1.12057e-05
8.7129e-06
6.86903e-06
8.86586e-06
1.13665e-05
1.0716e-05
1.02731e-05
9.90182e-06
9.75907e-06
9.66745e-06
9.662e-06
9.66904e-06
9.76286e-06
9.9069e-06
1.02779e-05
1.07224e-05
1.13761e-05
8.87565e-06
7.01469e-06
9.03195e-06
1.15295e-05
1.08924e-05
1.04414e-05
1.00672e-05
9.91998e-06
9.82821e-06
9.82184e-06
9.82988e-06
9.92394e-06
1.00725e-05
1.04465e-05
1.08991e-05
1.15393e-05
9.0415e-06
7.19971e-06
9.20195e-06
1.16853e-05
1.10653e-05
1.06068e-05
1.02298e-05
1.00785e-05
9.9866e-06
9.9793e-06
9.98839e-06
1.00826e-05
1.02354e-05
1.06122e-05
1.10722e-05
1.16951e-05
9.21125e-06
7.42683e-06
9.37672e-06
1.1834e-05
1.12346e-05
1.07695e-05
1.03903e-05
1.02354e-05
1.0144e-05
1.01356e-05
1.0146e-05
1.02398e-05
1.03962e-05
1.07753e-05
1.12418e-05
1.1844e-05
9.38574e-06
7.67929e-06
9.5572e-06
1.19762e-05
1.13999e-05
1.09297e-05
1.05491e-05
1.03913e-05
1.03011e-05
1.02918e-05
1.03032e-05
1.0396e-05
1.05553e-05
1.09358e-05
1.14074e-05
1.19861e-05
9.56592e-06
7.94362e-06
9.74451e-06
1.21124e-05
1.15611e-05
1.1087e-05
1.07064e-05
1.05466e-05
1.04582e-05
1.04483e-05
1.04605e-05
1.05516e-05
1.0713e-05
1.10934e-05
1.15687e-05
1.21222e-05
9.75291e-06
8.2226e-06
9.93974e-06
1.22429e-05
1.17177e-05
1.12412e-05
1.08628e-05
1.07021e-05
1.06156e-05
1.06053e-05
1.0618e-05
1.07074e-05
1.08697e-05
1.1248e-05
1.17257e-05
1.22526e-05
9.94778e-06
8.51807e-06
1.01438e-05
1.23682e-05
1.18697e-05
1.13923e-05
1.10187e-05
1.08582e-05
1.07738e-05
1.07632e-05
1.07764e-05
1.08638e-05
1.10259e-05
1.13994e-05
1.18779e-05
1.23777e-05
1.01515e-05
8.83107e-06
1.03576e-05
1.24887e-05
1.20169e-05
1.15405e-05
1.11741e-05
1.10151e-05
1.09332e-05
1.09225e-05
1.0936e-05
1.1021e-05
1.11817e-05
1.15479e-05
1.20254e-05
1.24977e-05
1.03648e-05
9.16191e-06
1.05815e-05
1.26047e-05
1.21603e-05
1.16868e-05
1.13291e-05
1.11728e-05
1.1094e-05
1.10835e-05
1.1097e-05
1.1179e-05
1.13371e-05
1.16946e-05
1.2169e-05
1.26132e-05
1.05882e-05
9.51025e-06
1.08155e-05
1.27165e-05
1.23e-05
1.18313e-05
1.14835e-05
1.13313e-05
1.12564e-05
1.12461e-05
1.12595e-05
1.13377e-05
1.14917e-05
1.18394e-05
1.23088e-05
1.27244e-05
1.08217e-05
9.87503e-06
1.10593e-05
1.28238e-05
1.24336e-05
1.1973e-05
1.16368e-05
1.14903e-05
1.14202e-05
1.14104e-05
1.14234e-05
1.1497e-05
1.16453e-05
1.19814e-05
1.24423e-05
1.2831e-05
1.10649e-05
1.02543e-05
1.13119e-05
1.29273e-05
1.25596e-05
1.21107e-05
1.17884e-05
1.16493e-05
1.15848e-05
1.15757e-05
1.15882e-05
1.16562e-05
1.17971e-05
1.21193e-05
1.2568e-05
1.29337e-05
1.13167e-05
1.06453e-05
1.15714e-05
1.30262e-05
1.2677e-05
1.22432e-05
1.19372e-05
1.18073e-05
1.17494e-05
1.17412e-05
1.17529e-05
1.18144e-05
1.19461e-05
1.22519e-05
1.2685e-05
1.30317e-05
1.15755e-05