/*--------------------------------*- C++ -*----------------------------------*\
| =========                 |                                                 |
| \\      /  F ield         | OpenFOAM: The Open Source CFD Toolbox           |
|  \\    /   O peration     | Version:  v1912                                 |
|   \\  /    A nd           | Website:  www.openfoam.com                      |
|    \\/     M anipulation  |                                                 |
\*---------------------------------------------------------------------------*/
FoamFile
{
    version     2.0;
    format      ascii;
    class       volScalarField;
    location    "200";
    object      turbulenceProperties:L;
}
// * * * * * * * * * * * * * * * * * * * * * * * * * * * * * * * * * * * * * //

dimensions      [0 1 0 0 0 0 0];


internalField   nonuniform List<scalar> 
40448
(
1.44149e-08
9.81472e-09
5.81901e-09
9.78631e-09
9.6672e-09
1.05118e-08
1.06738e-08
1.08837e-08
1.0867e-08
1.08732e-08
1.06488e-08
1.04777e-08
9.62479e-09
9.75062e-09
5.79714e-09
9.7796e-09
4.53595e-08
3.73913e-08
4.36094e-08
4.51763e-08
4.51184e-08
4.60675e-08
4.64193e-08
4.69153e-08
4.68555e-08
4.68876e-08
4.63832e-08
4.603e-08
4.50818e-08
4.5149e-08
4.36417e-08
3.7364e-08
2.60026e-07
2.28046e-07
3.19363e-07
3.05523e-07
3.06013e-07
3.06473e-07
3.07996e-07
3.10308e-07
3.09936e-07
3.10173e-07
3.07927e-07
3.06484e-07
3.06084e-07
3.05617e-07
3.19738e-07
2.28207e-07
1.04168e-06
8.71132e-07
1.24601e-06
1.19341e-06
1.19509e-06
1.19598e-06
1.20171e-06
1.21045e-06
1.20898e-06
1.20995e-06
1.2015e-06
1.19611e-06
1.19546e-06
1.19386e-06
1.24749e-06
8.71827e-07
2.96545e-06
2.35064e-06
3.38433e-06
3.27118e-06
3.27454e-06
3.28031e-06
3.29637e-06
3.32072e-06
3.31665e-06
3.31939e-06
3.29582e-06
3.28063e-06
3.27546e-06
3.27234e-06
3.38819e-06
2.35238e-06
6.79935e-06
5.07627e-06
7.27611e-06
7.15593e-06
7.15924e-06
7.19238e-06
7.23075e-06
7.28815e-06
7.27893e-06
7.28508e-06
7.22908e-06
7.19242e-06
7.16033e-06
7.15767e-06
7.28365e-06
5.07922e-06
1.33848e-05
9.33474e-06
1.31504e-05
1.32804e-05
1.32748e-05
1.34049e-05
1.34879e-05
1.36102e-05
1.3592e-05
1.36037e-05
1.34828e-05
1.34024e-05
1.32735e-05
1.32808e-05
1.3162e-05
9.338e-06
2.33003e-05
1.50971e-05
2.06751e-05
2.15681e-05
2.15311e-05
2.18956e-05
2.20574e-05
2.22936e-05
2.22616e-05
2.22811e-05
2.20442e-05
2.18853e-05
2.15215e-05
2.1562e-05
2.06896e-05
1.50978e-05
3.64056e-05
2.19484e-05
2.90585e-05
3.13135e-05
3.12099e-05
3.19838e-05
3.22624e-05
3.26685e-05
3.26178e-05
3.26471e-05
3.2235e-05
3.19584e-05
3.11844e-05
3.12941e-05
2.90742e-05
2.19434e-05
5.16785e-05
2.92796e-05
3.74546e-05
4.14894e-05
4.12847e-05
4.26092e-05
4.30337e-05
4.36541e-05
4.35812e-05
4.36214e-05
4.29865e-05
4.25625e-05
4.1238e-05
4.14511e-05
3.74707e-05
2.92664e-05
6.77075e-05
3.65589e-05
4.52722e-05
5.12284e-05
5.08968e-05
5.284e-05
5.34238e-05
5.42804e-05
5.4184e-05
5.42353e-05
5.33533e-05
5.27686e-05
5.08269e-05
5.11686e-05
4.52885e-05
3.65374e-05
8.33345e-05
4.34846e-05
5.24046e-05
6.00629e-05
5.95977e-05
6.21344e-05
6.28729e-05
6.39583e-05
6.38401e-05
6.39014e-05
6.2779e-05
6.20393e-05
5.95065e-05
5.99827e-05
5.2422e-05
4.34561e-05
9.79055e-05
5.01013e-05
5.89494e-05
6.79826e-05
6.73963e-05
7.04118e-05
7.12857e-05
7.25653e-05
7.24297e-05
7.24989e-05
7.11713e-05
7.02977e-05
6.72878e-05
6.78869e-05
5.89691e-05
5.00691e-05
0.000111178
5.65408e-05
6.50724e-05
7.50686e-05
7.43803e-05
7.78434e-05
7.8858e-05
8.03307e-05
8.01786e-05
8.02563e-05
7.87234e-05
7.77117e-05
7.42594e-05
7.49615e-05
6.50955e-05
5.65081e-05
0.00012328
6.29714e-05
7.09526e-05
8.15507e-05
8.07807e-05
8.45936e-05
8.57402e-05
8.73801e-05
8.72155e-05
8.73e-05
8.55873e-05
8.44485e-05
8.0652e-05
8.14366e-05
7.09804e-05
6.29406e-05
0.000134587
6.95733e-05
7.6759e-05
8.76834e-05
8.6848e-05
9.09278e-05
9.22033e-05
9.39872e-05
9.38138e-05
9.39034e-05
9.20333e-05
9.07726e-05
8.67155e-05
8.75657e-05
7.67924e-05
6.9547e-05
0.000145526
7.65153e-05
8.26434e-05
9.37177e-05
9.28267e-05
9.71104e-05
9.85182e-05
0.000100424
0.000100246
0.000100338
9.83314e-05
9.69482e-05
9.26932e-05
9.35994e-05
8.26832e-05
7.64956e-05
0.000156539
8.39512e-05
8.87445e-05
9.98902e-05
9.89461e-05
0.000103389
0.000104935
0.000106931
0.000106754
0.000106846
0.000104732
0.000103222
9.88139e-05
9.97735e-05
8.87911e-05
8.39398e-05
0.000168065
9.20207e-05
9.51901e-05
0.000106412
0.000105412
0.000109979
0.00011166
0.000113713
0.000113542
0.00011363
0.000111445
0.000109809
0.000105283
0.000106298
9.52442e-05
9.20194e-05
0.000180499
0.000100847
0.000102099
0.000113451
0.000112397
0.00011704
0.000118838
0.000120915
0.000120757
0.000120837
0.000118614
0.00011687
0.000112272
0.000113343
0.000102162
0.000100857
0.000193936
0.000110529
0.000109585
0.000121114
0.000120019
0.000124656
0.000126541
0.000128624
0.000128487
0.000128553
0.000126308
0.00012449
0.000119902
0.000121015
0.000109656
0.000110551
0.000207934
0.00012114
0.000117748
0.000129429
0.000128318
0.000132855
0.000134799
0.000136897
0.000136783
0.000136834
0.000134556
0.000132698
0.000128211
0.000129342
0.000117827
0.000121176
0.000221961
0.000132717
0.000126678
0.000138329
0.000137244
0.00014158
0.000143526
0.000145628
0.000145539
0.000145576
0.000143277
0.000141438
0.000137151
0.000138259
0.000126767
0.000132769
0.000235833
0.000145255
0.000136451
0.000147685
0.000146729
0.000150607
0.000152481
0.000154549
0.000154493
0.000154516
0.000152243
0.000150489
0.000146662
0.000147644
0.000136549
0.000145325
0.000249697
0.000158721
0.000147119
0.000157374
0.000156659
0.00015976
0.000161493
0.000163468
0.000163427
0.000163446
0.000161281
0.000159677
0.00015663
0.000157373
0.000147227
0.00015881
0.000263734
0.000173138
0.000158713
0.000167358
0.000166975
0.000168971
0.000170495
0.000172299
0.000172269
0.000172288
0.000170323
0.000168935
0.000166997
0.000167409
0.00015883
0.000173246
0.00027812
0.000188599
0.000171234
0.000177695
0.0001777
0.000178275
0.000179529
0.000181064
0.000181049
0.000181065
0.000179408
0.000178297
0.000177784
0.000177809
0.000171359
0.000188725
0.000293038
0.000205151
0.000184653
0.000188544
0.000188929
0.000187811
0.000188738
0.000189894
0.000189904
0.000189908
0.000188679
0.000187905
0.000189083
0.000188728
0.000184785
0.000205296
0.000308694
0.000222812
0.00019891
0.000199892
0.00020084
0.000197841
0.000198393
0.000199042
0.000199097
0.000199077
0.000198406
0.000198017
0.000201064
0.00020016
0.000199048
0.000222976
0.000325338
0.000241574
0.000213935
0.000211301
0.000213354
0.000208357
0.00020853
0.00020865
0.000208757
0.000208707
0.000208621
0.000208623
0.000213664
0.000211672
0.000214079
0.000241756
0.000343293
0.00026141
0.000229671
0.000222613
0.000226091
0.000219023
0.000218848
0.000218477
0.00021864
0.000218559
0.000219021
0.000219385
0.000226513
0.000223089
0.000229817
0.000261611
0.000363008
0.000282278
0.000246116
0.00023408
0.00023903
0.000229949
0.000229454
0.000228554
0.000228788
0.000228662
0.000229706
0.000230405
0.000239565
0.000234657
0.000246264
0.000282495
0.000384756
0.000304116
0.000263243
0.00024595
0.000252373
0.000241473
0.000240716
0.000239285
0.000239603
0.000239426
0.00024104
0.000242018
0.000253016
0.00024662
0.00026339
0.00030435
0.000407018
0.000326851
0.000281006
0.000258465
0.000266332
0.000253894
0.000252952
0.000251028
0.00025144
0.000251204
0.000253341
0.000254517
0.000267079
0.00025922
0.000281147
0.000327094
0.000428632
0.000350396
0.000299343
0.000271854
0.000281132
0.000267494
0.000266467
0.000264113
0.000264631
0.000264326
0.000266904
0.000268181
0.000281981
0.000272681
0.000299479
0.000350643
0.000449472
0.000374649
0.000318179
0.000286338
0.000297023
0.000282528
0.000281542
0.000278858
0.000279486
0.000279113
0.000282007
0.000283261
0.000297976
0.000287219
0.000318303
0.000374901
0.00046957
0.000399509
0.000337436
0.000302177
0.000314328
0.000299256
0.000298467
0.00029558
0.000296331
0.000295881
0.000298935
0.000300014
0.000315393
0.000303102
0.000337552
0.000399754
0.000488754
0.000424859
0.000357142
0.000319459
0.000333516
0.000317889
0.000317329
0.000314326
0.000315171
0.000314655
0.000317808
0.000318668
0.000334717
0.000320438
0.000357247
0.000425101
0.000507358
0.000450661
0.000377394
0.000338499
0.000355175
0.000338487
0.000338216
0.000335052
0.000336012
0.000335402
0.000338709
0.000339286
0.000356451
0.000339549
0.000377487
0.000450895
0.000525671
0.00047693
0.000398235
0.000360089
0.000378895
0.000361859
0.000362008
0.000358375
0.00035956
0.000358759
0.000362524
0.000362689
0.000380158
0.0003612
0.000398316
0.000477153
0.000543728
0.000503675
0.000419681
0.000383808
0.00040379
0.000387955
0.00038863
0.00038481
0.000386172
0.00038521
0.000389144
0.000388776
0.00040502
0.000384935
0.000419751
0.000503886
0.000561701
0.000530926
0.000441753
0.000408823
0.000429688
0.000415328
0.000416567
0.000413161
0.000414547
0.00041354
0.000417044
0.00041609
0.000430863
0.000409919
0.000441813
0.000531118
0.000579786
0.00055878
0.000464479
0.000435007
0.000456521
0.000443477
0.000445264
0.00044223
0.000443647
0.000442585
0.000445708
0.000444182
0.000457621
0.000436054
0.000464527
0.000558942
0.000598156
0.000587322
0.000487879
0.000462222
0.000484157
0.000472567
0.000474821
0.000471972
0.000473461
0.000472309
0.000475238
0.000473229
0.00048517
0.000463212
0.000487917
0.000587438
0.000616987
0.000616601
0.000511974
0.000490266
0.000512379
0.000502357
0.00050504
0.000502487
0.000504012
0.000502804
0.000505428
0.000502974
0.000513298
0.000491198
0.000512004
0.000616649
0.000636464
0.000646594
0.000536778
0.000518926
0.000540983
0.000532535
0.000535571
0.000533368
0.000534896
0.000533661
0.000535932
0.000533114
0.00054181
0.00051979
0.000536801
0.000646613
0.000656771
0.000677066
0.000562289
0.000547992
0.000569783
0.000562895
0.000566178
0.000564305
0.000565813
0.000564579
0.000566521
0.000563452
0.000570521
0.000548787
0.000562308
0.000677078
0.000678082
0.00070789
0.000588488
0.000577283
0.000598617
0.000593374
0.000596849
0.000595256
0.000596734
0.000595515
0.000597187
0.000593912
0.000599282
0.000578011
0.000588504
0.000707913
0.000700576
0.00073902
0.000615338
0.000606622
0.000627537
0.000623984
0.000627677
0.00062643
0.000627873
0.000626675
0.000628014
0.000624508
0.000628146
0.000607289
0.000615357
0.000739064
0.000724449
0.000770454
0.000642872
0.000636009
0.00065663
0.000654775
0.000658652
0.000657779
0.000659172
0.000658011
0.000658989
0.000655287
0.000657196
0.000636628
0.000642896
0.000770525
0.000749931
0.000802209
0.000671222
0.000665535
0.000685813
0.000685658
0.000689676
0.000689189
0.000690517
0.000689407
0.000690015
0.000686163
0.000686346
0.000666118
0.00067125
0.00080231
0.000777167
0.000834311
0.000700454
0.000695142
0.000714985
0.000716577
0.000720676
0.000720581
0.000721831
0.000720791
0.000721022
0.000717082
0.0007155
0.000695696
0.000700491
0.000834448
0.000806235
0.000866802
0.000730544
0.000724713
0.000744043
0.000747489
0.000751602
0.00075191
0.000753065
0.000752114
0.000751965
0.000748
0.000744553
0.000725253
0.000730592
0.000866971
0.000837154
0.000899739
0.000761463
0.000754444
0.000773181
0.000778348
0.000782398
0.000783143
0.000784176
0.000783344
0.000782783
0.000778876
0.000773697
0.00075497
0.000761528
0.000899944
0.00086986
0.000933169
0.000793188
0.000784557
0.000802615
0.000809105
0.000813001
0.00081424
0.000815115
0.000814441
0.000813417
0.000809664
0.000803146
0.000785076
0.000793273
0.000933405
0.000904323
0.000967096
0.000825696
0.00081517
0.00083247
0.000839783
0.0008436
0.000845156
0.000845897
0.000845361
0.00084404
0.000840368
0.000833022
0.000815683
0.000825805
0.000967365
0.000940586
0.00100149
0.000858953
0.000846342
0.000862815
0.000870634
0.00087439
0.000876113
0.000876781
0.000876328
0.000874858
0.000871252
0.000863395
0.000846855
0.000859089
0.00100179
0.000978546
0.00103632
0.000892918
0.000878098
0.000893687
0.000901796
0.00090548
0.000907275
0.000907902
0.000907507
0.000905974
0.000902445
0.000894301
0.000878618
0.000893085
0.00103664
0.00101792
0.00107153
0.000927539
0.00091044
0.000925098
0.000933336
0.000936918
0.000938727
0.000939322
0.000938979
0.000937445
0.000934026
0.000925754
0.000910977
0.00092774
0.00107188
0.00105838
0.00110708
0.000962749
0.000943339
0.000957037
0.000965281
0.000968728
0.000970506
0.000971071
0.00097078
0.000969289
0.000966012
0.000957734
0.000943898
0.000962986
0.00110746
0.00109957
0.00114289
0.00099848
0.000976725
0.000989447
0.000997599
0.00100088
0.0010026
0.00100314
0.0010029
0.00100147
0.000998374
0.000990183
0.000977314
0.000998753
0.0011433
0.00114123
0.00117889
0.00103466
0.00101053
0.00102224
0.00103022
0.00103331
0.00103494
0.00103546
0.00103526
0.00103393
0.00103103
0.00102303
0.00101115
0.00103497
0.00117933
0.00118317
0.00121496
0.0010712
0.00104468
0.00105536
0.00106305
0.0010659
0.00106741
0.00106791
0.00106774
0.00106657
0.0010639
0.00105619
0.00104534
0.00107156
0.00121543
0.00122511
0.00125098
0.00110801
0.00107914
0.00108874
0.00109601
0.00109859
0.00109986
0.0011004
0.00110021
0.00109929
0.00109691
0.00108962
0.00107984
0.00110841
0.00125147
0.00126668
0.00128677
0.00114499
0.00111391
0.00112235
0.00112906
0.00113131
0.00113224
0.00113278
0.00113259
0.00113204
0.00113001
0.00112329
0.00111465
0.00114544
0.00128729
0.00130755
0.00132215
0.00118198
0.00114895
0.00115616
0.00116214
0.00116398
0.00116448
0.00116502
0.00116486
0.00116474
0.00116313
0.00115716
0.00114975
0.00118248
0.00132269
0.00134739
0.00135687
0.00121881
0.00118418
0.00119013
0.00119512
0.00119647
0.00119653
0.00119703
0.00119692
0.00119726
0.00119616
0.00119119
0.00118503
0.00121936
0.00135742
0.00138589
0.00139066
0.00125526
0.00121946
0.00122414
0.00122784
0.00122864
0.00122826
0.00122872
0.00122867
0.00122946
0.00122891
0.00122526
0.00122036
0.00125584
0.00139122
0.00142278
0.00142319
0.00129102
0.00125451
0.00125793
0.00126011
0.00126033
0.00125952
0.00125992
0.00125995
0.00126117
0.00126122
0.0012591
0.00125547
0.00129164
0.00142376
0.00145778
0.00145413
0.00132576
0.00128887
0.00129105
0.0012917
0.00129131
0.00129008
0.0012904
0.00129051
0.00129217
0.00129284
0.00129226
0.00128987
0.00132641
0.0014547
0.0014906
0.00148305
0.00135909
0.00132206
0.00132306
0.0013223
0.00132128
0.00131965
0.00131988
0.00132008
0.00132216
0.00132346
0.00132429
0.00132309
0.00135977
0.00148362
0.00152095
0.00150956
0.00139053
0.00135366
0.00135357
0.00135153
0.00134989
0.00134786
0.001348
0.0013483
0.00135077
0.0013527
0.00135482
0.00135472
0.00139126
0.00151012
0.00154848
0.00153318
0.0014195
0.00138324
0.00138216
0.00137898
0.00137672
0.00137432
0.00137435
0.00137476
0.0013776
0.00138016
0.00138341
0.00138433
0.00142024
0.00153372
0.0015728
0.00155344
0.00144552
0.00141031
0.00140835
0.00140417
0.00140132
0.00139858
0.00139851
0.00139901
0.00140218
0.00140533
0.0014096
0.00141141
0.0014463
0.00155397
0.00159322
0.00156985
0.00146817
0.00143434
0.00143163
0.00142658
0.00142318
0.00142014
0.00141996
0.00142057
0.00142402
0.00142771
0.00143287
0.00143544
0.00146895
0.00157035
0.00160886
0.0015819
0.00148695
0.00145479
0.00145147
0.00144568
0.00144177
0.00143849
0.00143819
0.00143889
0.00144257
0.00144677
0.00145267
0.00145589
0.00148774
0.00158237
0.00161908
0.00158897
0.00150144
0.00147117
0.00146736
0.00146095
0.00145659
0.0014531
0.00145269
0.00145347
0.00145734
0.00146198
0.00146853
0.00147226
0.00150224
0.00158941
0.00162365
0.00159089
0.00151125
0.00148299
0.00147882
0.00147189
0.00146713
0.00146348
0.00146298
0.00146383
0.00146784
0.00147287
0.00147995
0.00148405
0.00151205
0.0015913
0.00162215
0.00158749
0.0015159
0.00148977
0.00148544
0.00147812
0.00147301
0.00146925
0.00146864
0.00146957
0.00147365
0.00147902
0.00148652
0.00149082
0.0015167
0.00158787
1.48415e-08
1.19942e-08
9.54287e-09
9.53145e-09
9.74542e-09
9.84193e-09
9.88818e-09
9.92105e-09
9.92722e-09
9.92724e-09
9.90148e-09
9.85988e-09
9.76492e-09
9.5488e-09
9.55845e-09
1.20049e-08
9.54882e-08
4.9813e-08
4.63455e-08
5.1947e-08
5.2381e-08
5.43889e-08
5.50154e-08
5.57304e-08
5.56968e-08
5.57356e-08
5.50087e-08
5.43889e-08
5.2369e-08
5.19397e-08
4.63955e-08
4.98064e-08
6.69829e-07
3.19391e-07
3.17262e-07
3.63821e-07
3.65254e-07
3.80912e-07
3.85573e-07
3.91109e-07
3.90763e-07
3.91105e-07
3.85415e-07
3.80769e-07
3.64997e-07
3.63624e-07
3.17554e-07
3.19222e-07
2.53735e-06
1.21873e-06
1.23324e-06
1.41276e-06
1.41548e-06
1.47508e-06
1.49237e-06
1.51331e-06
1.51186e-06
1.51326e-06
1.49171e-06
1.47445e-06
1.41441e-06
1.41193e-06
1.23433e-06
1.21804e-06
6.72513e-06
3.25959e-06
3.34825e-06
3.83429e-06
3.83425e-06
3.99302e-06
4.03784e-06
4.09317e-06
4.08904e-06
4.09298e-06
4.03583e-06
3.99106e-06
3.83108e-06
3.83178e-06
3.35104e-06
3.25762e-06
1.42738e-05
6.97097e-06
7.24635e-06
8.31867e-06
8.30288e-06
8.64586e-06
8.73972e-06
8.8581e-06
8.84863e-06
8.85736e-06
8.73473e-06
8.64083e-06
8.29511e-06
8.31246e-06
7.25186e-06
6.9663e-06
2.59234e-05
1.27588e-05
1.33732e-05
1.5435e-05
1.53771e-05
1.60236e-05
1.61941e-05
1.64139e-05
1.63956e-05
1.64117e-05
1.61833e-05
1.6012e-05
1.53605e-05
1.54216e-05
1.33821e-05
1.27492e-05
4.18116e-05
2.07423e-05
2.18405e-05
2.54089e-05
2.52669e-05
2.63572e-05
2.66364e-05
2.70033e-05
2.6972e-05
2.69983e-05
2.6615e-05
2.63337e-05
2.5235e-05
2.53829e-05
2.18525e-05
2.07243e-05
6.14172e-05
3.06548e-05
3.2314e-05
3.79477e-05
3.76695e-05
3.93607e-05
3.97827e-05
4.03463e-05
4.02979e-05
4.03361e-05
3.97446e-05
3.9318e-05
3.76143e-05
3.79022e-05
3.23275e-05
3.0625e-05
8.37263e-05
4.19005e-05
4.40942e-05
5.22803e-05
5.18168e-05
5.42603e-05
5.48598e-05
5.56681e-05
5.55998e-05
5.56505e-05
5.47984e-05
5.41905e-05
5.17303e-05
5.2209e-05
4.41079e-05
4.18555e-05
0.00010751
5.37463e-05
5.64226e-05
6.73956e-05
6.67115e-05
7.00319e-05
7.08412e-05
7.19364e-05
7.18463e-05
7.1909e-05
7.07505e-05
6.99276e-05
6.65875e-05
6.7293e-05
5.64353e-05
5.36842e-05
0.000131576
6.55727e-05
6.86453e-05
8.23128e-05
8.13909e-05
8.56681e-05
8.67146e-05
8.81269e-05
8.80154e-05
8.80885e-05
8.65901e-05
8.55246e-05
8.12252e-05
8.21761e-05
6.86563e-05
6.54962e-05
0.00015493
7.69708e-05
8.03239e-05
9.62558e-05
9.5104e-05
0.000100357
0.00010166
0.000103406
0.000103274
0.000103356
0.000101498
0.000100172
9.48996e-05
9.60846e-05
8.03338e-05
7.68819e-05
0.00017685
8.77118e-05
9.12524e-05
0.000108997
0.00010763
0.000113692
0.000115224
0.000117257
0.000117111
0.000117195
0.000115029
0.000113471
0.000107389
0.000108794
9.1262e-05
8.76138e-05
0.00019692
9.77458e-05
0.000101424
0.000120449
0.000118884
0.000125657
0.000127408
0.000129702
0.000129548
0.000129632
0.000127181
0.000125403
0.000118613
0.000120219
0.000101434
9.76431e-05
0.000214963
0.000107181
0.000111002
0.000130706
0.000128957
0.000136327
0.000138279
0.000140803
0.000140645
0.000140725
0.000138023
0.000136045
0.00012866
0.000130453
0.000111016
0.00010708
0.000230988
0.000116218
0.000120216
0.000139958
0.000138033
0.000145887
0.000148017
0.000150736
0.000150578
0.000150653
0.000147736
0.000145582
0.000137715
0.000139687
0.000120234
0.000116124
0.000245117
0.000125063
0.000129292
0.000148438
0.000146355
0.000154566
0.000156848
0.00015973
0.000159573
0.000159642
0.000156547
0.000154243
0.000146024
0.000148154
0.000129316
0.00012498
0.000257531
0.000133917
0.000138453
0.000156431
0.000154222
0.000162622
0.00016502
0.000168017
0.000167864
0.000167927
0.000164704
0.000162286
0.000153886
0.000156143
0.000138484
0.00013385
0.000268428
0.000142968
0.000147907
0.000164253
0.000161935
0.000170343
0.000172809
0.000175859
0.000175714
0.000175769
0.000172485
0.000170004
0.000161601
0.000163968
0.000147945
0.00014292
0.000277988
0.000152376
0.000157835
0.000172161
0.000169739
0.00017801
0.000180503
0.000183556
0.000183423
0.000183469
0.000180176
0.000177674
0.000169412
0.000171882
0.000157884
0.00015235
0.000286343
0.00016227
0.000168397
0.000180365
0.00017784
0.00018585
0.000188331
0.000191347
0.000191229
0.000191266
0.000188007
0.000185522
0.000177524
0.000180098
0.000168456
0.00016227
0.000294287
0.000172747
0.000179723
0.000189047
0.000186409
0.000194051
0.000196487
0.000199429
0.000199327
0.000199356
0.00019617
0.000193738
0.000186107
0.000188795
0.000179795
0.000172775
0.00030269
0.000183891
0.000191936
0.000198364
0.000195597
0.000202776
0.000205132
0.000207968
0.000207881
0.000207903
0.000204826
0.00020248
0.000195312
0.000198129
0.000192022
0.000183951
0.000311634
0.000195786
0.000205139
0.000208462
0.000205543
0.000212171
0.000214414
0.000217107
0.000217039
0.000217053
0.000214124
0.000211897
0.000205276
0.000208245
0.000205238
0.00019588
0.000321196
0.000208498
0.000219403
0.000219477
0.000216374
0.000222373
0.000224474
0.000226985
0.000226935
0.000226941
0.000224204
0.000222123
0.000216128
0.000219282
0.000219518
0.000208628
0.000331445
0.000222081
0.000234779
0.000231533
0.000228212
0.000233506
0.000235435
0.000237719
0.000237693
0.000237689
0.000235189
0.000233285
0.000227986
0.00023136
0.000234909
0.000222249
0.000342448
0.000236578
0.000251281
0.000244707
0.000241146
0.00024564
0.000247366
0.000249373
0.000249374
0.000249357
0.000247148
0.000245453
0.000240942
0.000244558
0.000251427
0.000236783
0.000354259
0.000252008
0.000268898
0.00025896
0.000255184
0.000258713
0.000260189
0.00026185
0.000261886
0.000261851
0.000260007
0.000258568
0.000255006
0.000258841
0.000269062
0.000252253
0.000366933
0.000268373
0.000287598
0.000274165
0.000270243
0.000272565
0.000273735
0.000274967
0.000275048
0.000274986
0.000273599
0.000272473
0.000270097
0.000274082
0.000287776
0.000268656
0.000380503
0.000285648
0.00030733
0.000290198
0.000286205
0.000287072
0.000287879
0.000288587
0.000288727
0.000288631
0.000287797
0.000287043
0.000286103
0.00029016
0.000307525
0.00028597
0.00039495
0.000303788
0.000328014
0.000307004
0.000302992
0.000302207
0.000302604
0.000302705
0.000302914
0.000302777
0.000302585
0.000302253
0.00030294
0.000307014
0.000328222
0.000304148
0.000410149
0.000322724
0.000349533
0.000324596
0.000320587
0.000318064
0.000318025
0.000317446
0.000317737
0.000317555
0.000318073
0.00031819
0.000320592
0.000324657
0.000349755
0.000323115
0.000425817
0.000342361
0.000371771
0.000343051
0.000339034
0.000334659
0.000334039
0.000332726
0.000333092
0.000332865
0.000334164
0.000334872
0.000339095
0.000343158
0.000372002
0.000342785
0.000441624
0.000362598
0.000394626
0.000362489
0.000358362
0.000351386
0.000350024
0.000347916
0.000348343
0.000348077
0.000350228
0.000351698
0.000358499
0.000362633
0.000394865
0.00036305
0.000457365
0.000383314
0.000418008
0.000382658
0.000378294
0.000367992
0.000365873
0.000362948
0.000363444
0.000363139
0.00036616
0.000368406
0.000378539
0.000382866
0.000418252
0.000383793
0.00047281
0.000404386
0.000441858
0.000403295
0.000398658
0.000384913
0.000382069
0.000378362
0.000378932
0.000378582
0.000382431
0.000385426
0.000399038
0.000403603
0.000442111
0.000404892
0.00048739
0.000425701
0.000466161
0.000424585
0.000419673
0.000402528
0.000399009
0.000394593
0.000395237
0.000394847
0.000399437
0.00040313
0.000420193
0.000424994
0.00046642
0.000426231
0.000500569
0.000447153
0.000490933
0.000446776
0.000441567
0.000421157
0.000417022
0.000411985
0.000412704
0.000412267
0.000417507
0.000421835
0.000442228
0.000447287
0.0004912
0.000447709
0.000512232
0.000468656
0.000516185
0.00047011
0.000464541
0.000441032
0.000436308
0.000430654
0.000431364
0.000430953
0.000436844
0.00044178
0.000465335
0.000470718
0.000516461
0.000469239
0.000522447
0.000490201
0.000541916
0.000494755
0.000488732
0.000462137
0.00045691
0.000450701
0.000451409
0.000451016
0.000457488
0.000462944
0.000489644
0.000495449
0.000542203
0.000490809
0.000531367
0.000511816
0.00056813
0.000520799
0.000514235
0.000484683
0.000479015
0.000472281
0.000472992
0.00047261
0.000479626
0.000485544
0.000515244
0.000521564
0.000568429
0.000512445
0.000539209
0.000533552
0.000594801
0.000548277
0.000541071
0.000508829
0.000502725
0.000495433
0.000496152
0.000495777
0.000503368
0.000509742
0.000542123
0.000549075
0.000595114
0.000534198
0.00054621
0.000555439
0.000621865
0.000577004
0.000568828
0.000534743
0.000528198
0.000520261
0.000520998
0.000520622
0.000528872
0.000535708
0.000569825
0.000577759
0.000622197
0.000556098
0.000552638
0.000577501
0.000649255
0.000606499
0.00059698
0.000562573
0.000555629
0.000546965
0.000547734
0.000547347
0.000556331
0.000563577
0.000597867
0.000607226
0.000649606
0.000578175
0.000558754
0.000599812
0.000676894
0.000636302
0.000625299
0.000592292
0.000585128
0.00057573
0.000576541
0.000576134
0.000585842
0.0005933
0.000626083
0.000636959
0.000677268
0.000600503
0.00056482
0.000622417
0.000704711
0.000666115
0.000653635
0.000622855
0.000616047
0.000606463
0.000607285
0.000606878
0.000616719
0.000623786
0.000654324
0.000666704
0.000705111
0.000623125
0.000571091
0.000645312
0.000732636
0.0006958
0.000681835
0.00065335
0.000646649
0.000637684
0.000638398
0.000638073
0.000647258
0.000654188
0.000682436
0.000696328
0.000733066
0.000646041
0.000577824
0.000668502
0.000760627
0.000725203
0.000709749
0.000683394
0.000676799
0.00066858
0.000669133
0.000668931
0.000677353
0.000684147
0.000710267
0.000725672
0.000761089
0.000669256
0.000585273
0.000692002
0.000788683
0.000754168
0.000737352
0.00071302
0.000706487
0.000698884
0.000699294
0.000699204
0.000706995
0.000713702
0.000737813
0.000754591
0.000789181
0.00069278
0.00059369
0.000715832
0.000816873
0.000782755
0.000764769
0.000742186
0.000735688
0.000728598
0.000728876
0.000728889
0.00073616
0.000742811
0.000765188
0.000783155
0.000817409
0.000716636
0.000603311
0.000740015
0.000845302
0.000811123
0.00079221
0.000770846
0.000764379
0.000757707
0.000757873
0.000757976
0.000764824
0.000771421
0.000792603
0.000811512
0.000845879
0.000740847
0.000614394
0.000764584
0.000874057
0.000839585
0.000819861
0.000799054
0.000792534
0.000786201
0.000786276
0.000786456
0.000792956
0.000799599
0.000820245
0.00083997
0.000874672
0.000765442
0.000627263
0.000789567
0.000903196
0.000868185
0.000847626
0.000826984
0.000820319
0.000814145
0.000814153
0.00081439
0.00082073
0.00082752
0.000848016
0.000868586
0.000903859
0.000790451
0.000642215
0.000814996
0.000932752
0.000896881
0.000875451
0.000854834
0.000847965
0.000841759
0.000841732
0.000842002
0.000848376
0.00085537
0.000875864
0.000897312
0.00093346
0.000815902
0.000659463
0.000840891
0.000962673
0.000925728
0.000903378
0.000882749
0.000875484
0.000869275
0.000869195
0.000869523
0.000875914
0.000883308
0.000903827
0.000926201
0.000963432
0.000841821
0.00067904
0.000867268
0.000992857
0.000954792
0.000931467
0.000910649
0.000902879
0.000896669
0.000896483
0.000896922
0.000903338
0.000911251
0.000931966
0.000955317
0.000993668
0.000868221
0.000700907
0.00089415
0.00102335
0.000984145
0.000959793
0.000938582
0.000930239
0.000923979
0.000923677
0.000924243
0.000930736
0.000939231
0.000960354
0.000984728
0.00102421
0.000895118
0.000724956
0.000921557
0.00105425
0.00101386
0.000988431
0.000966637
0.000957684
0.000951315
0.000950899
0.000951593
0.000958226
0.000967343
0.000989058
0.0010145
0.00105515
0.000922542
0.000751092
0.000949514
0.00108548
0.00104398
0.00101745
0.000994919
0.00098534
0.000978803
0.000978285
0.000979099
0.000985931
0.000995688
0.00101815
0.00104469
0.00108643
0.000950513
0.000779337
0.000978043
0.00111691
0.00107458
0.00104691
0.00102354
0.00101333
0.00100657
0.00100596
0.00100689
0.00101397
0.00102437
0.00104769
0.00107535
0.00111791
0.000979056
0.000810013
0.00100717
0.00114845
0.00110567
0.00107687
0.0010526
0.00104176
0.00103476
0.00103405
0.0010351
0.00104246
0.0010535
0.00107773
0.00110651
0.0011495
0.00100819
0.00084392
0.00103688
0.00118003
0.00113722
0.00110732
0.00108217
0.00107073
0.00106348
0.00106268
0.00106385
0.00107148
0.00108315
0.00110826
0.00113813
0.00118111
0.00103791
0.000881477
0.00106717
0.00121157
0.00116917
0.00113824
0.00111225
0.00110025
0.00109282
0.0010919
0.00109322
0.00110106
0.0011133
0.00113925
0.00117015
0.00121268
0.00106821
0.000920571
0.00109804
0.001243
0.00120139
0.00116951
0.00114278
0.00113028
0.00112274
0.00112173
0.00112317
0.00113114
0.00114389
0.00117059
0.00120242
0.00124414
0.00109907
0.000959478
0.00112944
0.00127422
0.00123372
0.00120099
0.00117366
0.00116074
0.00115314
0.00115206
0.00115361
0.00116166
0.00117483
0.00120214
0.00123479
0.00127538
0.00113047
0.000998548
0.00116135
0.00130512
0.00126597
0.00123251
0.00120477
0.00119155
0.00118391
0.00118278
0.0011844
0.00119251
0.00120601
0.00123371
0.00126709
0.00130629
0.00116236
0.00103799
0.00119367
0.0013355
0.00129792
0.00126384
0.00123599
0.00122255
0.00121488
0.00121372
0.0012154
0.00122355
0.00123727
0.00126508
0.00129909
0.00133666
0.00119466
0.00107791
0.00122629
0.00136515
0.00132935
0.00129479
0.00126707
0.00125351
0.00124587
0.00124469
0.00124639
0.00125454
0.00126839
0.00129608
0.00133055
0.00136629
0.00122725
0.00111828
0.00125904
0.00139385
0.00136006
0.00132519
0.00129773
0.00128417
0.00127661
0.00127543
0.00127715
0.00128523
0.00129908
0.00132651
0.0013613
0.00139495
0.00125996
0.00115898
0.00129168
0.0014213
0.00138978
0.00135474
0.00132764
0.0013142
0.00130681
0.00130563
0.00130736
0.00131528
0.00132899
0.00135608
0.00139102
0.00142234
0.00129256
0.00119981
0.00132392
0.00144714
0.00141789
0.001383
0.00135639
0.00134324
0.0013361
0.00133494
0.00133664
0.00134431
0.00135774
0.00138434
0.00141912
0.00144811
0.00132475
0.00124042
0.0013554
0.0014711
0.00144386
0.00140946
0.00138355
0.00137083
0.00136404
0.00136293
0.00136458
0.00137189
0.00138489
0.00141078
0.00144504
0.00147198
0.00135616
0.0012804
0.00138566
0.00149271
0.00146718
0.0014336
0.00140861
0.00139648
0.00139016
0.00138911
0.00139068
0.00139751
0.00140991
0.00143489
0.00146829
0.00149349
0.00138635
0.00131917
0.00141421
0.00151147
0.00148732
0.00145485
0.00143104
0.00141966
0.0014139
0.00141295
0.00141441
0.00142066
0.00143229
0.00145609
0.00148835
0.00151217
0.00141481
0.00135608
0.00144045
0.00152691
0.00150378
0.00147267
0.00145027
0.0014398
0.00143471
0.00143386
0.00143519
0.00144074
0.00145145
0.00147384
0.00150472
0.00152751
0.00144097
0.00139045
0.00146379
0.00153854
0.001516
0.0014865
0.00146574
0.00145631
0.00145199
0.00145127
0.00145243
0.0014572
0.00146684
0.00148759
0.00151684
0.00153904
0.0014642