/*--------------------------------*- C++ -*----------------------------------*\
| =========                 |                                                 |
| \\      /  F ield         | OpenFOAM: The Open Source CFD Toolbox           |
|  \\    /   O peration     | Version:  v1912                                 |
|   \\  /    A nd           | Website:  www.openfoam.com                      |
|    \\/     M anipulation  |                                                 |
\*---------------------------------------------------------------------------*/
FoamFile
{
    version     2.0;
    format      ascii;
    class       volScalarField;
    location    "200";
    object      turbulenceProperties:mut;
}
// * * * * * * * * * * * * * * * * * * * * * * * * * * * * * * * * * * * * * //

dimensions      [1 -1 -1 0 0 0 0];


internalField   nonuniform List<scalar> 
40448
(
9.94219e-09
4.60907e-09
1.62014e-09
4.58243e-09
4.47155e-09
5.28701e-09
5.45125e-09
5.66774e-09
5.65034e-09
5.65686e-09
5.42578e-09
5.25276e-09
4.43241e-09
4.54906e-09
1.60798e-09
4.57614e-09
1.70655e-08
1.1633e-08
1.57095e-08
1.68445e-08
1.68042e-08
1.75178e-08
1.77868e-08
1.81693e-08
1.81231e-08
1.81478e-08
1.77589e-08
1.74892e-08
1.67767e-08
1.68239e-08
1.57326e-08
1.16161e-08
1.90018e-07
1.4825e-07
2.86457e-07
2.61816e-07
2.62721e-07
2.6351e-07
2.6615e-07
2.70183e-07
2.69536e-07
2.69944e-07
2.66025e-07
2.63523e-07
2.62837e-07
2.61972e-07
2.87127e-07
1.48461e-07
1.46418e-06
1.03511e-06
2.07227e-06
1.89695e-06
1.90268e-06
1.90532e-06
1.9237e-06
1.95202e-06
1.9473e-06
1.95038e-06
1.923e-06
1.90566e-06
1.90379e-06
1.89832e-06
2.07719e-06
1.03677e-06
6.89096e-06
4.36039e-06
8.80605e-06
8.17904e-06
8.19701e-06
8.21812e-06
8.29792e-06
8.42075e-06
8.40006e-06
8.41382e-06
8.29499e-06
8.21966e-06
8.20172e-06
8.18493e-06
8.82653e-06
4.36706e-06
2.3678e-05
1.33422e-05
2.67249e-05
2.54658e-05
2.54936e-05
2.56466e-05
2.59068e-05
2.63054e-05
2.62393e-05
2.62835e-05
2.58961e-05
2.56492e-05
2.55048e-05
2.54812e-05
2.67837e-05
1.33599e-05
6.53419e-05
3.2578e-05
6.34638e-05
6.28643e-05
6.28335e-05
6.36072e-05
6.43105e-05
6.53812e-05
6.52105e-05
6.53231e-05
6.42735e-05
6.35995e-05
6.28427e-05
6.28864e-05
6.35908e-05
3.26114e-05
0.000151554
6.65895e-05
0.000123857
0.000128922
0.000128573
0.00013132
0.000132947
0.000135412
0.000135042
0.000135279
0.000132836
0.00013126
0.000128536
0.000128918
0.000124074
6.66299e-05
0.000301969
0.000117343
0.00020591
0.000226186
0.000224947
0.000232133
0.000235361
0.000240255
0.000239559
0.000239994
0.000235093
0.000231933
0.000224774
0.00022608
0.000206219
0.000117365
0.000524995
0.000182893
0.000301337
0.000348609
0.000345652
0.000360343
0.00036589
0.000374333
0.000373188
0.000373886
0.000365358
0.000359887
0.000345231
0.0003483
0.000301731
0.000182857
0.000812523
0.000256851
0.000375292
0.000484902
0.000479307
0.000504328
0.000512776
0.00052571
0.000524014
0.00052503
0.000511879
0.000503509
0.000478539
0.000484293
0.000375661
0.000256548
0.00114635
0.000313462
0.000438197
0.00060116
0.000588742
0.000638473
0.000652294
0.000674448
0.000671658
0.000673295
0.000650567
0.00063671
0.000587141
0.000599788
0.000438632
0.00031311
0.00150769
0.000372264
0.000498012
0.000689638
0.000674436
0.000732344
0.000748107
0.000773555
0.000770338
0.000772249
0.000746122
0.00073032
0.000672611
0.000688076
0.000498519
0.000371882
0.00188215
0.000434455
0.000554885
0.000773589
0.000755946
0.000820491
0.00083784
0.000865887
0.00086233
0.000864475
0.000835647
0.000818283
0.000753968
0.000771892
0.000555464
0.000434048
0.00222383
0.000500549
0.000608867
0.000855004
0.000834898
0.000906247
0.000925208
0.000955833
0.000951956
0.00095433
0.000922813
0.000903861
0.000832783
0.000853188
0.000609516
0.000500125
0.00248602
0.0005713
0.000660368
0.00093435
0.00091171
0.000990182
0.0010108
0.00104403
0.00103983
0.00104245
0.0010082
0.000987627
0.000909464
0.00093243
0.000661103
0.000570851
0.00275859
0.000647706
0.000710174
0.00101292
0.000987576
0.00107361
0.00109587
0.00113176
0.00112721
0.0011301
0.00109307
0.00107089
0.000985212
0.0010109
0.000711017
0.0006473
0.00305944
0.000731154
0.000759421
0.00109344
0.00106489
0.00115947
0.00118328
0.00122193
0.00121697
0.00122019
0.0011803
0.00115656
0.0010624
0.00109127
0.000760344
0.000730768
0.00340317
0.000823442
0.000809497
0.00118008
0.00114742
0.00125258
0.00127767
0.00131927
0.0013138
0.00131747
0.00127456
0.00124947
0.00114469
0.0011778
0.000810467
0.000823089
0.00380225
0.000926491
0.000861912
0.00127791
0.00123981
0.00135848
0.00138412
0.00142818
0.00142215
0.0014263
0.00138101
0.00135527
0.00123678
0.00127542
0.000863036
0.000926164
0.00425189
0.00104224
0.000918317
0.00138966
0.0013462
0.0014778
0.00150294
0.00154909
0.00154234
0.00154702
0.00149989
0.00147452
0.00134302
0.00138697
0.000919566
0.00104185
0.00471775
0.0011726
0.000980478
0.0015118
0.00146473
0.00160605
0.00163086
0.00168118
0.00167328
0.00167887
0.00162786
0.00160254
0.00146134
0.00150907
0.00098173
0.00117224
0.00517268
0.00131921
0.00104997
0.00163807
0.00158725
0.00174127
0.00176668
0.00181651
0.00180853
0.00181434
0.00176377
0.00173775
0.00158359
0.00163509
0.00105136
0.00131891
0.00560407
0.00148246
0.00112823
0.00176079
0.00171158
0.00185534
0.00187736
0.00193033
0.00192143
0.00192787
0.00187493
0.0018526
0.00170783
0.00175847
0.0011298
0.00148228
0.00600883
0.00165822
0.00121692
0.00185697
0.00181848
0.0019539
0.00197502
0.00203011
0.00202037
0.00202735
0.00197286
0.00195138
0.00181583
0.00185518
0.0012186
0.00165821
0.00638997
0.00184189
0.00131751
0.00194363
0.00191292
0.0020374
0.00205609
0.00211076
0.00210086
0.00210816
0.00205448
0.00203541
0.00191107
0.00194268
0.00131917
0.00184197
0.0067525
0.00203249
0.00143088
0.00201949
0.00200028
0.00210479
0.00211979
0.00217167
0.00216177
0.00216918
0.0021189
0.00210383
0.00199948
0.00201957
0.00143264
0.00203279
0.00709986
0.00222798
0.00155793
0.00208482
0.00208099
0.00215735
0.00216768
0.00221473
0.00220497
0.00221206
0.00216786
0.00215769
0.00208161
0.00208627
0.00155995
0.0022286
0.00743532
0.002443
0.00169824
0.00214327
0.00215678
0.00219892
0.00220341
0.00224359
0.00223428
0.00224107
0.00220485
0.00220051
0.00215929
0.00214659
0.0017004
0.00244407
0.00775998
0.00267896
0.0018499
0.00220223
0.00223211
0.00223671
0.00223492
0.0022658
0.00225747
0.00226384
0.00223734
0.00223981
0.00223651
0.00220703
0.00185218
0.00268002
0.00807226
0.00293585
0.00201322
0.00226695
0.00231303
0.00228062
0.00227242
0.00229273
0.00228567
0.00229107
0.00227603
0.00228536
0.00231921
0.00227293
0.00201563
0.00293719
0.00837182
0.00321439
0.00219035
0.00233841
0.00240358
0.00233724
0.00232325
0.00233288
0.00232717
0.00233178
0.00232833
0.00234337
0.0024114
0.00234579
0.00219251
0.00321649
0.00866681
0.0035154
0.00237657
0.00241774
0.0025051
0.00240935
0.00239113
0.00239062
0.00238642
0.00239021
0.00239713
0.00241673
0.00251483
0.00242676
0.00237883
0.00351695
0.00899507
0.00383727
0.00258195
0.00250734
0.0026196
0.00249919
0.00247844
0.00246897
0.00246602
0.0024687
0.00248529
0.00250809
0.00263055
0.0025179
0.00258434
0.00383906
0.0094144
0.00418098
0.00280655
0.00261027
0.00274987
0.00260923
0.00258732
0.00256977
0.0025685
0.00256998
0.00259543
0.0026196
0.00276164
0.00262215
0.00280905
0.00418362
0.00997705
0.00454525
0.00304931
0.00273044
0.00289905
0.00274383
0.00272184
0.00269678
0.00269804
0.00269824
0.00273069
0.00275512
0.00291225
0.00274321
0.00305193
0.00454731
0.0106993
0.0049232
0.00329882
0.00287199
0.00307173
0.00290782
0.00288765
0.00285617
0.00285955
0.00285812
0.00289751
0.00292027
0.00308575
0.00288585
0.00330084
0.00492429
0.0114348
0.00530303
0.00350225
0.00304101
0.00327396
0.00310685
0.00309156
0.00305499
0.00306096
0.00305704
0.00310186
0.00312031
0.00328847
0.0030562
0.00350352
0.00530366
0.0118728
0.00565728
0.00370143
0.0032449
0.0035153
0.00334805
0.00334085
0.00330137
0.0033099
0.00330445
0.00335119
0.00336221
0.00353055
0.00326065
0.00370244
0.00565701
0.0119536
0.00597253
0.00390604
0.00349037
0.00380471
0.00363706
0.00363952
0.00360131
0.00361202
0.00360435
0.00365139
0.00365154
0.00382094
0.00350627
0.00390677
0.00597192
0.0120063
0.00629064
0.00411602
0.00377695
0.00413376
0.00396963
0.00398556
0.00395076
0.00396406
0.00395348
0.0039958
0.00398381
0.00415008
0.00379299
0.00411645
0.00628967
0.0120376
0.00661189
0.00433136
0.0040446
0.004422
0.00428085
0.00431058
0.00429524
0.00430986
0.00429933
0.00431871
0.00429286
0.00444082
0.00406232
0.00433147
0.0066104
0.0120542
0.00693728
0.00455216
0.00428056
0.00467943
0.00454693
0.00458513
0.004571
0.00458738
0.00457503
0.00459306
0.00455856
0.00469763
0.00429793
0.00455192
0.00693513
0.0120624
0.00726767
0.00477846
0.0045346
0.00495125
0.00483263
0.00487922
0.00486507
0.00488366
0.00486909
0.00488691
0.0048439
0.00496853
0.00455139
0.00477786
0.00726462
0.0120677
0.00760338
0.00501032
0.00480327
0.0052338
0.00513393
0.00518917
0.0051771
0.00519747
0.00518103
0.00519648
0.00514467
0.0052499
0.0048193
0.00500935
0.00759915
0.012076
0.00794378
0.00524771
0.00508283
0.00552339
0.00544569
0.00550938
0.00550092
0.00552265
0.00550467
0.00551624
0.00545585
0.00553817
0.00509785
0.00524636
0.00793882
0.0120925
0.00828558
0.00549043
0.00536943
0.00581649
0.00576368
0.0058352
0.00583111
0.00585385
0.00583468
0.00584162
0.00577329
0.00582983
0.0053833
0.00548873
0.00828016
0.0121223
0.00862676
0.00573811
0.00565956
0.00610982
0.00608509
0.00616428
0.00616496
0.00618849
0.00616834
0.00617031
0.00609407
0.0061218
0.0056722
0.00573604
0.0086211
0.0121697
0.00896626
0.00599012
0.00594977
0.00640237
0.00640803
0.00649552
0.00650244
0.00652661
0.00650558
0.00650113
0.00641635
0.00641309
0.00596116
0.00598774
0.00896048
0.0122393
0.00930349
0.00624651
0.00623843
0.00669363
0.00673113
0.00682683
0.00684096
0.00686553
0.00684383
0.00683199
0.00673875
0.00670313
0.00624864
0.00624381
0.00929766
0.0123365
0.00963812
0.00650818
0.00652498
0.00698139
0.00705174
0.0071554
0.00717744
0.00720214
0.00717999
0.00716007
0.00705866
0.00698972
0.00653409
0.00650516
0.0096323
0.0124641
0.00996993
0.00677531
0.0068075
0.00726345
0.00736772
0.00747884
0.00750926
0.00753392
0.00751152
0.00748307
0.00737396
0.00727075
0.00681555
0.00677201
0.0099642
0.0126228
0.0102989
0.00704717
0.00708373
0.00753774
0.00767723
0.00779519
0.00783441
0.0078588
0.00783637
0.00779903
0.00768282
0.00754413
0.00709084
0.0070436
0.0102933
0.0128122
0.0106256
0.00732291
0.0073546
0.00780536
0.00797861
0.00810258
0.00815115
0.00817494
0.00815283
0.00810607
0.00798362
0.00781092
0.00736078
0.00731914
0.01062
0.0130303
0.0109502
0.00760171
0.00762149
0.00806772
0.00827031
0.0083993
0.00845791
0.0084807
0.00845932
0.00840252
0.00827489
0.00807256
0.00762681
0.00759777
0.0109447
0.0131577
0.0112723
0.00788279
0.00788491
0.00832547
0.00855175
0.0086864
0.00875324
0.00877526
0.00875441
0.00868929
0.00855583
0.00832967
0.00788938
0.00787872
0.0112669
0.0131938
0.0115912
0.00816533
0.0081449
0.00857876
0.00882479
0.00896516
0.00903861
0.00906046
0.0090396
0.00896774
0.00882846
0.00858239
0.00814862
0.00816117
0.0115858
0.013324
0.0119058
0.00844858
0.00840135
0.00882753
0.00909023
0.00923604
0.00931501
0.00933702
0.00931586
0.00923831
0.00909347
0.00883068
0.00840441
0.00844439
0.0119004
0.0136226
0.0122151
0.00873182
0.00865407
0.0090716
0.00934835
0.00949899
0.00958272
0.00960496
0.00958347
0.00950101
0.00935126
0.00907439
0.00865659
0.00872766
0.0122099
0.0141168
0.0125183
0.00901431
0.00890274
0.00931074
0.00959908
0.00975393
0.00984169
0.00986417
0.00984238
0.00975573
0.00960171
0.00931319
0.00890482
0.00901021
0.0125132
0.0147333
0.0128141
0.00929537
0.00914686
0.00954441
0.00984202
0.0100003
0.0100915
0.0101143
0.0100922
0.0100019
0.0098444
0.00954657
0.00914863
0.00929139
0.012809
0.0150606
0.013101
0.00957447
0.00938608
0.00977202
0.0100765
0.0102374
0.0103314
0.0103544
0.0103319
0.0102389
0.0100786
0.009774
0.0093876
0.00957067
0.0130962
0.0153697
0.0133777
0.00985093
0.00962032
0.00999334
0.0103019
0.0104644
0.0105602
0.0105835
0.0105606
0.0104657
0.0103038
0.00999519
0.00962174
0.00984746
0.013373
0.0156684
0.0136425
0.0101244
0.00984997
0.0102084
0.010518
0.0106809
0.0107769
0.0108009
0.0107773
0.0106821
0.0105199
0.0102103
0.00985142
0.0101212
0.013638
0.0159515
0.0138935
0.0103941
0.0100759
0.0104179
0.010725
0.0108868
0.0109814
0.0110056
0.0109816
0.010888
0.0107269
0.0104199
0.0100775
0.0103915
0.0138892
0.0162139
0.0141288
0.0106596
0.010299
0.0106226
0.0109234
0.0110824
0.0111739
0.0111983
0.0111742
0.0110836
0.0109254
0.010625
0.010301
0.0106575
0.0141248
0.0164513
0.0143462
0.01092
0.01052
0.0108235
0.0111134
0.0112675
0.0113551
0.011379
0.0113553
0.0112686
0.0111156
0.0108262
0.0105224
0.0109184
0.0143424
0.0166602
0.0145432
0.0111742
0.0107393
0.0110213
0.0112951
0.0114423
0.0115251
0.0115485
0.0115254
0.0114436
0.0112974
0.0110245
0.0107422
0.0111733
0.0145397
0.0168375
0.0147176
0.0114207
0.0109565
0.0112155
0.0114687
0.0116074
0.0116843
0.0117068
0.0116847
0.0116089
0.0114714
0.0112194
0.01096
0.0114206
0.0147143
0.0169805
0.0148668
0.0116581
0.0111697
0.0114048
0.0116346
0.0117628
0.0118329
0.0118541
0.0118334
0.0117645
0.0116376
0.0114091
0.0111738
0.0116588
0.0148638
0.0170871
0.0149883
0.0118846
0.0113771
0.0115876
0.0117926
0.0119084
0.0119708
0.0119903
0.0119714
0.0119105
0.0117961
0.0115925
0.0113821
0.0118862
0.0149857
0.0171551
0.0150799
0.012098
0.0115781
0.0117638
0.0119426
0.0120444
0.0120978
0.0121154
0.0120986
0.0120468
0.0119466
0.0117694
0.011584
0.0121007
0.0150776
0.0171825
0.0151395
0.0122952
0.0117718
0.0119328
0.0120843
0.0121704
0.0122138
0.0122292
0.0122148
0.0121731
0.0120889
0.0119391
0.0117787
0.0122988
0.0151376
0.0171672
0.0151652
0.0124746
0.0119569
0.0120939
0.0122171
0.012286
0.0123185
0.0123314
0.0123197
0.012289
0.0122223
0.0121009
0.0119647
0.0124794
0.0151638
0.0171052
0.0151556
0.0126349
0.0121318
0.0122459
0.0123404
0.0123908
0.0124116
0.0124218
0.0124131
0.0123942
0.012346
0.0122537
0.0121404
0.0126408
0.0151547
0.0169915
0.0151094
0.0127744
0.0122946
0.0123876
0.012453
0.0124841
0.0124928
0.0124999
0.0124944
0.0124879
0.0124593
0.0123961
0.0123044
0.0127816
0.0151091
0.0168248
0.0150249
0.0128922
0.0124438
0.0125174
0.0125541
0.0125652
0.0125614
0.0125653
0.0125632
0.0125695
0.0125609
0.0125267
0.0124545
0.0129006
0.0150251
0.0166079
0.0149047
0.0129873
0.0125771
0.012634
0.0126425
0.0126336
0.0126169
0.0126177
0.0126189
0.0126382
0.0126499
0.012644
0.0125888
0.0129969
0.0149057
0.016342
0.0147516
0.0130579
0.0126922
0.0127355
0.0127174
0.0126885
0.0126593
0.0126569
0.0126616
0.0126936
0.0127252
0.0127462
0.0127048
0.0130686
0.0147535
1.05394e-08
6.88332e-09
4.35728e-09
4.34685e-09
4.54421e-09
4.63466e-09
4.67832e-09
4.70948e-09
4.71533e-09
4.71536e-09
4.69092e-09
4.65158e-09
4.56241e-09
4.36269e-09
4.37152e-09
6.89569e-09
7.64912e-08
2.05141e-08
1.77362e-08
2.23015e-08
2.26844e-08
2.44639e-08
2.50347e-08
2.56929e-08
2.56623e-08
2.56977e-08
2.50287e-08
2.4464e-08
2.2674e-08
2.22953e-08
1.77746e-08
2.05084e-08
1.29937e-06
2.88131e-07
2.82814e-07
3.72523e-07
3.75842e-07
4.09028e-07
4.19255e-07
4.31502e-07
4.30756e-07
4.31495e-07
4.18919e-07
4.08731e-07
3.75319e-07
3.72125e-07
2.83337e-07
2.8782e-07
8.97638e-06
2.0115e-06
2.03612e-06
2.67615e-06
2.69137e-06
2.92567e-06
2.99647e-06
3.08243e-06
3.07674e-06
3.08229e-06
2.99388e-06
2.92331e-06
2.68739e-06
2.67307e-06
2.03977e-06
2.00924e-06
3.65407e-05
8.35761e-06
8.65748e-06
1.13481e-05
1.13796e-05
1.23543e-05
1.26432e-05
1.29983e-05
1.29733e-05
1.29974e-05
1.26314e-05
1.23433e-05
1.13618e-05
1.13342e-05
8.67247e-06
8.34802e-06
0.000106892
2.50961e-05
2.64629e-05
3.46838e-05
3.46852e-05
3.76255e-05
3.84798e-05
3.9543e-05
3.94642e-05
3.95386e-05
3.84406e-05
3.75878e-05
3.46266e-05
3.46377e-05
2.65062e-05
2.50662e-05
0.000247124
6.0181e-05
6.42396e-05
8.44027e-05
8.41806e-05
9.12949e-05
9.33153e-05
9.58593e-05
9.56644e-05
9.58432e-05
9.32094e-05
9.11883e-05
8.40251e-05
8.42791e-05
6.43367e-05
6.01057e-05
0.00047685
0.000121583
0.000130698
0.000172486
0.000171563
0.00018602
0.000190043
0.000195163
0.000194761
0.000195118
0.000189799
0.000185768
0.000171212
0.000172205
0.000130875
0.000121421
0.000799554
0.000213833
0.000230452
0.000305814
0.000303347
0.000328949
0.000335931
0.000344902
0.000344188
0.000344796
0.000335446
0.000328436
0.000302663
0.000305262
0.000230722
0.00021353
0.00120311
0.000335536
0.000361298
0.000482317
0.000477178
0.000517755
0.000528628
0.000542701
0.00054158
0.000542495
0.000527775
0.000516835
0.000476001
0.000481366
0.000361662
0.000335036
0.00166606
0.000479893
0.000515701
0.000691678
0.000682657
0.000741539
0.000757109
0.000777368
0.000775765
0.000777018
0.000755759
0.000740059
0.000680839
0.000690202
0.000516153
0.000479146
0.00216406
0.000637993
0.000683763
0.000919383
0.000905388
0.000985056
0.00100597
0.00103322
0.0010311
0.0010327
0.001004
0.00098289
0.000902803
0.000917285
0.000684289
0.000637002
0.00267441
0.00080166
0.000856299
0.00115087
0.00113114
0.00123299
0.00125968
0.00129447
0.00129181
0.00129374
0.00125702
0.00123005
0.00112776
0.00114809
0.000856896
0.000800427
0.00317839
0.000964544
0.00102658
0.00137764
0.0013516
0.0014744
0.00150666
0.00154858
0.00154546
0.00154763
0.00150329
0.00147069
0.0013474
0.00137416
0.00102725
0.000963091
0.00366271
0.00111531
0.00117225
0.00159375
0.00156099
0.00170399
0.00174176
0.0017906
0.00178708
0.00178944
0.00173766
0.00169952
0.001556
0.00158959
0.00117277
0.00111311
0.00411891
0.00124078
0.00129215
0.0017965
0.00175668
0.00191876
0.00196182
0.00201722
0.00201337
0.00201587
0.00195701
0.00191355
0.00175093
0.0017917
0.00129275
0.00123847
0.00454259
0.0013592
0.00140406
0.00198549
0.00193826
0.00211815
0.0021662
0.00222772
0.00222358
0.0022262
0.00216071
0.00211225
0.00193181
0.00198008
0.00140487
0.00135681
0.00493205
0.0014746
0.00151253
0.0021569
0.00208707
0.00230312
0.00235579
0.00242296
0.00241859
0.00242128
0.00234967
0.00229657
0.00207796
0.00214916
0.00151347
0.00147229
0.00528733
0.00158957
0.00161991
0.0022719
0.0021949
0.00245204
0.00251739
0.00260459
0.00260003
0.0026028
0.00250915
0.00244281
0.00218541
0.00226372
0.00162098
0.00158738
0.00560938
0.00170624
0.00172848
0.0023747
0.00229391
0.00255811
0.0026251
0.00271832
0.00271217
0.00271524
0.00261677
0.00254843
0.00228457
0.00236687
0.00172972
0.00170438
0.00589896
0.00182659
0.00184069
0.0024776
0.00239319
0.00265566
0.00272174
0.00281466
0.00280792
0.00281165
0.00271354
0.0026464
0.00238399
0.00246971
0.00184197
0.00182518
0.00615625
0.00195283
0.00195786
0.00258481
0.00249599
0.00275618
0.00282008
0.00291138
0.00290424
0.00290818
0.00281202
0.0027469
0.00248673
0.00257681
0.00195933
0.0019515
0.00639617
0.00208455
0.00208081
0.00269547
0.00260245
0.00286013
0.00292205
0.00301175
0.00300467
0.00300856
0.00291408
0.00285097
0.00259322
0.00268786
0.00208253
0.00208333
0.00663597
0.00222059
0.0022112
0.00281037
0.0027115
0.00296887
0.0030294
0.00311808
0.00311103
0.00311516
0.00302179
0.0029601
0.00270226
0.00280293
0.002213
0.00221999
0.0068762
0.00236274
0.0023511
0.00293129
0.00282535
0.00308335
0.00314275
0.00323085
0.00322355
0.00322794
0.003135
0.00307477
0.00281616
0.00292383
0.00235321
0.00236266
0.00711718
0.00250839
0.00250047
0.00305963
0.00294571
0.00320572
0.00326333
0.00335119
0.00334331
0.00334828
0.00325574
0.00319711
0.00293639
0.00305193
0.00250294
0.00250881
0.00735921
0.00266021
0.00266236
0.00319791
0.00307462
0.00333776
0.00339334
0.00348095
0.00347305
0.00347806
0.0033863
0.00332855
0.00306495
0.00319
0.002665
0.00266124
0.0076024
0.0028206
0.00283753
0.00334813
0.00321398
0.00347913
0.0035329
0.0036197
0.00361148
0.00361649
0.00352589
0.00347032
0.00320403
0.00334039
0.00284037
0.00282207
0.00784668
0.00299033
0.00302745
0.00350798
0.00336299
0.00362521
0.0036755
0.00375947
0.00375131
0.00375664
0.00366871
0.00361706
0.0033529
0.0035003
0.00303051
0.00299234
0.00809193
0.00316996
0.00323186
0.00367236
0.00351806
0.0037669
0.00381125
0.00388883
0.00388091
0.00388611
0.00380496
0.00375907
0.00350814
0.00366466
0.00323517
0.00317304
0.00833778
0.00336061
0.00344999
0.00383646
0.00367428
0.00389641
0.00393179
0.00399978
0.00399186
0.00399682
0.00392633
0.00388971
0.00366493
0.00382906
0.00345355
0.00336454
0.00858238
0.0035624
0.00368115
0.0039959
0.00382829
0.00401003
0.00403349
0.00408837
0.0040815
0.00408565
0.00402966
0.00400539
0.00382003
0.00399008
0.003685
0.0035668
0.00882051
0.00377532
0.00392467
0.0041504
0.00398002
0.00410885
0.0041182
0.00415719
0.00415119
0.00415527
0.0041169
0.00410636
0.00397341
0.00414677
0.0039288
0.00377966
0.00904216
0.00399884
0.00417905
0.00430161
0.0041286
0.00419814
0.00419309
0.00421538
0.00421007
0.00421399
0.00419332
0.00419784
0.00412373
0.00429917
0.00418414
0.00400423
0.00923633
0.00423147
0.00444175
0.00445223
0.00427795
0.00428903
0.00427041
0.0042757
0.00427182
0.00427445
0.00427192
0.00429029
0.00427476
0.00445136
0.00444651
0.00423807
0.00939792
0.00447383
0.00470905
0.0046088
0.00443381
0.00439147
0.00436095
0.0043503
0.00434817
0.00434983
0.00436401
0.004394
0.00443268
0.00460982
0.0047133
0.00448014
0.00952257
0.00472384
0.0049786
0.00477778
0.00460135
0.00451156
0.00447091
0.00444704
0.00444525
0.00444753
0.00447516
0.00451626
0.00460197
0.00478094
0.00498307
0.0047296
0.00960084
0.00497924
0.00524782
0.00496452
0.00478685
0.00465539
0.00460527
0.00456956
0.00456888
0.0045706
0.00461093
0.00466194
0.00478866
0.00496938
0.00525244
0.00498508
0.00962533
0.00523771
0.00551487
0.00517235
0.00499184
0.00482537
0.00476808
0.00472234
0.00472306
0.00472332
0.00477382
0.00483322
0.00499572
0.00517733
0.00551967
0.00524349
0.00959721
0.00549136
0.00578183
0.00540125
0.0052165
0.00502343
0.00495876
0.00490573
0.00490649
0.00490743
0.00496515
0.00503091
0.0052226
0.00540701
0.00578559
0.0054968
0.00952094
0.00571498
0.0060497
0.00564976
0.00546205
0.00524758
0.00517776
0.00511952
0.00512023
0.0051221
0.00518466
0.00525508
0.00546725
0.00565611
0.00605347
0.0057238
0.00940232
0.00590007
0.00632182
0.00591222
0.0057221
0.00549325
0.00542315
0.00536347
0.00536395
0.00536601
0.00542914
0.00550247
0.0057268
0.0059188
0.00632556
0.00590928
0.00924794
0.00608087
0.0065972
0.00618475
0.00599291
0.00576224
0.00569023
0.00563257
0.0056325
0.00563492
0.00569698
0.00576938
0.0060004
0.00619117
0.00660089
0.00609039
0.00906426
0.00625772
0.0068733
0.00646513
0.00627705
0.00605046
0.00598057
0.0059242
0.00592445
0.00592746
0.00598646
0.00605704
0.00628454
0.00647227
0.00687693
0.00626747
0.00885786
0.00643095
0.00714734
0.00675299
0.0065724
0.00635712
0.00628992
0.00623608
0.00623493
0.00623733
0.00629419
0.00636401
0.00657915
0.00675903
0.00715087
0.00644092
0.00863487
0.00660144
0.0074144
0.00704966
0.0068784
0.00668205
0.00661363
0.00654964
0.00654636
0.00654981
0.00661883
0.00668529
0.00688529
0.00705375
0.0074178
0.00661162
0.00840133
0.00676975
0.00767087
0.00735465
0.00719828
0.00701195
0.00693397
0.00681345
0.00682068
0.00681757
0.00693996
0.00701784
0.00720274
0.00735983
0.00767604
0.00678009
0.00816313
0.00693595
0.00791719
0.0076765
0.00752899
0.00731621
0.00719771
0.00707361
0.00708004
0.00707751
0.00720583
0.007327
0.00753201
0.00768031
0.00792233
0.00694647
0.00792621
0.00710022
0.00815487
0.00802105
0.00786915
0.00757116
0.00745211
0.00733301
0.00733812
0.00733656
0.00745959
0.00758101
0.00787001
0.00802287
0.00815766
0.00711092
0.00769644
0.00726286
0.00838656
0.00838721
0.00820308
0.00782171
0.00770228
0.00758757
0.00759154
0.00759081
0.00770914
0.00783064
0.00820352
0.00838622
0.00838911
0.00727366
0.00747963
0.00742413
0.00861913
0.00875411
0.00847615
0.00806595
0.00794648
0.00783588
0.00783877
0.00783879
0.00795273
0.00807402
0.00848231
0.00875787
0.00862141
0.00743505
0.00728121
0.00758439
0.00886492
0.00908333
0.0087003
0.00830199
0.008183
0.00807626
0.00807822
0.00807888
0.00818866
0.00830918
0.00870584
0.00908966
0.00886952
0.00759539
0.00710681
0.007744
0.00914525
0.00930977
0.00892081
0.00852919
0.00841022
0.00830718
0.00830839
0.00830956
0.00841529
0.00853565
0.00892583
0.00931573
0.00915258
0.00775503
0.00696252
0.00790328
0.00948199
0.00953111
0.0091358
0.00874831
0.00862874
0.00852809
0.00852874
0.00853025
0.0086333
0.00875421
0.00914041
0.00953686
0.00948645
0.00791431
0.00685373
0.00806263
0.00988777
0.00974629
0.0093442
0.00896064
0.00884009
0.00874028
0.00874066
0.00874227
0.00884423
0.00896601
0.00934855
0.00975196
0.00989213
0.00807358
0.00678403
0.00822223
0.010353
0.00995547
0.00954608
0.00916694
0.00904359
0.00894529
0.00894519
0.00894716
0.0090475
0.00917201
0.00955025
0.00996116
0.0103612
0.00823311
0.0067536
0.00838229
0.0108106
0.0101587
0.00974152
0.00936561
0.0092385
0.00914199
0.00914084
0.00914373
0.00924227
0.00937059
0.00974567
0.0101645
0.0108192
0.00839307
0.00676169
0.0085431
0.0110431
0.0103564
0.00993096
0.0095566
0.00942516
0.00933013
0.0093278
0.00933179
0.00942885
0.00956152
0.00993519
0.0103624
0.0110523
0.00855368
0.00680655
0.00870505
0.0112293
0.0105489
0.0101149
0.00974045
0.00960439
0.00951039
0.00950688
0.00951198
0.00960809
0.00974538
0.0101192
0.010555
0.0112387
0.00871545
0.00688635
0.00886872
0.0114096
0.0107366
0.0102939
0.00991803
0.00977728
0.00968378
0.00967925
0.00968538
0.00978103
0.00992307
0.0102985
0.0107429
0.0114192
0.0088789
0.00699988
0.00903478
0.011583
0.0109201
0.0104688
0.0100905
0.009945
0.00985164
0.0098461
0.00985327
0.00994887
0.0100956
0.0104737
0.0109267
0.0115928
0.00904475
0.00714834
0.00920405
0.0117492
0.0110999
0.0106403
0.010259
0.010109
0.0100155
0.010009
0.0100172
0.010113
0.0102644
0.0106455
0.0111067
0.0117591
0.00921378
0.0073369
0.00937729
0.0119079
0.0112761
0.0108089
0.0104247
0.0102705
0.0101769
0.0101694
0.0101787
0.0102747
0.0104304
0.0108144
0.0112832
0.011918
0.00938676
0.00756832
0.00955536
0.0120595
0.0114486
0.0109747
0.0105883
0.0104304
0.0103373
0.0103287
0.0103393
0.0104349
0.0105943
0.0109806
0.011456
0.0120697
0.00956456
0.00782561
0.00973929
0.0122044
0.0116171
0.0111379
0.0107501
0.0105893
0.0104974
0.0104879
0.0104996
0.010594
0.0107565
0.0111441
0.0116248
0.0122145
0.00974819
0.00809495
0.00993015
0.0123431
0.0117814
0.0112982
0.0109104
0.0107476
0.0106574
0.0106473
0.0106598
0.0107526
0.0109171
0.0113048
0.0117892
0.0123532
0.00993876
0.00837926
0.0101291
0.0124762
0.011941
0.0114554
0.0110697
0.010906
0.0108179
0.0108073
0.0108203
0.0109114
0.0110768
0.0114623
0.0119491
0.0124861
0.0101373
0.00868037
0.0103371
0.0126039
0.0120959
0.0116094
0.0112286
0.0110651
0.0109791
0.0109683
0.0109818
0.0110708
0.011236
0.0116166
0.0121042
0.0126135
0.0103449
0.00899934
0.0105549
0.0127266
0.0122459
0.0117604
0.0113871
0.011225
0.0111415
0.0111306
0.0111443
0.0112309
0.0113948
0.011768
0.0122545
0.0127359
0.0105623
0.00933648
0.0107831
0.0128449
0.012392
0.0119095
0.011545
0.0113857
0.0113054
0.0112947
0.0113084
0.0113919
0.0115531
0.0119174
0.0124009
0.0128536
0.0107899
0.00969146
0.0110216
0.0129588
0.0125344
0.0120567
0.0117023
0.0115472
0.0114709
0.0114604
0.0114741
0.0115538
0.0117106
0.012065
0.0125433
0.0129668
0.0110279
0.0100632
0.01127
0.0130681
0.0126705
0.012201
0.0118585
0.0117093
0.0116378
0.0116277
0.0116411
0.0117161
0.0118671
0.0122097
0.0126794
0.0130754
0.0112757
0.0104497
0.0115274
0.0131737
0.0127989
0.0123414
0.012013
0.0118713
0.0118055
0.0117963
0.011809
0.0118783
0.0120218
0.0123502
0.0128075
0.0131801
0.0115323
0.0108482
0.0117919
0.0132744
0.0129185
0.0124765
0.0121647
0.0120322
0.0119733
0.0119649
0.0119768
0.0120394
0.0121737
0.0124853
0.0129267
0.01328
0.011796
0.0112545
0.012061
0.0133692
0.0130282
0.0126048
0.0123122
0.0121908
0.0121396
0.0121324
0.0121432
0.0121982
0.0123214
0.0126136
0.0130359
0.013374
0.0120643
0.0116639
0.0123313
0.013457
0.0131267
0.0127246
0.012454
0.0123451
0.0123026
0.0122968
0.0123063
0.0123526
0.0124631
0.0127334
0.013134
0.0134609
0.0123338
0.0120709
0.0125989
0.013536
0.0132123
0.0128342
0.0125879
0.012493
0.01246
0.0124558
0.0124637
0.0125005
0.012597
0.0128429
0.013219
0.0135391
0.0126004
0.0124699
0.0128594
0.0135992
0.0132799
0.0129297
0.0127094
0.0126313
0.0126092
0.0126067
0.012613
0.0126384
0.0127185
0.0129382
0.013286
0.0136015
0.0128599
0.0128548
0.0131073
0.0136512
0.0133347
0.0130118
0.0128208
0.0127587
0.0127469
0.0127462
0.0127506
0.0127658
0.0128297
0.0130201
0.0133403
0.0136525
0.0131065
8.84038e-09
8.25209e-09
9.7604e-09
9.00641e-09
8.69257e-09
8.43955e-09
8.31213e-09
8.217e-09
8.21791e-09
8.22625e-09
8.32977e-09
8.46351e-09
8.71432e-09
9.02419e-09
9.7813e-09
8.27449e-09
2.92107e-08
1.76274e-08
1.98337e-08
2.2814e-08
2.19688e-08
2.26084e-08
2.25146e-08
2.26666e-08
2.25979e-08
2.268e-08
2.25242e-08
2.26253e-08
2.19716e-08
2.2816e-08
1.98737e-08
1.76463e-08
4.29242e-07
2.11968e-07
2.30958e-07
3.02299e-07
2.90945e-07
3.076e-07
3.07869e-07
3.12362e-07
3.11002e-07
3.12471e-07
3.07763e-07
3.07531e-07
2.90638e-07
3.02046e-07
2.31401e-07
2.11968e-07
3.02399e-06
1.47327e-06
1.59924e-06
2.11416e-06
2.03602e-06
2.15559e-06
2.15856e-06
2.19079e-06
2.18119e-06
2.19149e-06
2.15765e-06
2.15489e-06
2.03367e-06
2.11226e-06
1.60228e-06
1.47309e-06
1.26057e-05
6.13233e-06
6.62851e-06
8.78771e-06
8.47166e-06
8.9713e-06
8.9875e-06
9.12208e-06
9.08272e-06
9.12475e-06
8.98327e-06
8.96774e-06
8.46142e-06
8.77955e-06
6.64078e-06
6.13106e-06
3.78775e-05
1.84314e-05
1.97837e-05
2.63052e-05
2.53949e-05
2.69071e-05
2.69729e-05
2.73818e-05
2.72664e-05
2.73888e-05
2.69582e-05
2.6894e-05
2.53621e-05
2.62792e-05
1.98188e-05
1.84253e-05
9.10627e-05
4.43617e-05
4.71336e-05
6.29213e-05
6.0849e-05
6.45306e-05
6.47438e-05
6.57484e-05
6.54803e-05
6.57619e-05
6.47017e-05
6.44898e-05
6.07635e-05
6.28533e-05
4.72116e-05
4.434e-05
0.000185764
9.06631e-05
9.50801e-05
0.000127504
0.00012355
0.000131216
0.00013179
0.000133899
0.000133375
0.000133918
0.000131689
0.000131113
0.000123359
0.000127352
9.52233e-05
9.06025e-05
0.0003335
0.000163033
0.000168439
0.000226937
0.000220361
0.000234401
0.000235707
0.000239607
0.000238718
0.000239623
0.000235495
0.000234177
0.000219986
0.000226639
0.000168664
0.000162892
0.000540631
0.000264423
0.000268799
0.000363859
0.000354038