/*--------------------------------*- C++ -*----------------------------------*\
| =========                 |                                                 |
| \\      /  F ield         | OpenFOAM: The Open Source CFD Toolbox           |
|  \\    /   O peration     | Version:  v1912                                 |
|   \\  /    A nd           | Website:  www.openfoam.com                      |
|    \\/     M anipulation  |                                                 |
\*---------------------------------------------------------------------------*/
FoamFile
{
    version     2.0;
    format      ascii;
    class       volScalarField;
    location    "198.8";
    object      omega;
}
// * * * * * * * * * * * * * * * * * * * * * * * * * * * * * * * * * * * * * //

dimensions      [0 0 -1 0 0 0 0];


internalField   nonuniform List<scalar> 
10077
(
156509
156509
156508
156509
156509
156509
156509
156509
156509
156509
156509
156509
156509
156509
156508
156509
27472.6
27173.6
27021
26996.9
27001.4
27000.5
27001.1
27001.9
27002
27001.7
27000.9
27000.2
27001.1
26996.7
27020.9
27173.5
9320.95
9303.27
9187.75
9174.33
9176.79
9176.83
9177.4
9178.19
9178.24
9178.05
9177.2
9176.61
9176.58
9174.15
9187.67
9303.18
4455.49
4451.97
4366.69
4356.44
4357.57
4357.12
4357.4
4357.91
4357.92
4357.81
4357.26
4356.98
4357.45
4356.33
4366.69
4451.98
2575.82
2576.88
2515.3
2500.14
2500.61
2498.21
2497.96
2497.89
2497.9
2497.84
2497.92
2498.19
2500.64
2500.17
2515.41
2577.02
1677.94
1691.58
1651.25
1626.84
1627.07
1621.75
1620.84
1619.96
1619.99
1619.97
1620.92
1621.89
1627.28
1627.03
1651.46
1691.87
1192.29
1221.91
1200.09
1166.19
1166.45
1157.97
1156.35
1154.58
1154.64
1154.64
1156.55
1158.26
1166.85
1166.55
1200.37
1222.33
911.544
955.067
947.207
906.907
907.354
896.1
893.859
891.266
891.363
891.385
894.177
896.532
907.9
907.396
947.532
955.559
744.09
796.34
796.962
754.911
755.583
742.396
739.685
736.429
736.562
736.593
740.094
742.929
756.228
755.497
797.293
796.846
642.708
697.415
701.954
662.718
663.524
649.347
646.325
642.592
642.754
642.791
646.799
649.945
664.21
663.352
702.263
697.899
580.465
632.078
637.528
604.526
605.375
590.959
587.749
583.708
583.888
583.93
588.268
591.588
606.062
605.175
637.806
632.497
541.624
585.888
589.935
565.916
566.654
552.751
549.475
545.317
545.497
545.552
550.017
553.383
567.306
566.549
590.174
586.232
517.059
550.27
551.319
538.192
538.668
526.006
522.778
518.709
518.868
518.946
523.323
526.611
539.268
538.781
551.516
550.517
501.436
520.146
517.333
516.947
516.974
505.646
502.42
498.439
498.575
498.671
502.961
506.22
517.498
517.471
517.49
520.289
491.31
492.668
485.695
498.724
498.164
488.668
485.497
481.746
481.841
481.966
486.024
489.194
498.595
499.168
485.811
492.71
484.145
466.295
455.285
481.398
480.174
472.831
469.738
466.321
466.361
466.524
470.243
473.299
480.504
481.753
455.367
466.243
477.793
440.335
425.655
463.693
461.796
456.77
453.759
450.764
450.737
450.946
454.237
457.174
462.021
463.955
425.707
440.201
470.581
414.556
396.715
444.909
442.385
439.721
436.794
434.332
434.224
434.488
437.237
440.058
442.51
445.078
396.741
414.353
461.354
388.977
368.559
424.79
421.724
421.388
418.584
416.753
416.552
416.878
418.973
421.658
421.753
424.869
368.565
388.72
449.545
363.751
341.369
403.47
399.947
401.905
399.31
398.16
397.858
398.251
399.634
402.106
399.886
403.464
341.359
363.454
435.247
339.096
315.349
381.413
377.482
381.759
379.467
378.962
378.561
379.018
379.72
381.885
377.334
381.323
315.326
338.772
419.128
315.253
290.688
359.188
354.942
361.43
359.521
359.553
359.073
359.575
359.707
361.477
354.716
359.02
290.654
314.914
402.647
292.463
267.539
337.184
332.769
341.201
339.749
340.201
339.691
340.202
339.868
341.173
332.476
336.947
267.498
292.118
386.091
270.949
246.01
315.603
311.143
321.296
320.331
321.155
320.642
321.139
320.382
321.196
310.793
315.305
245.964
270.602
369.386
250.871
226.159
294.586
290.19
301.886
301.411
302.632
302.125
302.611
301.395
301.717
289.791
294.235
226.11
250.528
352.478
232.221
208
274.211
269.996
283.049
283.05
284.697
284.193
284.672
282.969
282.815
269.558
273.817
207.95
231.886
335.337
214.89
191.504
254.485
250.597
264.769
265.215
267.314
266.803
267.28
265.074
264.477
250.133
254.062
191.454
214.569
317.951
198.806
176.611
235.349
231.982
246.951
247.795
250.358
249.829
250.31
247.603
246.607
231.51
234.913
176.562
198.502
300.319
183.925
163.231
217.044
214.105
229.436
230.62
233.641
233.083
233.572
230.386
229.054
213.647
216.6
163.184
183.64
282.44
170.212
151.238
200.202
197.24
212.534
213.941
217.268
216.688
217.18
213.677
212.126
196.795
199.748
151.192
169.948
264.301
157.631
140.481
184.928
181.834
196.804
198.314
201.762
201.173
201.657
198.03
196.382
181.392
184.478
140.438
157.389
245.86
146.141
130.832
170.926
167.861
182.182
183.717
187.213
186.619
187.095
183.429
181.762
167.433
170.495
130.792
145.921
227.749
135.69
122.138
158.013
155.116
168.471
169.955
173.396
172.807
173.27
169.675
168.069
154.712
157.614
122.103
135.491
211.075
126.213
114.292
146.071
143.448
155.59
156.958
160.245
159.673
160.116
156.7
155.219
143.075
145.712
114.26
126.035
195.954
117.635
107.202
135.028
132.739
143.516
144.722
147.765
147.223
147.639
144.493
143.185
132.4
134.715
107.174
117.477
182.278
109.884
100.792
124.831
122.89
132.25
133.261
135.992
135.491
135.872
133.069
131.965
122.582
124.566
100.767
109.743
169.975
102.886
94.9924
115.412
113.794
121.784
122.581
124.956
124.503
124.846
122.43
121.549
113.514
115.193
94.9693
102.76
158.945
96.5655
89.7205
106.787
105.334
112.12
112.74
114.774
114.373
114.676
112.62
111.928
105.073
106.603
89.6992
96.4539
148.895
90.8436
84.887
98.8642
97.3978
103.279
103.747
105.504
105.143
105.417
103.65
103.12
97.1745
98.7022
84.8669
90.7437
139.628
85.6416
80.4256
91.465
90.1747
95.0472
95.3653
96.953
96.6025
96.8726
95.2868
94.9137
90.0043
91.3327
80.4064
85.5517
131.051
80.8908
76.2924
84.7844
83.8429
87.545
87.7374
89.082
88.7659
89.0124
87.6801
87.4428
83.7147
84.6897
76.2737
80.8094
123.075
76.534
72.4502
78.9509
78.2937
81.0761
81.1829
82.2045
81.9569
82.1514
81.1471
81.0066
78.1993
78.8809
72.4317
76.4605
115.63
72.5147
68.8678
73.8166
73.3938
75.5364
75.5916
76.3745
76.1801
76.3342
75.5699
75.4895
73.3262
73.7659
68.8492
72.449
108.665
68.7879
65.5191
69.2714
69.0396
70.7073
70.742
71.3746
71.2153
71.3428
70.7283
70.6736
68.9922
69.2343
65.5002
68.7299
102.136
65.3232
62.3825
65.2286
65.1557
66.4753
66.5065
67.0155
66.8885
66.9906
66.4978
66.4506
65.1229
65.2007
62.3631
65.2734
96.0071
62.0966
59.44
61.6157
61.6756
62.7506
62.7932
63.2074
63.1087
63.1878
62.7868
62.7309
61.6529
61.5944
59.4199
62.0513
90.2537
59.1032
56.6769
58.3706
58.5424
59.4469
59.513
59.8619
59.787
59.8457
59.5066
59.4287
58.5259
58.3535
56.6558
59.0598
84.8527
56.3252
54.081
55.4403
55.7069
56.4828
56.5753
56.8832
56.8269
56.8688
56.5671
56.4644
55.6933
55.4256
54.0589
56.2827
79.7829
53.7404
51.6419
52.7817
53.112
53.7905
53.9047
54.1785
54.1375
54.1653
53.8941
53.7708
53.0986
52.7678
51.6186
53.6982
75.0259
51.3265
49.3427
50.3461
50.7105
51.3157
51.4521
51.6993
51.6718
51.6868
51.4392
51.2944
50.696
50.3316
49.3183
51.2845
70.5659
49.0638
47.1627
48.0901
48.4795
49.0279
49.1871
49.4138
49.3983
49.4017
49.1716
49.0045
48.4629
48.074
47.1375
49.022
66.3891
46.9353
45.0905
45.991
46.401
46.9013
47.0837
47.2946
47.29
47.2826
47.0657
46.8756
46.3815
45.9728
45.0646
46.8938
62.4831
44.9265
43.1206
44.0346
44.4607
44.9148
45.1207
45.3186
45.3243
45.3064
45.1
44.8866
44.4381
44.0139
43.0939
44.8854
58.8358
43.0254
41.2473
42.1904
42.634
43.0521
43.2816
43.4671
43.4831
43.4546
43.2582
43.0211
42.6081
42.1676
41.2198
42.9849
55.4372
41.2226
39.4651
40.4345
40.8959
41.3003
41.5537
41.726
41.7525
41.713
41.5276
41.2665
40.8669
40.4096
39.4371
41.1827
52.2657
39.511
37.7692
38.7539
39.2322
39.6436
39.9132
40.084
40.1157
40.0703
39.8851
39.6076
39.2004
38.7273
37.7407
39.4719
49.2978
37.8852
36.1557
37.142
37.6352
38.0616
38.3432
38.5176
38.552
38.5031
38.3137
38.0238
37.6009
37.1139
36.1268
37.8471
46.527
36.3404
34.6214
35.595
36.1
36.5436
36.8348
37.0145
37.0504
36.9993
36.8041
36.5043
36.0636
35.5656
34.5923
36.3033
43.9521
34.8719
33.1638
34.1113
34.6243
35.084
35.3829
35.5681
35.605
35.5523
35.3513
35.0435
34.5862
34.0808
33.1347
34.836
41.5705
33.4758
31.7807
32.6905
33.2071
33.68
33.9849
34.1749
34.2125
34.1585
33.9525
33.6385
33.1678
32.6594
31.7517
33.441
39.3744
32.1485
30.4699
31.3334
31.8492
32.3313
32.6401
32.8336
32.8717
32.8168
32.6072
32.2892
31.809
31.3019
30.4412
32.1149
37.3464
30.8871
29.2295
30.0408
30.5517
31.0388
31.3495
31.5452
31.5834
31.5282
31.3165
30.9966
30.5112
30.0091
29.2012
30.8547
35.4729
29.6893
28.0577
28.8124
29.3153
29.8037
30.1145
30.3114
30.3492
30.2945
30.0815
29.7616
29.2748
28.7808
28.0299
29.6581
33.7457
28.5533
26.9529
27.6475
28.1399
28.6262
28.9353
29.1339
29.1702
29.1171
28.9026
28.5845
28.0996
27.6161
26.9258
28.5234
32.1552
27.4778
25.9138
26.5446
27.0247
27.5058
27.8119
28.0126
28.0475
27.996
27.7796
27.4647
26.9849
26.5133
25.8875
27.4493
30.6918
26.4622
24.9394
25.5034
25.969
26.4424
26.7442
26.9466
26.9803
26.9303
26.7126
26.4021
25.9299
25.4726
24.914
26.4351
29.346
25.5062
24.0291
24.5247
24.9726
25.4366
25.7335
25.9358
25.9686
25.9199
25.7029
25.3976
24.9344
24.4948
24.0048
25.4806
28.1087
24.61
23.183
23.6099
24.0368
24.4921
24.7818
24.9811
25.0131
24.9657
24.7523
24.4546
23.9998
23.5812
23.16
24.5858
26.9717
23.7741
22.4018
22.7612
23.1648
23.6106
23.8907
24.0844
24.1154
24.0696
23.8624
23.5748
23.1294
22.7342
22.3802
23.7515
25.9277
22.9994
21.6864
21.9825
22.3618
22.7948
23.0628
23.2487
23.2786
23.2345
23.0359
22.7608
22.3284
21.9571
21.6664
22.9784
24.9705
22.2872
21.0381
21.2784
21.6337
22.0477
22.3014
22.4775
22.5061
22.4641
22.2761
22.0158
21.6025
21.2548
21.0199
22.2678
24.0951
21.6391
20.4584
20.6535
20.9838
21.3732
21.6104
21.7748
21.8021
21.7624
21.5868
21.3435
20.955
20.6318
20.4421
21.6214
23.2983
21.0572
19.95
20.1099
20.4146
20.775
20.9939
21.1452
21.1707
21.1337
20.9722
20.7477
20.3883
20.0902
19.9354
21.0411
22.5793
20.5436
19.5176
19.6498
19.929
20.2574
20.4564
20.5932
20.6169
20.5828
20.4367
20.2327
19.9052
19.6321
19.5047
20.5293
21.942
20.1015
19.1627
19.2756
19.5303
19.8249
20.0026
20.1239
20.1454
20.1146
19.9851
19.8028
19.509
19.26
19.1517
20.0889
21.3916
19.7344
18.8879
18.9902
19.2218
19.4819
19.6374
19.7424
19.7616
19.7342
19.6221
19.4624
19.2031
18.9766
18.8786
19.7235
20.9304
19.4475
18.6962
18.7966
19.0073
19.2331
19.366
19.454
19.4709
19.447
19.3529
19.2164
18.991
18.7851
18.6886
19.4384
20.5588
19.2459
18.5909
18.6983
18.8905
19.0833
19.1934
19.2642
19.2786
19.2584
19.1824
19.0692
18.8765
18.6887
18.5851
19.2385
156509
156509
156509
156509
156509
156509
156509
156509
156509
156509
156509
156509
156509
156509
156509
156509
27322.4
27071
27014.8
27032.8
27043.9
27051.6
27055.8
27059
27059.4
27059
27055.9
27051.7
27044
27032.9
27014.8
27070.7
9404.82
9253.93
9194.72
9205.86
9215.47
9221.42
9224.8
9227.26
9227.63
9227.3
9224.91
9221.59
9215.62
9205.99
9194.82
9253.84
4522.27
4436.32
4382.57
4386.2
4394.23
4398.4
4401.01
4402.78
4403.07
4402.83
4401.13
4398.59
4394.42
4386.37
4382.7
4436.36
2620.28
2575.5
2529.01
2525.39
2532.28
2534.69
2536.66
2537.82
2538.07
2537.88
2536.82
2534.91
2532.51
2525.6
2529.17
2575.62
1702.7
1690.01
1651.04
1640.1
1646.13
1646.61
1647.98
1648.51
1648.75
1648.6
1648.18
1646.88
1646.43
1640.37
1651.23
1690.22
1195.01
1209.17
1177.08
1159.52
1164.87
1163.26
1164.03
1163.94
1164.16
1164.04
1164.27
1163.58
1165.23
1159.83
1177.3
1209.44
887.924
923.871
897.9
874.561
879.374
876.061
876.283
875.582
875.809
875.702
876.569
876.436
879.794
874.928
898.131
924.201
691.27
743.679
723.022
695.257
699.599
694.713
694.424
693.173
693.402
693.31
694.748
695.133
700.066
695.662
723.261
744.043
560.675
624.448
608.371
577.73
581.635
575.42
574.675
572.951
573.179
573.103
575.03
575.875
582.136
578.163
608.609
624.83
471.624
542.729
530.006
498.52
502.018
494.75
493.609
491.492
491.717
491.655
493.989
495.23
502.542
498.969
530.234
543.116
409.567
484.673
474.4
444.162
447.295
439.215
437.734
435.291
435.511
435.462
438.134
439.714
447.832
444.618
474.614
485.032
365.505
441.963
433.571
406.502
409.276
400.609
398.831
396.111
396.326
396.29
399.248
401.123
409.806
406.961
433.767
442.287
333.725
409.483
402.44
379.394
381.821
373.253
371.331
368.53
368.724
368.711
371.751
373.759
382.333
379.846
402.616
409.765
310.47
383.832
377.648
359.312
361.402
353.123
351.1
348.268
348.439
348.45
351.518
353.616
361.889
359.747
377.804
384.066
293.218
362.614
356.847
343.851
345.618
337.805
335.726
332.913
333.061
333.093
336.136
338.278
346.072
344.263
356.981
362.794
280.244
344.142
338.424
331.347
332.807
325.619
323.53
320.785
320.908
320.961
323.926
326.067
333.222
331.729
338.536
344.263
270.335
327.285
321.334
320.639
321.771
315.388
313.336
310.706
310.804
310.875
313.711
315.805
322.138
320.982
321.424
327.347
262.631
311.319
304.934
310.832
311.587
306.255
304.301
301.855
301.926
302.015
304.648
306.634
311.895
311.125
305.003
311.325
256.512
295.817
288.867
301.231
301.571
297.55
295.766
293.589
293.633
293.738
296.075
297.878
301.811
301.466
288.916
295.769
251.534
280.561
272.981
291.377
291.29
288.767
287.217
285.383
285.396
285.516
287.48
289.036
291.456
291.55
273.013
280.467
247.388
265.489
257.267
281.017
280.517
279.586
278.318
276.876
276.855
276.99
278.528
279.791
280.608
281.124
257.283
265.356
243.116
250.636
241.795
270.049
269.171
269.842
268.884
267.863
267.809
267.956
269.039
269.979
269.191
270.093
241.798
250.47
238.189
236.068
226.67
258.479
257.273
259.485
258.85
258.263
258.176
258.334
258.949
259.555
257.226
258.463
226.661
235.877
232.61
221.856
212.011
246.382
244.905
248.549
248.235
248.081
247.962
248.13
248.281
248.555
244.799
246.312
211.993
221.646
226.406
208.076
197.939
233.883
232.194
237.122
237.117
237.387
237.236
237.414
237.112
237.068
232.037
233.764
197.914
207.855
219.621
194.801
184.562
221.141
219.294
225.336
225.619
226.296
226.114
226.302
225.567
225.228
219.094
220.982
184.531
194.575
212.314
182.095
171.965
208.343
206.378
213.356
213.899
214.958
214.744
214.943
213.805
213.199
206.145
208.15
171.931
181.868
204.557
170.013
160.203
195.686
193.624
201.351
202.122
203.532
203.285
203.497
201.99
201.152
193.366
195.467
160.167
169.791
196.436
158.601
149.301
183.353
181.202
189.48
190.438
192.157
191.88
192.103
190.274
189.245
180.925
183.114
149.264
158.388
188.051
147.893
139.252
171.468
169.246
177.857
178.956
180.932
180.626
180.861
178.767
177.594
168.957
171.218
139.216
147.692
179.516
137.907
130.029
160.098
157.838
166.537
167.724
169.896
169.565
169.81
167.517
166.255
157.545
159.845
129.995
137.72
170.958
128.649
121.608
149.27
147.015
155.53
156.747
159.046
158.695
158.947
156.531
155.24
146.726
149.023
121.576
128.478
162.504
120.111
113.924
138.987
136.783
144.928
146.183
148.539
148.182
148.434
145.963
144.637
136.508
138.756
113.894
119.955
154.251
112.271
106.921
129.254
127.165
135.069
136.374
138.743
138.392
138.637
136.153
134.78
126.903
129.039
106.894
112.131
146.268
105.1
100.549
120.22
118.278
126.03
127.343
129.677
129.334
129.571
127.126
125.747
118.022
120.014
100.525
104.975
138.632
98.5587
94.7499
111.946
110.146
117.627
118.901
121.143
120.812
121.04
118.694
117.357
109.894
111.747
94.7276
98.4471
131.496
92.6037
89.4574
104.33
102.67
109.758
110.953
113.052
112.737
112.953
110.761
109.506
102.425
104.141
89.4369
92.5041
124.947
87.1873
84.6063
97.2933
95.7716
102.369
103.459
105.373
105.078
105.281
103.286
102.14
95.5379
97.1157
84.5871
87.0976
118.94
82.2568
80.1389
90.776
89.3987
95.4467
96.4227
98.1539
97.8906
98.0686
96.2683
95.241
89.1789
90.6117
80.1206
82.1756
113.391
77.7595
76.009
84.7406
83.5139
89.0204
89.8739
91.4153
91.1814
91.3376
89.7394
88.8388
83.3109
84.591
75.9911
77.6855
108.214
73.6411
72.1742
79.1629
78.0865
83.0615
83.797
85.1582
84.9523
85.0884
83.6814
82.9026
77.903
79.0282
72.1565
73.5737
103.33
69.8467
68.5997
74.0179
73.0925
77.5471
78.182
79.3886
79.2077
79.326
78.0831
77.4082
72.9335
73.9015
68.5819
69.7856
98.6671
66.3346
65.2609
69.3049
68.5534
72.4451
72.9975
74.0827
73.922
74.0262
72.9126
72.3233
68.4275
69.2126
65.2428
66.279
94.1672
63.0734
62.1365
65.0362
64.4804
67.7235
68.2037
69.1942
69.0496
69.1426
68.1312
67.6173
64.3874
64.9638
62.1179
63.0226
89.7849
60.032
59.2076
61.2055
60.8325
63.3677
63.7709
64.6794
64.5482
64.6322
63.711
63.2782
60.7647
61.1527
59.1883
59.9849
85.4894
57.187
56.4574
57.7732
57.5584
59.459
59.7513
60.5243
60.4107
60.4826
59.7084
59.3904
57.5093
57.735
56.4372
57.143
81.2632
54.5228
53.8705
54.6888
54.6124
56.0162
56.2472
56.8405
56.7546
56.8064
56.2126
55.9636
54.5771
54.6609
53.8494
54.4811
77.1014
52.0244
51.4323
51.9097
51.9545
52.983
53.1681
53.6149
53.5563
53.5878
53.1397
52.9419
51.9291
51.8891
51.4101
51.9847
73.0105
49.678
49.1275
49.4001
49.5416
50.2813
50.436
50.7768
50.7389
50.7548
50.4118
50.2479
49.5218
49.3847
49.1044
49.6397
69.0071
47.4702
46.9419
47.1187
47.3264
47.8545
47.9893
48.2542
48.2317
48.2358
47.9678
47.8262
47.3098
47.1055
46.9178
47.4332
65.1091
45.3893
44.8646
45.0206
45.2669
45.658
45.7792
45.9901
45.9791
45.9743
45.7595
45.6332
45.2517
45.0086
44.8397
45.3533
61.3337
43.4247
42.8889
43.0622
43.3327
43.6519
43.7676
43.9405
43.9375
43.9265
43.749
43.6285
43.3176
43.0505
42.8632
43.3895
57.7021
41.567
41.0117
41.2253
41.5118
41.7979
41.9144
42.0668
42.0686
42.0538
41.896
41.7746
41.4956
41.2128
40.9852
41.5326
54.2366
39.808
39.2321
39.4992
39.7969
40.0656
40.186
40.3316
40.3353
40.3189
40.1672
40.0417
39.7789
39.4852
39.2049
39.7744
50.9592
38.1408
37.5496
37.8707
38.1768
38.4358
38.5674
38.7053
38.7134
38.6927
38.5474
38.4103
38.1566
37.8549
37.5219
38.108
47.888
36.5591
35.9584
36.3274
36.6402
36.8991
37.0443
37.1774
37.1899
37.1647
37.0228
36.8717
36.6175
36.3096
35.9303
36.5271
45.0349
35.0577
34.4456
34.8592
35.1773
35.4438
35.6025
35.7339
35.75
35.7209
35.5794
35.4144
35.1522
34.8395
34.4174
35.0265
42.4037
33.6319
33.0038
33.4584
33.7805
34.0591
34.2299
34.362
34.3808
34.3487
34.2052
34.0279
33.7531
33.4369
32.9756
33.6016
39.9872
32.2779
31.6332
32.1191
32.444
32.7364
32.9172
33.0517
33.0722
33.0379
32.8913
32.7036
32.4147
32.096
31.6051
32.2485
37.7647
30.9926
30.333
30.8373
31.1634
31.4691
31.6577
31.7953
31.8169
31.7811
31.6307
31.4349
31.1323
30.8128
30.3052
30.9642
35.7031
29.7737
29.102
29.6104
29.9357
30.2523
30.4465
30.5872
30.6094
30.5726
30.4188
30.2172
29.9034
29.5848
29.0746
29.7463
33.7598
28.6195
27.9386
28.4378
28.7602
29.084
29.2813
29.4239
29.4467
29.4091
29.253
29.0482
28.727
28.4115
27.9118
28.5932
31.9214
27.5286
26.8411
27.3203
27.6373
27.9643
28.1623
28.3046
28.3282
28.2895
28.1338
27.9282
27.6037
27.2938
26.815
27.5034
30.2618
26.5006
25.8083
26.2599
26.569
26.8952
27.0916
27.2311
27.255
27.216
27.0632
26.8593
26.5355
26.2336
25.7831
26.4766
28.8125
25.5347
24.8393
25.2582
25.5579
25.8794
26.0722
26.2072
26.2308
26.1923
26.0442
25.844
25.5247
25.2322
24.8151
25.512
27.5321
24.631
23.9339
24.3168
24.6067
24.9198
25.1066
25.2365
25.2595
25.222
25.0791
24.8853
24.5743
24.2913
23.9108
24.6096
26.3911
23.7897
23.0923
23.4379
23.7182
24.0178
24.1977
24.3228
24.345
24.3087
24.1711
23.9843
23.6868
23.413
23.0708
23.7697
25.3688
23.0114
22.3146
22.6241
22.8944
23.1773
23.3498
23.4698
23.4911
23.4563
23.3243
23.1451
22.8643
22.5999
22.295
22.9928
24.4506
22.2972
21.6028
21.8777
22.137
22.4023
22.5669
22.6815
22.7018
22.6688
22.5428
22.3718
22.1083
21.8545
21.585
22.28
23.6264
21.6484
20.9598
21.2002
21.4477
21.6968
21.8532
21.962
21.9812
21.95
21.8306
21.6682
21.4205
21.1782
20.9436
21.6326
22.8895
21.0666
20.3887
20.5939
20.8304
21.065
21.2128
21.3152
21.3335
21.3042
21.1919
21.0384
20.805
20.5732
20.3738
21.0522
22.2356
20.5539
19.8916
20.0633
20.2898
20.5108
20.6499
20.7456
20.7628
20.7355
20.6308
20.4865
20.2664
20.0443
19.8783
20.541
21.663
20.1125
19.4696
19.6138
19.8305
20.0385
20.1688
20.2573
20.2735
20.2483
20.1515
20.0164
19.8091
19.5967
19.4578
20.1011
21.1714
19.745
19.1265
19.2495
19.4568
19.6523
19.7737
19.8548
19.8698
19.8468
19.7584
19.6326
19.4376
19.2343
19.1162
19.7351
20.7617
19.4546
18.8662
18.9744
19.173
19.3564
19.4691
19.5425
19.5563
19.5355
19.4556
19.3391
19.156
18.9611
18.8573
19.4462
20.4354
19.2445
18.6929
18.7932
18.9837
19.1555
19.2593
19.3248
19.3374
19.3189
19.2478
19.1404
18.9688
18.7817
18.6854
19.2377
20.1942
19.1182
18.6179
18.7151
18.8963
19.0573
19.1508
19.2063
19.2176
19.2016
19.1416
19.0445
18.8836
18.7052
18.6114
19.1131
20.0405
19.0807
18.6377
18.736
156509
156509
156509
156509
156509
156509
156509
156509
156509
156509
156509
156509
156509
156509
156509
156509
27015.3
27113.1
27095.9
27088
27088
27089.8
27089.6
27090.6
27090.5
27090.6
27089.7
27089.9
27087.9
27087.9
27095.8
27113.2
9228.86
9280.06
9273.3
9266.06
9265.27
9266.32
9265.97
9266.55
9266.45
9266.59
9266.05
9266.43
9265.31
9266.05
9273.31
9280.2
4431.08
4456.88
4457.44
4450.19
4448.72
4448.84
4448.25
4448.44
4448.35
4448.49
4448.35
4448.99
4448.81
4450.24
4457.52
4457.08
2579.78
2595.76
2601.17
2593.02
2591.03
2590.25
2589.38
2589.22
2589.11
2589.29
2589.52
2590.44
2591.18
2593.12
2601.32
2596.01
1695.74
1710.14
1718.72
1709.02
1706.74
1705.1
1703.95
1703.45
1703.33
1703.53
1704.12
1705.33
1706.94
1709.17
1718.91
1710.45
1209.49
1227.03
1237.62
1225.59
1223.3
1220.88
1219.51
1218.69
1218.56
1218.78
1219.7
1221.15
1223.54
1225.79
1237.84
1227.38
913.607
936.966
948.48
934.014
931.911
928.488
926.925
925.818
925.7
925.918
927.14
928.78
932.191
934.247
948.718
937.355
719.759
749.878
761.447
744.749
742.988
738.737
737.042
735.693
735.587
735.801
737.277
739.049
743.3
745.013
761.693
750.288
585.884
622.274
633.31
614.884
613.53
608.648
606.874
605.335
605.245
605.449
607.124
608.974
613.865
615.171
633.556
622.692
490.025
531.044
541.474
522.004
521.054
515.75
513.942
512.27
512.194
512.388
514.201
516.083
521.402
522.306
541.715
531.458
419.668
463.441
473.311
453.511
452.915
447.393
445.586
443.835
443.771
443.955
445.85
447.727
453.27
453.822
473.544
463.844
367.068
411.921
421.234
401.799
401.488
395.929
394.151
392.369
392.315
392.49
394.415
396.259
401.842
402.111
421.457
412.306
327.111
371.778
380.6
362.007
361.925
356.416
354.675
352.887
352.839
353.008
354.937
356.74
362.274
362.317
380.813
372.14
296.008
339.927
348.326
330.931
331.04
325.675
323.983
322.205
322.162
322.326
324.242
325.991
331.38
331.236
348.527
340.264
271.512
314.218
322.188
306.319
306.584
301.434
299.803
298.056
298.016
298.175
300.057
301.741
306.914
306.617
322.378
314.528
252.01
293.092
300.52
286.541
286.931
282.052
280.492
278.791
278.755
278.909
280.74
282.348
287.248
286.829
300.697
293.372
236.328
275.36
282.094
270.39
270.878
266.317
264.837
263.199
263.165
263.315
265.077
266.6
271.181
270.667
282.258
275.606
223.6
260.095
266.012
256.957
257.522
253.319
251.929
250.368
250.336
250.481
252.159
253.587
257.808
257.221
266.161
260.303
213.153
246.612
251.605
245.553
246.175
242.366
241.076
239.607
239.576
239.716
241.295
242.618
246.443
245.802
251.74
246.779
204.445
234.411
238.384
235.629
236.28
232.928
231.748
230.386
230.354
230.49
231.953
233.162
236.526
235.86
238.504
234.536
197.057
223.128
225.996
226.72
227.365
224.581
223.535
222.295
222.262
222.395
223.724
224.793
227.582
226.926
226.102
223.211
190.654
212.506
214.2
218.439
219.053
216.952
216.074
214.988
214.953
215.08
216.241
217.136
219.236
218.616
214.291
212.55
184.974
202.368
202.843
210.498
211.062
209.728
209.045
208.153
208.114
208.235
209.185
209.879
211.207
210.643
202.92
202.374
179.812
192.596
191.838
202.692
203.192
202.676
202.206
201.541
201.496
201.611
202.317
202.791
203.297
202.802
191.902
192.568
175.008
183.118
181.148
194.882
195.31
195.633
195.386
194.969
194.918
195.026
195.466
195.709
195.375
194.957
181.199
183.059
170.443
173.895
170.764
186.99
187.342
188.493
188.47
188.315
188.255
188.357
188.518
188.531
187.368
187.031
170.804
173.81
166.026
164.915
160.704
178.985
179.26
181.203
181.397
181.505
181.437
181.532
181.413
181.203
179.248
178.992
160.734
164.808
161.687
156.186
151.004
170.871
171.071
173.748
174.144
174.509
174.431
174.52
174.13
173.712
171.024
170.847
151.024
156.062
157.377
147.726
141.705
162.68
162.809
166.144
166.724
167.329
167.242
167.326
166.682
166.075
162.731
162.627
141.718
147.589
153.063
139.562
132.853
154.457
154.522
158.428
159.17
159.995
159.899
159.979
159.103
158.329
154.417
154.379
132.858
139.418
148.726
131.722
124.488
146.257
146.271
150.654
151.535
152.558
152.452
152.528
151.446
150.529
146.143
146.159
124.488
131.574
144.358
124.231
116.645
138.14
138.117
142.886
143.884
145.079
144.966
145.039
143.776
142.739
137.971
138.024
116.64
124.082
139.962
117.111
109.349
130.162
130.121
135.19
136.284
137.629
137.509
137.578
136.161
135.025
129.962
130.032
109.341
116.965
135.543
110.377
102.601
122.374
122.339
127.628
128.798
130.267
130.143
130.207
128.662
127.448
122.17
122.233
102.589
110.236
131.116
104.037
96.3663
114.853
114.813
120.24
121.463
123.03
122.904
122.963
121.319
120.049
114.639
114.705
96.3531
103.904
126.694
98.0922
90.6126
107.769
107.631
113.062
114.299
115.934
115.808
115.86
114.149
112.868
107.456
107.619
90.5978
97.9678
122.292
92.5347
85.3116
101.229
100.924
106.294
107.503
109.151
109.023
109.075
107.352
106.1
100.749
101.075
85.2958
92.4207
117.923
87.3684
80.4394
95.1884
94.7274
100.049
101.22
102.851
102.722
102.775
101.069
99.8552
94.5517
95.0324
80.4229
87.2614
113.594
82.6086
75.9703
89.5763
88.9912
94.2488
95.3758
96.9613
96.8235
96.8867
95.2271
94.0572
88.8158
89.4188
75.9535
82.5082
109.308
78.2208
71.8755
84.3256
83.6548
88.7861
89.8589
91.3822
91.2421
91.3092
89.7147
88.5989
83.4814
84.1683
71.8584
78.1269
105.067
74.1652
68.1204
79.3836
78.6683
83.6165
84.6457
86.0929
85.9594
86.0229
84.5058
83.4365
78.5
79.2291
68.1033
74.0776
100.871
70.4046
64.6549
74.7177
74.0004
78.7144
79.6892
81.0495
80.9236
80.983
79.5555
78.5436
73.8403
74.5688
64.6374
70.3229
96.7161
66.9095
61.4347
70.307
69.628
74.052
74.9656
76.2307
76.1132
76.168
74.8395
73.8921
69.4785
70.1652
61.4167
66.8332
92.5882
63.6525
58.4339
66.154
65.5327
69.6193
70.4678
71.6285
71.5209
71.5702
70.3499
69.4716
65.3952
66.0286
58.4153
63.5812
88.469
60.6091
55.6296
62.2614
61.6971
65.418
66.2008
67.2546
67.1571
67.2008
66.0911
65.2829
61.5724
62.1512
55.6105
60.5422
84.3655
57.7579
53.0018
58.6165
58.1074
61.4424
62.167
63.1172
63.0291
63.0678
62.0638
61.3191
57.9966
58.5202
52.982
57.6949
80.3382
55.0809
50.5326
55.2049
54.7637
57.7251
58.3522
59.2065
59.1259
59.161
58.2614
57.6152
54.6743
55.1215
50.5122
55.0213
76.4657
52.5618
48.2074
52.0177
51.7278
54.2485
54.7925
55.5624
55.4876
55.5203
54.7114
54.1504
51.6492
51.9504
48.1863
52.5052
72.7759
50.1865
46.016
49.0819
48.982
51.0081
51.4687
52.152
52.0821
52.113
51.3984
50.9248
48.9158
49.021
45.9941
50.1326
69.282
47.9425
43.9491
46.4034
46.4854
48.0808
48.4594
49.0067
48.9546
48.9738
48.4045
48.0179
46.4295
46.3525
43.9265
47.8909
65.9455
45.8188
41.9955
43.9738
44.1969
45.5094
45.8383
46.2348
46.2091
46.2095
45.7984
45.4551
44.1493
43.9308
41.9722
45.7695
62.7375
43.8065
40.1479
41.7601
42.09
43.1779
43.4882
43.8289
43.8187
43.8065
43.4529
43.1304
42.0487
41.7232
40.1241
43.7593
59.6357
41.8985
38.4044
39.7337
40.1427
41.0553
41.3515
41.6478
41.6498
41.6276
41.3198
41.013
40.1061
39.7013
38.38
41.8534
56.626
40.0899
36.763
37.8695
38.3359
39.1143
39.4007
39.6623
39.6739
39.6439
39.3715
39.0758
38.3026
37.8405
36.7382
40.0468
53.7049
38.3775
35.2197
36.1463
36.6533
37.3308
37.6115
37.8467
37.8659
37.8296
37.5842
37.295
36.6222
36.1196
35.1946
38.3364
50.8775
36.7599
33.7668
34.5463
35.0809
35.6847
35.9631
36.1786
36.204
36.1626
35.937
35.6507
35.0511
34.5211
33.7416
36.7209
48.1527
35.2364
32.394
33.0544
33.6068
34.1587
34.4377
34.6392
34.6695
34.6239
34.4124
34.126
33.5778
33.0301
32.3688
35.1994
45.5406
33.804
31.0926
31.6586
32.2213
32.7386
33.0203
33.2122
33.2465
33.1975
32.9953
32.7065
32.1926
31.6348
31.0676
33.7688
43.0519
32.4507
29.8581
30.3491
30.9166
31.4124
31.6986
31.8847
31.9222
31.8704
31.6738
31.3808
30.8879
30.3255
29.8334
32.4171
40.6968
31.1661
28.6873
29.1183
29.6865
30.1711
30.4631
30.646
30.6862
30.632
30.4384
30.1397
29.6576
29.0947
28.6631
31.1338
38.4847
29.9474
27.5783
27.9604
28.5262
29.0077
29.3064
29.4884
29.5309
29.4747
29.2818
28.9764
28.4968
27.9369
27.5547
29.9166
36.4231
28.7933
26.5298
26.8715
27.4301
27.9174
28.2239
28.4065
28.4511
28.393
28.1994
27.8863
27.4002
26.848
26.5069
28.7639
34.5153
27.7026
25.5412
25.8488
26.3949
26.8923
27.2064
27.3917
27.4376
27.3783
27.1818
26.8613
26.3646
25.8255
25.5191
27.6747
32.7577
26.6743
24.6123
24.8901
25.4188
25.9259
26.2457
26.4341
26.4808
26.4208
26.221
25.8949
25.3882
24.867
24.5911
26.6479
31.1369
25.708
23.7436
23.9941
24.5013
25.0144
25.337
25.5278
25.5747
25.5146
25.3124
24.9835
24.4708
23.9714
23.7234
25.683
29.6439
24.8033
22.9361
23.1609
23.6432
24.1565
24.4784
24.67
24.7165
24.657
24.454
24.1259
23.6131
23.1387
22.917
24.7798
28.275
23.9604
22.1918
22.3913
22.8459
23.3526
23.67
23.8604
23.906
23.8476
23.6461
23.3226
22.8166
22.3698
22.1736
23.9384
27.0242
23.1796
21.5129
21.6867
22.1116
22.6047
22.9137
23.1004
23.1446
23.088
22.8904
22.5756
22.0832
21.6662
21.4954
23.1593
25.8848
22.4618
20.9004
21.0493
21.4427
21.9156
22.2122
22.393
22.4352
22.3811
22.1898
21.8877
21.4156
21.0299
20.8839
22.4431
24.8504
21.808
20.3549
20.4812
20.8421
21.289
21.5696
21.742
21.7818
21.7306
21.5483
21.2626
20.8167
20.4632
20.3396
21.7909
23.9152
21.2197
19.8775
19.9852
20.3133
20.7291
20.9902
21.1519
21.1888
21.1412
20.9702
20.7044
20.2896
19.9688
19.8637
21.2042
23.0756
20.6986
19.4702
19.5642
19.8599
20.2403
20.4789
20.6279
20.6614
20.618
20.4604
20.2175
19.8381
19.5492
19.4579
20.6848
22.3325
20.2471
19.135
19.2202
19.4858
19.8275
20.0409
20.1753
20.205
20.1663
20.0241
19.8067
19.4661
19.2066
19.1243
20.235
21.6939
19.8678
18.8749
18.9568
19.1951
19.4955
19.6817
19.7999
19.8256
19.7918
19.6666
19.477
19.1775
18.9447