0 	0 	0 	0
0 	-2.37734e-35 	-5.20566e-37 	1.85891e-31
5.01672e-05 	-2.0399e-06 	-9.5028e-08 	0.0173411
5.01672e-05 	-2.0399e-06 	-9.5028e-08 	0.0173411
0.000100334 	-2.59773e-06 	-5.98621e-07 	0.0333607
0.000150502 	-2.76995e-06 	-1.54973e-06 	0.0482189
0.000150502 	-2.76995e-06 	-1.54973e-06 	0.0482189
0.000200669 	-3.00087e-06 	-2.97121e-06 	0.0619961
0.000200669 	-3.00087e-06 	-2.97121e-06 	0.0619961
0.000250836 	-3.25495e-06 	-4.82766e-06 	0.0747732
0.000301003 	-3.46616e-06 	-7.11049e-06 	0.0866211
0.000301003 	-3.46616e-06 	-7.11049e-06 	0.0866211
0.000351171 	-3.61537e-06 	-9.81152e-06 	0.0975878
0.000401338 	-3.69936e-06 	-1.2936e-05 	0.107699
0.000451505 	-3.72229e-06 	-1.65063e-05 	0.116971
0.000451505 	-3.72229e-06 	-1.65063e-05 	0.116971
0.000501672 	-3.69217e-06 	-2.05583e-05 	0.125431
0.000551839 	-3.61835e-06 	-2.51302e-05 	0.133126
0.000551839 	-3.61835e-06 	-2.51302e-05 	0.133126
0.000602007 	-3.50972e-06 	-3.02525e-05 	0.140115
0.000602007 	-3.50972e-06 	-3.02525e-05 	0.140115
0.000652174 	-3.37378e-06 	-3.59452e-05 	0.146468
0.000652174 	-3.37378e-06 	-3.59452e-05 	0.146468
0.000702341 	-3.21629e-06 	-4.22232e-05 	0.152256
0.000702341 	-3.21629e-06 	-4.22232e-05 	0.152256
0.000752508 	-3.0415e-06 	-4.91005e-05 	0.157549
0.000802676 	-2.85226e-06 	-5.65908e-05 	0.162401
0.000852843 	-2.64926e-06 	-6.47909e-05 	0.166807
0.000852843 	-2.64926e-06 	-6.47909e-05 	0.166807
0.00090301 	-2.43694e-06 	-7.35744e-05 	0.170876
0.00090301 	-2.43694e-06 	-7.35744e-05 	0.170876
0.000953177 	-2.2174e-06 	-8.28909e-05 	0.174648
0.00100334 	-1.99225e-06 	-9.26883e-05 	0.17816
0.00100334 	-1.99225e-06 	-9.26883e-05 	0.17816
0.00105351 	-1.76277e-06 	-0.000102917 	0.181442
0.00105351 	-1.76277e-06 	-0.000102917 	0.181442
0.00110368 	-1.5298e-06 	-0.00011354 	0.184519
0.00115385 	-1.29344e-06 	-0.000124601 	0.187367
0.00120401 	-1.05513e-06 	-0.000135946 	0.190064
0.00120401 	-1.05513e-06 	-0.000135946 	0.190064
0.00130435 	-5.74235e-07 	-0.000159348 	0.195065
0.00130435 	-5.74235e-07 	-0.000159348 	0.195065
0.00135452 	-3.32162e-07 	-0.000171393 	0.197362
0.00135452 	-3.32162e-07 	-0.000171393 	0.197362
0.00140468 	-8.97693e-08 	-0.000183598 	0.19955
0.00145485 	1.52475e-07 	-0.000195912 	0.201653
0.00145485 	1.52475e-07 	-0.000195912 	0.201653
0.00150502 	3.94335e-07 	-0.000208316 	0.20368
0.00150502 	3.94335e-07 	-0.000208316 	0.20368
0.00155518 	6.34727e-07 	-0.000220809 	0.205598
0.00155518 	6.34727e-07 	-0.000220809 	0.205598
0.00160535 	8.74e-07 	-0.000233322 	0.207456
0.00160535 	8.74e-07 	-0.000233322 	0.207456
0.00165552 	1.1123e-06 	-0.000245843 	0.209261
0.00165552 	1.1123e-06 	-0.000245843 	0.209261
0.00170569 	1.34934e-06 	-0.000258338 	0.210996
0.00170569 	1.34934e-06 	-0.000258338 	0.210996
0.00175585 	1.58557e-06 	-0.000270761 	0.212675
0.00175585 	1.58557e-06 	-0.000270761 	0.212675
0.00180602 	1.82127e-06 	-0.000283117 	0.214317
0.00180602 	1.82127e-06 	-0.000283117 	0.214317
0.00185619 	2.05625e-06 	-0.000295345 	0.215906
0.00185619 	2.05625e-06 	-0.000295345 	0.215906
0.00190635 	2.29057e-06 	-0.000307406 	0.217449
0.00190635 	2.29057e-06 	-0.000307406 	0.217449
0.00195652 	2.52447e-06 	-0.000319351 	0.218965
0.00195652 	2.52447e-06 	-0.000319351 	0.218965
0.00200669 	2.75759e-06 	-0.000331054 	0.220434
0.00200669 	2.75759e-06 	-0.000331054 	0.220434
0.00205686 	2.99013e-06 	-0.000342543 	0.22187
0.00210702 	3.22229e-06 	-0.00035389 	0.223285
0.00210702 	3.22229e-06 	-0.00035389 	0.223285
0.00215719 	3.45349e-06 	-0.000364833 	0.224652
0.00220736 	3.68434e-06 	-0.000375599 	0.226001
0.00225753 	3.9146e-06 	-0.000386082 	0.227321
0.00225753 	3.9146e-06 	-0.000386082 	0.227321
0.00230769 	4.14422e-06 	-0.000396194 	0.228609
0.00230769 	4.14422e-06 	-0.000396194 	0.228609
0.00235786 	4.37355e-06 	-0.000406144 	0.229884
0.00235786 	4.37355e-06 	-0.000406144 	0.229884
0.00240803 	4.60213e-06 	-0.000415566 	0.231119
0.00240803 	4.60213e-06 	-0.000415566 	0.231119
0.00245819 	4.83048e-06 	-0.000424795 	0.232341
0.00245819 	4.83048e-06 	-0.000424795 	0.232341
0.00250836 	5.05839e-06 	-0.000433628 	0.233536
0.00250836 	5.05839e-06 	-0.000433628 	0.233536
0.00255853 	5.286e-06 	-0.000442098 	0.234708
0.0026087 	5.51341e-06 	-0.00045031 	0.235863
0.0026087 	5.51341e-06 	-0.00045031 	0.235863
0.00265886 	5.74054e-06 	-0.000457997 	0.236988
0.00270903 	5.9676e-06 	-0.00046556 	0.238105
0.00270903 	5.9676e-06 	-0.00046556 	0.238105
0.0027592 	6.19442e-06 	-0.00047245 	0.239183
0.00280936 	6.42121e-06 	-0.00047923 	0.240256
0.00280936 	6.42121e-06 	-0.00047923 	0.240256
0.00285953 	6.64784e-06 	-0.000485428 	0.241297
0.00285953 	6.64784e-06 	-0.000485428 	0.241297
0.0029097 	6.87443e-06 	-0.000491428 	0.242327
0.0029097 	6.87443e-06 	-0.000491428 	0.242327
0.00295987 	7.10093e-06 	-0.000496929 	0.243329
0.00295987 	7.10093e-06 	-0.000496929 	0.243329
0.00301003 	7.32744e-06 	-0.00050217 	0.244318
0.0030602 	7.55398e-06 	-0.000506982 	0.245283
0.00311037 	7.78069e-06 	-0.000511506 	0.246231
0.00311037 	7.78069e-06 	-0.000511506 	0.246231
0.00316054 	8.00765e-06 	-0.000515657 	0.247158
0.00316054 	8.00765e-06 	-0.000515657 	0.247158
0.00326087 	8.46297e-06 	-0.000523053 	0.248958
0.00326087 	8.46297e-06 	-0.000523053 	0.248958
0.00331104 	8.69146e-06 	-0.000526329 	0.249831
0.0033612 	8.92067e-06 	-0.000529289 	0.250683
0.0033612 	8.92067e-06 	-0.000529289 	0.250683
0.00341137 	9.15011e-06 	-0.000532045 	0.25152
0.00341137 	9.15011e-06 	-0.000532045 	0.25152
0.00346154 	9.37991e-06 	-0.000534493 	0.252334
0.00346154 	9.37991e-06 	-0.000534493 	0.252334
0.00351171 	9.60937e-06 	-0.000536798 	0.253137
0.00356187 	9.83813e-06 	-0.000538793 	0.253914
0.00356187 	9.83813e-06 	-0.000538793 	0.253914
0.00361204 	1.00665e-05 	-0.000540711 	0.254684
0.00366221 	1.0293e-05 	-0.000542308 	0.255426
0.00366221 	1.0293e-05 	-0.000542308 	0.255426
0.00371237 	1.05195e-05 	-0.000543894 	0.256167
0.00371237 	1.05195e-05 	-0.000543894 	0.256167
0.00376254 	1.07442e-05 	-0.000545141 	0.256876
0.00376254 	1.07442e-05 	-0.000545141 	0.256876
0.00381271 	1.09689e-05 	-0.000546387 	0.257585
0.00381271 	1.09689e-05 	-0.000546387 	0.257585
0.00386288 	1.11931e-05 	-0.000547376 	0.258267
0.00391304 	1.14171e-05 	-0.000548312 	0.258944
0.00391304 	1.14171e-05 	-0.000548312 	0.258944
0.00396321 	1.16411e-05 	-0.000549086 	0.259602
0.00401338 	1.18652e-05 	-0.000549749 	0.260247
0.00401338 	1.18652e-05 	-0.000549749 	0.260247
0.00406355 	1.20891e-05 	-0.000550337 	0.260882
0.00406355 	1.20891e-05 	-0.000550337 	0.260882
0.00411371 	1.23129e-05 	-0.000550761 	0.261494
0.00411371 	1.23129e-05 	-0.000550761 	0.261494
0.00421405 	1.27596e-05 	-0.00055141 	0.262688
0.00421405 	1.27596e-05 	-0.00055141 	0.262688
0.00426421 	1.29826e-05 	-0.000551634 	0.263268
0.00426421 	1.29826e-05 	-0.000551634 	0.263268
0.00431438 	1.32046e-05 	-0.000551754 	0.263828
0.00431438 	1.32046e-05 	-0.000551754 	0.263828
0.00436455 	1.34262e-05 	-0.000551814 	0.264376
0.00436455 	1.34262e-05 	-0.000551814 	0.264376
0.00441472 	1.36473e-05 	-0.000551846 	0.264916
0.00441472 	1.36473e-05 	-0.000551846 	0.264916
0.00446488 	1.38667e-05 	-0.00055178 	0.265432
0.00446488 	1.38667e-05 	-0.00055178 	0.265432
0.00451505 	1.40862e-05 	-0.000551714 	0.265947
0.00451505 	1.40862e-05 	-0.000551714 	0.265947
0.00456522 	1.43034e-05 	-0.000551579 	0.266437
0.00456522 	1.43034e-05 	-0.000551579 	0.266437
0.00461538 	1.452e-05 	-0.000551425 	0.266919
0.00461538 	1.452e-05 	-0.000551425 	0.266919
0.00466555 	1.47356e-05 	-0.000551255 	0.267392
0.00471572 	1.49486e-05 	-0.000551047 	0.267842
0.00476589 	1.51617e-05 	-0.000550839 	0.268292
0.00476589 	1.51617e-05 	-0.000550839 	0.268292
0.00486622 	1.558e-05 	-0.000550388 	0.269135
0.00486622 	1.558e-05 	-0.000550388 	0.269135
0.00491639 	1.57878e-05 	-0.000550161 	0.269546
0.00496656 	1.59912e-05 	-0.000549942 	0.269931
0.00496656 	1.59912e-05 	-0.000549942 	0.269931
0.00501672 	1.61946e-05 	-0.000549724 	0.270315
0.00506689 	1.63946e-05 	-0.000549524 	0.270682
0.00511706 	1.65919e-05 	-0.00054934 	0.271034
0.00511706 	1.65919e-05 	-0.00054934 	0.271034
0.00521739 	1.69801e-05 	-0.000549019 	0.271709
0.00521739 	1.69801e-05 	-0.000549019 	0.271709
0.00526756 	1.71702e-05 	-0.00054889 	0.272029
0.00526756 	1.71702e-05 	-0.00054889 	0.272029
0.00531773 	1.7359e-05 	-0.000548771 	0.272343
0.00536789 	1.75408e-05 	-0.00054871 	0.272631
0.00536789 	1.75408e-05 	-0.00054871 	0.272631
0.00541806 	1.77226e-05 	-0.000548649 	0.272919
0.00546823 	1.79007e-05 	-0.000548617 	0.273194
0.00551839 	1.80728e-05 	-0.000548632 	0.27345
0.00551839 	1.80728e-05 	-0.000548632 	0.27345
0.00556856 	1.82449e-05 	-0.000548647 	0.273706
0.00556856 	1.82449e-05 	-0.000548647 	0.273706
0.0056689 	1.85711e-05 	-0.000548798 	0.27417
0.0056689 	1.85711e-05 	-0.000548798 	0.27417
0.00571906 	1.87316e-05 	-0.000548891 	0.274395
0.00576923 	1.88828e-05 	-0.000549034 	0.274599
0.00576923 	1.88828e-05 	-0.000549034 	0.274599
0.0058194 	1.90298e-05 	-0.000549199 	0.274794
0.0058194 	1.90298e-05 	-0.000549199 	0.274794
0.00591973 	1.93118e-05 	-0.000549577 	0.275162
0.00591973 	1.93118e-05 	-0.000549577 	0.275162
0.0059699 	1.94432e-05 	-0.000549803 	0.275327
0.0059699 	1.94432e-05 	-0.000549803 	0.275327
0.00602007 	1.95746e-05 	-0.000550029 	0.275493
0.00607023 	1.96922e-05 	-0.000550289 	0.275637
0.0061204 	1.98061e-05 	-0.000550559 	0.275775
0.0061204 	1.98061e-05 	-0.000550559 	0.275775
0.00617057 	1.99201e-05 	-0.000550829 	0.275912
0.00622074 	2.00195e-05 	-0.000551116 	0.276029
0.00622074 	2.00195e-05 	-0.000551116 	0.276029
0.0062709 	2.01143e-05 	-0.000551409 	0.27614
0.00632107 	2.02092e-05 	-0.000551702 	0.27625
0.00632107 	2.02092e-05 	-0.000551702 	0.27625
0.00637124 	2.02896e-05 	-0.000551996 	0.276343
0.00637124 	2.02896e-05 	-0.000551996 	0.276343
0.0064214 	2.03634e-05 	-0.000552289 	0.276427
0.0064214 	2.03634e-05 	-0.000552289 	0.276427
0.00647157 	2.04372e-05 	-0.000552583 	0.276511
0.00647157 	2.04372e-05 	-0.000552583 	0.276511
0.00652174 	2.04983e-05 	-0.000552881 	0.276581
0.00657191 	2.05487e-05 	-0.000553184 	0.27664
0.00657191 	2.05487e-05 	-0.000553184 	0.27664
0.00662207 	2.05991e-05 	-0.000553487 	0.276699
0.00667224 	2.06403e-05 	-0.000553777 	0.276748
0.00672241 	2.06644e-05 	-0.000554045 	0.276782
0.00672241 	2.06644e-05 	-0.000554045 	0.276782
0.00677258 	2.06886e-05 	-0.000554313 	0.276816
0.00682274 	2.07098e-05 	-0.000554572 	0.276847
0.00682274 	2.07098e-05 	-0.000554572 	0.276847
0.00687291 	2.07047e-05 	-0.000554751 	0.276856
0.00687291 	2.07047e-05 	-0.000554751 	0.276856
0.00692308 	2.06996e-05 	-0.000554931 	0.276865
0.00697324 	2.06946e-05 	-0.00055511 	0.276874
0.00702341 	2.06641e-05 	-0.000555243 	0.276864
0.00707358 	2.06269e-05 	-0.000555364 	0.276849
0.00707358 	2.06269e-05 	-0.000555364 	0.276849
0.00717391 	2.0539e-05 	-0.00055554 	0.276808
0.00717391 	2.0539e-05 	-0.00055554 	0.276808
0.00722408 	2.04698e-05 	-0.000555504 	0.276769
0.00722408 	2.04698e-05 	-0.000555504 	0.276769
0.00727425 	2.04005e-05 	-0.000555467 	0.276729
0.00727425 	2.04005e-05 	-0.000555467 	0.276729
0.00732441 	2.03313e-05 	-0.00055543 	0.27669
0.00732441 	2.03313e-05 	-0.00055543 	0.27669
0.00737458 	2.02334e-05 	-0.000555274 	0.276627
0.00737458 	2.02334e-05 	-0.000555274 	0.276627
0.00742475 	2.01352e-05 	-0.000555117 	0.276564
0.00747492 	2.0037e-05 	-0.000554959 	0.276501
0.00752508 	1.99242e-05 	-0.000554781 	0.276426
0.00752508 	1.99242e-05 	-0.000554781 	0.276426
0.00757525 	1.97969e-05 	-0.000554581 	0.276339
0.00762542 	1.96695e-05 	-0.000554381 	0.276253
0.00767559 	1.95419e-05 	-0.000554179 	0.276166
0.00767559 	1.95419e-05 	-0.000554179 	0.276166
0.00772575 	1.93854e-05 	-0.00055384 	0.276055
0.00777592 	1.92288e-05 	-0.0005535 	0.275944
0.00777592 	1.92288e-05 	-0.0005535 	0.275944
0.00782609 	1.90723e-05 	-0.00055316 	0.275833
0.00787625 	1.8899e-05 	-0.000552784 	0.275709
0.00787625 	1.8899e-05 	-0.000552784 	0.275709
0.00792642 	1.87134e-05 	-0.00055238 	0.275575
0.00797659 	1.85279e-05 	-0.000551976 	0.275441
0.00802676 	1.83362e-05 	-0.000551556 	0.275302
0.00802676 	1.83362e-05 	-0.000551556 	0.275302
0.00807692 	1.81217e-05 	-0.000551077 	0.275145
0.00807692 	1.81217e-05 	-0.000551077 	0.275145
0.00812709 	1.79071e-05 	-0.000550598 	0.274988
0.00817726 	1.76926e-05 	-0.000550118 	0.274831
0.00817726 	1.76926e-05 	-0.000550118 	0.274831
0.00822742 	1.74556e-05 	-0.000549502 	0.274654
0.00827759 	1.72161e-05 	-0.000548872 	0.274474
0.00827759 	1.72161e-05 	-0.000548872 	0.274474
0.00832776 	1.69767e-05 	-0.000548241 	0.274294
0.00832776 	1.69767e-05 	-0.000548241 	0.274294
0.00837793 	1.67235e-05 	-0.000547537 	0.2741
0.00842809 	1.6463e-05 	-0.000546793 	0.273897
0.00842809 	1.6463e-05 	-0.000546793 	0.273897
0.00847826 	1.62024e-05 	-0.000546049 	0.273694
0.00847826 	1.62024e-05 	-0.000546049 	0.273694
0.0085786 	1.56557e-05 	-0.000544397 	0.273256
0.0085786 	1.56557e-05 	-0.000544397 	0.273256
0.00862876 	1.53775e-05 	-0.000543541 	0.273031
0.00867893 	1.50947e-05 	-0.000542649 	0.272799
0.0087291 	1.4802e-05 	-0.000541682 	0.272551
0.00877926 	1.45093e-05 	-0.000540714 	0.272303
0.00882943 	1.42138e-05 	-0.000539721 	0.27205
0.0088796 	1.39093e-05 	-0.000538645 	0.27178
0.0088796 	1.39093e-05 	-0.000538645 	0.27178
0.00892977 	1.36049e-05 	-0.000537569 	0.27151
0.00892977 	1.36049e-05 	-0.000537569 	0.27151
0.00897993 	1.32985e-05 	-0.000536471 	0.271235
0.00897993 	1.32985e-05 	-0.000536471 	0.271235
0.0090301 	1.29848e-05 	-0.000535287 	0.270941
0.00908027 	1.26711e-05 	-0.000534104 	0.270648
0.00908027 	1.26711e-05 	-0.000534104 	0.270648
0.00913043 	1.23557e-05 	-0.000532896 	0.27035
0.0091806 	1.20349e-05 	-0.000531605 	0.270034
0.0091806 	1.20349e-05 	-0.000531605 	0.270034
0.00923077 	1.1714e-05 	-0.000530315 	0.269718
0.00928094 	1.13916e-05 	-0.000528991 	0.269395
0.00928094 	1.13916e-05 	-0.000528991 	0.269395
0.0093311 	1.10655e-05 	-0.000527594 	0.269056
0.00938127 	1.07395e-05 	-0.000526197 	0.268717
0.00938127 	1.07395e-05 	-0.000526197 	0.268717
0.00943144 	1.04119e-05 	-0.000524752 	0.268368
0.00943144 	1.04119e-05 	-0.000524752 	0.268368
0.00948161 	1.00823e-05 	-0.000523246 	0.268005
0.00948161 	1.00823e-05 	-0.000523246 	0.268005
0.00953177 	9.75266e-06 	-0.00052174 	0.267643
0.00953177 	9.75266e-06 	-0.00052174 	0.267643
0.00958194 	9.42176e-06 	-0.000520167 	0.267266
0.00958194 	9.42176e-06 	-0.000520167 	0.267266
0.00963211 	9.09005e-06 	-0.000518551 	0.26688
0.00968227 	8.75834e-06 	-0.000516936 	0.266494
0.00968227 	8.75834e-06 	-0.000516936 	0.266494
0.00973244 	8.42593e-06 	-0.000515225 	0.266088
0.00978261 	8.09339e-06 	-0.000513497 	0.265678
0.00978261 	8.09339e-06 	-0.000513497 	0.265678
0.00983278 	7.76088e-06 	-0.000511755 	0.265265
0.00983278 	7.76088e-06 	-0.000511755 	0.265265
0.00988294 	7.42862e-06 	-0.000509912 	0.26483
0.00993311 	7.09636e-06 	-0.000508068 	0.264396
0.00993311 	7.09636e-06 	-0.000508068 	0.264396
0.00998328 	6.76467e-06 	-0.000506171 	0.26395
0.0100334 	6.43368e-06 	-0.000504209 	0.263491
0.0100836 	6.10269e-06 	-0.000502246 	0.263031
0.0100836 	6.10269e-06 	-0.000502246 	0.263031
0.0101338 	5.77344e-06 	-0.000500181 	0.262551
0.0101839 	5.44457e-06 	-0.000498095 	0.262066
0.0101839 	5.44457e-06 	-0.000498095 	0.262066
0.0102341 	5.11639e-06 	-0.000495977 	0.261574
0.0102341 	5.11639e-06 	-0.000495977 	0.261574
0.0102843 	4.79038e-06 	-0.000493761 	0.261063
0.0103344 	4.46438e-06 	-0.000491544 	0.260552
0.0103344 	4.46438e-06 	-0.000491544 	0.260552
0.0103846 	4.14087e-06 	-0.000489232 	0.260021
0.0103846 	4.14087e-06 	-0.000489232 	0.260021
0.0104348 	3.8184e-06 	-0.00048688 	0.259483
0.0104348 	3.8184e-06 	-0.00048688 	0.259483
0.0104849 	3.49681e-06 	-0.000484497 	0.258939
0.0104849 	3.49681e-06 	-0.000484497 	0.258939
0.0105351 	3.17844e-06 	-0.000482001 	0.258373
0.0105853 	2.86007e-06 	-0.000479506 	0.257807
0.0105853 	2.86007e-06 	-0.000479506 	0.257807
0.0106856 	2.23151e-06 	-0.000474249 	0.256624
0.0106856 	2.23151e-06 	-0.000474249 	0.256624
0.0107358 	1.91962e-06 	-0.000471545 	0.256018
0.010786 	1.61096e-06 	-0.00046874 	0.255394
0.010786 	1.61096e-06 	-0.00046874 	0.255394
0.0108361 	1.30232e-06 	-0.000465934 	0.254769
0.0108863 	9.99201e-07 	-0.000462963 	0.254113
0.0108863 	9.99201e-07 	-0.000462963 	0.254113
0.0109365 	6.96078e-07 	-0.000459992 	0.253458
0.0109365 	6.96078e-07 	-0.000459992 	0.253458
0.0109866 	3.97057e-07 	-0.000456901 	0.25278
0.0110368 	9.99066e-08 	-0.000453755 	0.252093
0.0110368 	9.99066e-08 	-0.000453755 	0.252093
0.011087 	-1.94651e-07 	-0.000450531 	0.251392
0.011087 	-1.94651e-07 	-0.000450531 	0.251392
0.0111371 	-4.85445e-07 	-0.000447197 	0.250671
0.0111873 	-7.75107e-07 	-0.000443828 	0.249944
0.0111873 	-7.75107e-07 	-0.000443828 	0.249944
0.0112375 	-1.05921e-06 	-0.000440289 	0.249188
0.0112876 	-1.34332e-06 	-0.00043675 	0.248432
0.0112876 	-1.34332e-06 	-0.00043675 	0.248432
0.0113378 	-1.62061e-06 	-0.000432994 	0.24764
0.0113378 	-1.62061e-06 	-0.000432994 	0.24764
0.011388 	-1.89769e-06 	-0.000429232 	0.246847
0.0114381 	-2.16895e-06 	-0.000425263 	0.246021
0.0114381 	-2.16895e-06 	-0.000425263 	0.246021
0.0114883 	-2.43884e-06 	-0.000421246 	0.245188
0.0115385 	-2.70404e-06 	-0.000417026 	0.244325
0.0115385 	-2.70404e-06 	-0.000417026 	0.244325
0.0115886 	-2.96711e-06 	-0.000412713 	0.243448
0.0116388 	-3.22665e-06 	-0.000408192 	0.242542
0.0116388 	-3.22665e-06 	-0.000408192 	0.242542
0.011689 	-3.48386e-06 	-0.000403535 	0.241617
0.0117391 	-3.73831e-06 	-0.000398658 	0.240663
0.0117893 	-3.99055e-06 	-0.000393605 	0.239685
0.0118395 	-4.2401e-06 	-0.000388314 	0.238675
0.0118395 	-4.2401e-06 	-0.000388314 	0.238675
0.0118896 	-4.48738e-06 	-0.000382823 	0.237639
0.0119398 	-4.73144e-06 	-0.00037707 	0.236568
0.0119398 	-4.73144e-06 	-0.00037707 	0.236568
0.01199 	-4.97301e-06 	-0.000371114 	0.235469
0.0120401 	-5.21052e-06 	-0.000364861 	0.234329
0.0120401 	-5.21052e-06 	-0.000364861 	0.234329
0.0120903 	-5.44558e-06 	-0.000358428 	0.233162
0.0120903 	-5.44558e-06 	-0.000358428 	0.233162
0.0121906 	-5.90367e-06 	-0.000344732 	0.230707
0.0121906 	-5.90367e-06 	-0.000344732 	0.230707
0.0122408 	-6.12552e-06 	-0.000337405 	0.229405
0.012291 	-6.34621e-06 	-0.000330002 	0.22809
0.012291 	-6.34621e-06 	-0.000330002 	0.22809
0.0123411 	-6.5592e-06 	-0.000322114 	0.226694
0.0123913 	-6.77064e-06 	-0.000314134 	0.225282
0.0123913 	-6.77064e-06 	-0.000314134 	0.225282
0.0124415 	-6.97556e-06 	-0.000305768 	0.2238
0.0124415 	-6.97556e-06 	-0.000305768 	0.2238
0.0124916 	-7.17694e-06 	-0.00029721 	0.222279
0.0124916 	-7.17694e-06 	-0.00029721 	0.222279
0.0125418 	-7.37335e-06 	-0.000288383 	0.220706
0.012592 	-7.56375e-06 	-0.000279263 	0.219068
0.0126421 	-7.75118e-06 	-0.00027 	0.217398
0.0126421 	-7.75118e-06 	-0.00027 	0.217398
0.0126923 	-7.92955e-06 	-0.000260356 	0.215631
0.0127425 	-8.10476e-06 	-0.000250599 	0.213831
0.0127425 	-8.10476e-06 	-0.000250599 	0.213831
0.0127926 	-8.27262e-06 	-0.000240588 	0.211953
0.0128428 	-8.43392e-06 	-0.000230401 	0.210007
0.0128428 	-8.43392e-06 	-0.000230401 	0.210007
0.0129431 	-8.73708e-06 	-0.000209591 	0.205912
0.0129431 	-8.73708e-06 	-0.000209591 	0.205912
0.0129933 	-8.8782e-06 	-0.000199024 	0.203758
0.0130435 	-9.012e-06 	-0.000188375 	0.201528
0.0130435 	-9.012e-06 	-0.000188375 	0.201528
0.0131438 	-9.25233e-06 	-0.000166997 	0.196796
0.0131438 	-9.25233e-06 	-0.000166997 	0.196796
0.013194 	-9.35961e-06 	-0.000156336 	0.194302
0.0132441 	-9.45564e-06 	-0.000145773 	0.191698
0.0132441 	-9.45564e-06 	-0.000145773 	0.191698
0.0132943 	-9.54389e-06 	-0.0001353 	0.189018
0.0133445 	-9.62088e-06 	-0.000124979 	0.18623
0.0133445 	-9.62088e-06 	-0.000124979 	0.18623
0.0133946 	-9.68413e-06 	-0.000114899 	0.183309
0.0133946 	-9.68413e-06 	-0.000114899 	0.183309
0.0134448 	-9.73748e-06 	-0.000105014 	0.180294
0.0134448 	-9.73748e-06 	-0.000105014 	0.180294
0.013495 	-9.77984e-06 	-9.53555e-05 	0.177174
0.0135452 	-9.8038e-06 	-8.61232e-05 	0.173876
0.0135452 	-9.8038e-06 	-8.61232e-05 	0.173876
0.0135953 	-9.81561e-06 	-7.71967e-05 	0.170457
0.0135953 	-9.81561e-06 	-7.71967e-05 	0.170457
0.0136455 	-9.81444e-06 	-6.86026e-05 	0.166909
0.0136455 	-9.81444e-06 	-6.86026e-05 	0.166909
0.0136957 	-9.79695e-06 	-6.04375e-05 	0.163194
0.0136957 	-9.79695e-06 	-6.04375e-05 	0.163194
0.0137458 	-9.75893e-06 	-5.28116e-05 	0.159271
0.013796 	-9.70376e-06 	-4.56272e-05 	0.155175
0.013796 	-9.70376e-06 	-4.56272e-05 	0.155175
0.0138462 	-9.63002e-06 	-3.89138e-05 	0.150894
0.0138462 	-9.63002e-06 	-3.89138e-05 	0.150894
0.0138963 	-9.53613e-06 	-3.27008e-05 	0.146412
0.0139465 	-9.41345e-06 	-2.71746e-05 	0.141641
0.0139465 	-9.41345e-06 	-2.71746e-05 	0.141641
0.0139967 	-9.26651e-06 	-2.21946e-05 	0.136624
0.0139967 	-9.26651e-06 	-2.21946e-05 	0.136624
0.0140468 	-9.09417e-06 	-1.77593e-05 	0.131348
0.0140468 	-9.09417e-06 	-1.77593e-05 	0.131348
0.014097 	-8.89488e-06 	-1.3876e-05 	0.125791
0.0141472 	-8.66737e-06 	-1.05437e-05 	0.119929
0.0141472 	-8.66737e-06 	-1.05437e-05 	0.119929
0.0141973 	-8.41078e-06 	-7.74801e-06 	0.113738
0.0142475 	-8.11819e-06 	-5.52833e-06 	0.107116
0.0142977 	-7.78961e-06 	-3.75391e-06 	0.100083
0.0142977 	-7.78961e-06 	-3.75391e-06 	0.100083
0.0143478 	-7.41942e-06 	-2.38067e-06 	0.0926293
0.014398 	-7.00206e-06 	-1.37019e-06 	0.0847761
0.014398 	-7.00206e-06 	-1.37019e-06 	0.0847761
0.0144482 	-6.53369e-06 	-6.76238e-07 	0.0765828
0.0144983 	-6.01308e-06 	-2.43394e-07 	0.068154
0.0144983 	-6.01308e-06 	-2.43394e-07 	0.068154
0.0145485 	-5.44257e-06 	-9.8719e-09 	0.0596386
0.0145485 	-5.44257e-06 	-9.8719e-09 	0.0596386
0.0145987 	-4.82892e-06 	8.6331e-08 	0.0512142
0.0146488 	-4.18379e-06 	9.95411e-08 	0.0430578
0.014699 	-3.5234e-06 	7.06107e-08 	0.0353131
0.014699 	-3.5234e-06 	7.06107e-08 	0.0353131
0.0147492 	-2.86912e-06 	2.55686e-08 	0.028072
0.0147993 	-2.2527e-06 	-1.91997e-08 	0.0213767
0.0147993 	-2.2527e-06 	-1.91997e-08 	0.0213767
0.0148495 	-1.73215e-06 	-5.70858e-08 	0.0152351
0.0148495 	-1.73215e-06 	-5.70858e-08 	0.0152351
0.0148997 	-1.33429e-06 	-6.45623e-08 	0.00963782
0.0148997 	-1.33429e-06 	-6.45623e-08 	0.00963782
0.0149498 	-8.71221e-07 	-4.28668e-08 	0.00457134
0.0149498 	-8.71221e-07 	-4.28668e-08 	0.00457134
0.015 	0 	0 	0
0.015 	0 	0 	0
