-0.0075 	373
-0.00715932 	361.463
-0.00676191 	359.665
-0.00629832 	358.941
-0.00575752 	358.492
-0.00512667 	358.137
-0.00439077 	357.817
-0.00353231 	357.505
-0.00253089 	357.183
-0.00136271 	356.834
0 	356.448
0.00136271 	356.024
0.00253089 	355.579
0.00353231 	355.12
0.00439077 	354.633
0.00512667 	354.078
0.00575752 	353.374
0.00629832 	352.331
0.00676191 	350.086
0.00715932 	338.73
0.0075 	313
