0 	0 	0 	0
0 	-4.93452e-36 	-2.5553e-36 	1.85512e-31
5.01672e-05 	-5.14745e-07 	-2.81639e-07 	0.0173052
5.01672e-05 	-5.14745e-07 	-2.81639e-07 	0.0173052
0.000100334 	-1.38926e-06 	-9.38802e-07 	0.0332883
0.000150502 	-2.27302e-06 	-2.02111e-06 	0.0481202
0.000150502 	-2.27302e-06 	-2.02111e-06 	0.0481202
0.000200669 	-3.03896e-06 	-3.52229e-06 	0.0618886
0.000200669 	-3.03896e-06 	-3.52229e-06 	0.0618886
0.000250836 	-3.71006e-06 	-5.44351e-06 	0.0746711
0.000301003 	-4.30787e-06 	-7.77187e-06 	0.086533
0.000301003 	-4.30787e-06 	-7.77187e-06 	0.086533
0.000351171 	-4.83842e-06 	-1.0503e-05 	0.0975173
0.000401338 	-5.30522e-06 	-1.36432e-05 	0.107645
0.000451505 	-5.71114e-06 	-1.72154e-05 	0.116931
0.000451505 	-5.71114e-06 	-1.72154e-05 	0.116931
0.000501672 	-6.05868e-06 	-2.12558e-05 	0.125401
0.000551839 	-6.35041e-06 	-2.58017e-05 	0.133102
0.000551839 	-6.35041e-06 	-2.58017e-05 	0.133102
0.000602007 	-6.58923e-06 	-3.08818e-05 	0.140094
0.000602007 	-6.58923e-06 	-3.08818e-05 	0.140094
0.000652174 	-6.77871e-06 	-3.65166e-05 	0.146449
0.000652174 	-6.77871e-06 	-3.65166e-05 	0.146449
0.000702341 	-6.92298e-06 	-4.27232e-05 	0.152238
0.000702341 	-6.92298e-06 	-4.27232e-05 	0.152238
0.000752508 	-7.02636e-06 	-4.95154e-05 	0.157532
0.000802676 	-7.09254e-06 	-5.69063e-05 	0.162386
0.000852843 	-7.12033e-06 	-6.49897e-05 	0.166794
0.000852843 	-7.12033e-06 	-6.49897e-05 	0.166794
0.00090301 	-7.11886e-06 	-7.36397e-05 	0.170864
0.00090301 	-7.11886e-06 	-7.36397e-05 	0.170864
0.000953177 	-7.09135e-06 	-8.28068e-05 	0.174638
0.00100334 	-7.04076e-06 	-9.244e-05 	0.178151
0.00100334 	-7.04076e-06 	-9.244e-05 	0.178151
0.00105351 	-6.96978e-06 	-0.000102491 	0.181434
0.00105351 	-6.96978e-06 	-0.000102491 	0.181434
0.00110368 	-6.88036e-06 	-0.000112923 	0.184512
0.00115385 	-6.77066e-06 	-0.000123776 	0.187361
0.00120401 	-6.64779e-06 	-0.000134902 	0.19006
0.00120401 	-6.64779e-06 	-0.000134902 	0.19006
0.00130435 	-6.36832e-06 	-0.000157834 	0.195066
0.00130435 	-6.36832e-06 	-0.000157834 	0.195066
0.00135452 	-6.2115e-06 	-0.000169627 	0.197366
0.00135452 	-6.2115e-06 	-0.000169627 	0.197366
0.00140468 	-6.04574e-06 	-0.00018157 	0.199556
0.00145485 	-5.87313e-06 	-0.000193614 	0.201663
0.00145485 	-5.87313e-06 	-0.000193614 	0.201663
0.00150502 	-5.69427e-06 	-0.00020574 	0.203693
0.00150502 	-5.69427e-06 	-0.00020574 	0.203693
0.00155518 	-5.50653e-06 	-0.000217943 	0.205615
0.00155518 	-5.50653e-06 	-0.000217943 	0.205615
0.00160535 	-5.31384e-06 	-0.00023016 	0.207477
0.00160535 	-5.31384e-06 	-0.00023016 	0.207477
0.00165552 	-5.11682e-06 	-0.000242378 	0.209286
0.00165552 	-5.11682e-06 	-0.000242378 	0.209286
0.00170569 	-4.91418e-06 	-0.000254561 	0.211024
0.00170569 	-4.91418e-06 	-0.000254561 	0.211024
0.00175585 	-4.70741e-06 	-0.000266665 	0.212708
0.00175585 	-4.70741e-06 	-0.000266665 	0.212708
0.00180602 	-4.49792e-06 	-0.000278697 	0.214353
0.00180602 	-4.49792e-06 	-0.000278697 	0.214353
0.00185619 	-4.28474e-06 	-0.000290592 	0.215946
0.00185619 	-4.28474e-06 	-0.000290592 	0.215946
0.00190635 	-4.06867e-06 	-0.000302316 	0.217493
0.00190635 	-4.06867e-06 	-0.000302316 	0.217493
0.00195652 	-3.85086e-06 	-0.00031392 	0.219013
0.00195652 	-3.85086e-06 	-0.00031392 	0.219013
0.00200669 	-3.63029e-06 	-0.000325277 	0.220484
0.00200669 	-3.63029e-06 	-0.000325277 	0.220484
0.00205686 	-3.40803e-06 	-0.000336416 	0.221924
0.00210702 	-3.18467e-06 	-0.000347412 	0.223342
0.00210702 	-3.18467e-06 	-0.000347412 	0.223342
0.00215719 	-2.9591e-06 	-0.000357999 	0.224711
0.00220736 	-2.73286e-06 	-0.000368409 	0.226063
0.00225753 	-2.50554e-06 	-0.000378534 	0.227385
0.00225753 	-2.50554e-06 	-0.000378534 	0.227385
0.00230769 	-2.27725e-06 	-0.000388289 	0.228676
0.00230769 	-2.27725e-06 	-0.000388289 	0.228676
0.00235786 	-2.04856e-06 	-0.000397881 	0.229953
0.00235786 	-2.04856e-06 	-0.000397881 	0.229953
0.00240803 	-1.81897e-06 	-0.00040695 	0.231189
0.00240803 	-1.81897e-06 	-0.00040695 	0.231189
0.00245819 	-1.58918e-06 	-0.000415825 	0.232412
0.00245819 	-1.58918e-06 	-0.000415825 	0.232412
0.00250836 	-1.35899e-06 	-0.000424309 	0.233608
0.00250836 	-1.35899e-06 	-0.000424309 	0.233608
0.00255853 	-1.1286e-06 	-0.000432434 	0.23478
0.0026087 	-8.98082e-07 	-0.000440304 	0.235936
0.0026087 	-8.98082e-07 	-0.000440304 	0.235936
0.00265886 	-6.67467e-07 	-0.000447658 	0.23706
0.00270903 	-4.36829e-07 	-0.00045489 	0.238177
0.00270903 	-4.36829e-07 	-0.00045489 	0.238177
0.0027592 	-2.06186e-07 	-0.000461463 	0.239254
0.00280936 	2.44598e-08 	-0.00046793 	0.240326
0.00280936 	2.44598e-08 	-0.00046793 	0.240326
0.00285953 	2.55115e-07 	-0.000473829 	0.241365
0.00285953 	2.55115e-07 	-0.000473829 	0.241365
0.0029097 	4.85802e-07 	-0.000479535 	0.242394
0.0029097 	4.85802e-07 	-0.000479535 	0.242394
0.00295987 	7.16571e-07 	-0.000484756 	0.243394
0.00295987 	7.16571e-07 	-0.000484756 	0.243394
0.00301003 	9.47433e-07 	-0.000489726 	0.244381
0.0030602 	1.17845e-06 	-0.000494281 	0.245343
0.00311037 	1.40961e-06 	-0.000498559 	0.246289
0.00311037 	1.40961e-06 	-0.000498559 	0.246289
0.00316054 	1.64096e-06 	-0.000502477 	0.247214
0.00316054 	1.64096e-06 	-0.000502477 	0.247214
0.00326087 	2.10419e-06 	-0.000509444 	0.249007
0.00326087 	2.10419e-06 	-0.000509444 	0.249007
0.00331104 	2.33611e-06 	-0.000512525 	0.249877
0.0033612 	2.5683e-06 	-0.000515304 	0.250725
0.0033612 	2.5683e-06 	-0.000515304 	0.250725
0.00341137 	2.80085e-06 	-0.00051789 	0.251559
0.00341137 	2.80085e-06 	-0.00051789 	0.251559
0.00346154 	3.03398e-06 	-0.000520184 	0.252369
0.00346154 	3.03398e-06 	-0.000520184 	0.252369
0.00351171 	3.26764e-06 	-0.000522345 	0.253168
0.00356187 	3.50249e-06 	-0.000524215 	0.253941
0.00356187 	3.50249e-06 	-0.000524215 	0.253941
0.00361204 	3.73775e-06 	-0.000526014 	0.254707
0.00366221 	3.97475e-06 	-0.000527517 	0.255445
0.00366221 	3.97475e-06 	-0.000527517 	0.255445
0.00371237 	4.2118e-06 	-0.000529009 	0.256181
0.00371237 	4.2118e-06 	-0.000529009 	0.256181
0.00376254 	4.45058e-06 	-0.000530191 	0.256886
0.00376254 	4.45058e-06 	-0.000530191 	0.256886
0.00381271 	4.68937e-06 	-0.000531372 	0.25759
0.00381271 	4.68937e-06 	-0.000531372 	0.25759
0.00386288 	4.92893e-06 	-0.000532319 	0.258268
0.00391304 	5.16864e-06 	-0.000533219 	0.258941
0.00391304 	5.16864e-06 	-0.000533219 	0.258941
0.00396321 	5.40842e-06 	-0.000533972 	0.259594
0.00401338 	5.64824e-06 	-0.000534624 	0.260235
0.00401338 	5.64824e-06 	-0.000534624 	0.260235
0.00406355 	5.8879e-06 	-0.000535209 	0.260865
0.00406355 	5.8879e-06 	-0.000535209 	0.260865
0.00411371 	6.1272e-06 	-0.000535649 	0.261473
0.00411371 	6.1272e-06 	-0.000535649 	0.261473
0.00421405 	6.60466e-06 	-0.000536353 	0.262657
0.00421405 	6.60466e-06 	-0.000536353 	0.262657
0.00426421 	6.84282e-06 	-0.000536615 	0.263233
0.00426421 	6.84282e-06 	-0.000536615 	0.263233
0.00431438 	7.07981e-06 	-0.000536789 	0.263789
0.00431438 	7.07981e-06 	-0.000536789 	0.263789
0.00436455 	7.31612e-06 	-0.00053691 	0.264333
0.00436455 	7.31612e-06 	-0.00053691 	0.264333
0.00441472 	7.55183e-06 	-0.000537007 	0.264869
0.00441472 	7.55183e-06 	-0.000537007 	0.264869
0.00446488 	7.78551e-06 	-0.000537023 	0.26538
0.00446488 	7.78551e-06 	-0.000537023 	0.26538
0.00451505 	8.01919e-06 	-0.000537039 	0.265892
0.00451505 	8.01919e-06 	-0.000537039 	0.265892
0.00456522 	8.25013e-06 	-0.000537 	0.266378
0.00456522 	8.25013e-06 	-0.000537 	0.266378
0.00461538 	8.4803e-06 	-0.000536945 	0.266856
0.00461538 	8.4803e-06 	-0.000536945 	0.266856
0.00466555 	8.70916e-06 	-0.00053688 	0.267326
0.00471572 	8.93487e-06 	-0.000536789 	0.267772
0.00476589 	9.16057e-06 	-0.000536698 	0.268218
0.00476589 	9.16057e-06 	-0.000536698 	0.268218
0.00486622 	9.60247e-06 	-0.000536507 	0.269054
0.00486622 	9.60247e-06 	-0.000536507 	0.269054
0.00491639 	9.82163e-06 	-0.000536414 	0.269462
0.00496656 	1.00355e-05 	-0.00053634 	0.269844
0.00496656 	1.00355e-05 	-0.00053634 	0.269844
0.00501672 	1.02494e-05 	-0.000536265 	0.270225
0.00506689 	1.04593e-05 	-0.000536216 	0.270589
0.00511706 	1.06657e-05 	-0.000536187 	0.270938
0.00511706 	1.06657e-05 	-0.000536187 	0.270938
0.00521739 	1.10713e-05 	-0.000536184 	0.271609
0.00521739 	1.10713e-05 	-0.000536184 	0.271609
0.00526756 	1.12693e-05 	-0.000536218 	0.271926
0.00526756 	1.12693e-05 	-0.000536218 	0.271926
0.00531773 	1.14659e-05 	-0.000536264 	0.272238
0.00536789 	1.16544e-05 	-0.000536374 	0.272524
0.00536789 	1.16544e-05 	-0.000536374 	0.272524
0.00541806 	1.18429e-05 	-0.000536485 	0.272809
0.00546823 	1.20274e-05 	-0.000536627 	0.273083
0.00551839 	1.22053e-05 	-0.00053682 	0.273337
0.00551839 	1.22053e-05 	-0.00053682 	0.273337
0.00556856 	1.23833e-05 	-0.000537013 	0.273591
0.00556856 	1.23833e-05 	-0.000537013 	0.273591
0.0056689 	1.2721e-05 	-0.00053753 	0.274052
0.0056689 	1.2721e-05 	-0.00053753 	0.274052
0.00571906 	1.28873e-05 	-0.000537806 	0.274275
0.00576923 	1.30445e-05 	-0.000538136 	0.274478
0.00576923 	1.30445e-05 	-0.000538136 	0.274478
0.0058194 	1.31978e-05 	-0.000538489 	0.274672
0.0058194 	1.31978e-05 	-0.000538489 	0.274672
0.00591973 	1.34931e-05 	-0.000539247 	0.275037
0.00591973 	1.34931e-05 	-0.000539247 	0.275037
0.0059699 	1.36317e-05 	-0.000539665 	0.275202
0.0059699 	1.36317e-05 	-0.000539665 	0.275202
0.00602007 	1.37703e-05 	-0.000540084 	0.275367
0.00607023 	1.38959e-05 	-0.00054054 	0.27551
0.0061204 	1.40181e-05 	-0.000541007 	0.275647
0.0061204 	1.40181e-05 	-0.000541007 	0.275647
0.00617057 	1.41403e-05 	-0.000541473 	0.275785
0.00622074 	1.42487e-05 	-0.000541961 	0.275901
0.00622074 	1.42487e-05 	-0.000541961 	0.275901
0.0062709 	1.43527e-05 	-0.000542455 	0.276011
0.00632107 	1.44568e-05 	-0.00054295 	0.276122
0.00632107 	1.44568e-05 	-0.00054295 	0.276122
0.00637124 	1.45472e-05 	-0.00054345 	0.276214
0.00637124 	1.45472e-05 	-0.00054345 	0.276214
0.0064214 	1.46313e-05 	-0.000543952 	0.276298
0.0064214 	1.46313e-05 	-0.000543952 	0.276298
0.00647157 	1.47154e-05 	-0.000544455 	0.276382
0.00647157 	1.47154e-05 	-0.000544455 	0.276382
0.00652174 	1.47874e-05 	-0.000544945 	0.276452
0.00657191 	1.48494e-05 	-0.000545424 	0.276511
0.00657191 	1.48494e-05 	-0.000545424 	0.276511
0.00662207 	1.49113e-05 	-0.000545904 	0.27657
0.00667224 	1.49647e-05 	-0.000546372 	0.27662
0.00672241 	1.50022e-05 	-0.000546819 	0.276653
0.00672241 	1.50022e-05 	-0.000546819 	0.276653
0.00677258 	1.50398e-05 	-0.000547266 	0.276687
0.00682274 	1.50746e-05 	-0.000547709 	0.276718
0.00682274 	1.50746e-05 	-0.000547709 	0.276718
0.00687291 	1.50851e-05 	-0.000548118 	0.276728
0.00687291 	1.50851e-05 	-0.000548118 	0.276728
0.00692308 	1.50957e-05 	-0.000548527 	0.276737
0.00697324 	1.51062e-05 	-0.000548936 	0.276746
0.00702341 	1.50934e-05 	-0.00054929 	0.276736
0.00707358 	1.50743e-05 	-0.000549628 	0.276721
0.00707358 	1.50743e-05 	-0.000549628 	0.276721
0.00717391 	1.50224e-05 	-0.000550283 	0.27668
0.00717391 	1.50224e-05 	-0.000550283 	0.27668
0.00722408 	1.49704e-05 	-0.000550566 	0.276641
0.00722408 	1.49704e-05 	-0.000550566 	0.276641
0.00727425 	1.49185e-05 	-0.000550849 	0.276602
0.00727425 	1.49185e-05 	-0.000550849 	0.276602
0.00732441 	1.48665e-05 	-0.000551133 	0.276562
0.00732441 	1.48665e-05 	-0.000551133 	0.276562
0.00737458 	1.47793e-05 	-0.000551329 	0.276499
0.00737458 	1.47793e-05 	-0.000551329 	0.276499
0.00742475 	1.46917e-05 	-0.000551524 	0.276436
0.00747492 	1.46041e-05 	-0.000551719 	0.276372
0.00752508 	1.44985e-05 	-0.000551849 	0.276297
0.00752508 	1.44985e-05 	-0.000551849 	0.276297
0.00757525 	1.43748e-05 	-0.000551914 	0.276209
0.00762542 	1.42511e-05 	-0.000551978 	0.276122
0.00767559 	1.41271e-05 	-0.000552042 	0.276034
0.00767559 	1.41271e-05 	-0.000552042 	0.276034
0.00772575 	1.39684e-05 	-0.000551997 	0.275922
0.00777592 	1.38097e-05 	-0.000551952 	0.27581
0.00777592 	1.38097e-05 	-0.000551952 	0.27581
0.00782609 	1.3651e-05 	-0.000551907 	0.275699
0.00787625 	1.34747e-05 	-0.00055178 	0.275573
0.00787625 	1.34747e-05 	-0.00055178 	0.275573
0.00792642 	1.32856e-05 	-0.000551593 	0.275438
0.00797659 	1.30965e-05 	-0.000551406 	0.275303
0.00802676 	1.2902e-05 	-0.00055119 	0.275163
0.00802676 	1.2902e-05 	-0.00055119 	0.275163
0.00807692 	1.26872e-05 	-0.000550864 	0.275004
0.00807692 	1.26872e-05 	-0.000550864 	0.275004
0.00812709 	1.24724e-05 	-0.000550538 	0.274846
0.00817726 	1.22575e-05 	-0.000550212 	0.274688
0.00817726 	1.22575e-05 	-0.000550212 	0.274688
0.00822742 	1.20225e-05 	-0.000549786 	0.274509
0.00827759 	1.17853e-05 	-0.000549348 	0.274328
0.00827759 	1.17853e-05 	-0.000549348 	0.274328
0.00832776 	1.1548e-05 	-0.00054891 	0.274147
0.00832776 	1.1548e-05 	-0.00054891 	0.274147
0.00837793 	1.12983e-05 	-0.00054839 	0.273951
0.00842809 	1.10419e-05 	-0.000547826 	0.273747
0.00842809 	1.10419e-05 	-0.000547826 	0.273747
0.00847826 	1.07855e-05 	-0.000547263 	0.273543
0.00847826 	1.07855e-05 	-0.000547263 	0.273543
0.0085786 	1.02493e-05 	-0.000545954 	0.273103
0.0085786 	1.02493e-05 	-0.000545954 	0.273103
0.00862876 	9.97684e-06 	-0.000545266 	0.272876
0.00867893 	9.70016e-06 	-0.000544538 	0.272643
0.0087291 	9.41445e-06 	-0.000543726 	0.272394
0.00877926 	9.12874e-06 	-0.000542914 	0.272145
0.00882943 	8.84052e-06 	-0.000542074 	0.271891
0.0088796 	8.54415e-06 	-0.000541139 	0.27162
0.0088796 	8.54415e-06 	-0.000541139 	0.27162
0.00892977 	8.24778e-06 	-0.000540204 	0.271348
0.00892977 	8.24778e-06 	-0.000540204 	0.271348
0.00897993 	7.94968e-06 	-0.000539244 	0.271072
0.00897993 	7.94968e-06 	-0.000539244 	0.271072
0.0090301 	7.64496e-06 	-0.000538188 	0.270778
0.00908027 	7.34024e-06 	-0.000537131 	0.270484
0.00908027 	7.34024e-06 	-0.000537131 	0.270484
0.00913043 	7.03406e-06 	-0.000536046 	0.270185
0.0091806 	6.72305e-06 	-0.000534868 	0.269868
0.0091806 	6.72305e-06 	-0.000534868 	0.269868
0.00923077 	6.41204e-06 	-0.000533689 	0.269551
0.00928094 	6.09964e-06 	-0.000532473 	0.269228
0.00928094 	6.09964e-06 	-0.000532473 	0.269228
0.0093311 	5.78415e-06 	-0.000531173 	0.268888
0.00938127 	5.46866e-06 	-0.000529873 	0.268548
0.00938127 	5.46866e-06 	-0.000529873 	0.268548
0.00943144 	5.1519e-06 	-0.00052852 	0.268198
0.00943144 	5.1519e-06 	-0.00052852 	0.268198
0.00948161 	4.83351e-06 	-0.000527097 	0.267836
0.00948161 	4.83351e-06 	-0.000527097 	0.267836
0.00953177 	4.51512e-06 	-0.000525675 	0.267473
0.00953177 	4.51512e-06 	-0.000525675 	0.267473
0.00958194 	4.1958e-06 	-0.000524176 	0.267095
0.00958194 	4.1958e-06 	-0.000524176 	0.267095
0.00963211 	3.87591e-06 	-0.00052263 	0.266709
0.00968227 	3.55601e-06 	-0.000521084 	0.266323
0.00968227 	3.55601e-06 	-0.000521084 	0.266323
0.00973244 	3.23589e-06 	-0.000519431 	0.265916
0.00978261 	2.91573e-06 	-0.000517759 	0.265506
0.00978261 	2.91573e-06 	-0.000517759 	0.265506
0.00983278 	2.59568e-06 	-0.000516071 	0.265092
0.00983278 	2.59568e-06 	-0.000516071 	0.265092
0.00988294 	2.27636e-06 	-0.000514271 	0.264658
0.00993311 	1.95705e-06 	-0.00051247 	0.264223
0.00993311 	1.95705e-06 	-0.00051247 	0.264223
0.00998328 	1.63854e-06 	-0.00051061 	0.263777
0.0100334 	1.32104e-06 	-0.000508678 	0.263318
0.0100836 	1.00353e-06 	-0.000506745 	0.262858
0.0100836 	1.00353e-06 	-0.000506745 	0.262858
0.0101338 	6.88226e-07 	-0.0005047 	0.262378
0.0101839 	3.73393e-07 	-0.000502631 	0.261893
0.0101839 	3.73393e-07 	-0.000502631 	0.261893
0.0102341 	5.93992e-08 	-0.000500528 	0.261402
0.0102341 	5.93992e-08 	-0.000500528 	0.261402
0.0102843 	-2.51987e-07 	-0.000498317 	0.260891
0.0103344 	-5.63374e-07 	-0.000496106 	0.26038
0.0103344 	-5.63374e-07 	-0.000496106 	0.26038
0.0103846 	-8.7183e-07 	-0.000493791 	0.25985
0.0103846 	-8.7183e-07 	-0.000493791 	0.25985
0.0104348 	-1.17908e-06 	-0.000491433 	0.259312
0.0104348 	-1.17908e-06 	-0.000491433 	0.259312
0.0104849 	-1.48529e-06 	-0.000489041 	0.258768
0.0104849 	-1.48529e-06 	-0.000489041 	0.258768
0.0105351 	-1.78778e-06 	-0.000486528 	0.258203
0.0105853 	-2.09027e-06 	-0.000484016 	0.257637
0.0105853 	-2.09027e-06 	-0.000484016 	0.257637
0.0106856 	-2.68582e-06 	-0.000478705 	0.256456
0.0106856 	-2.68582e-06 	-0.000478705 	0.256456
0.0107358 	-2.98084e-06 	-0.000475969 	0.255851
0.010786 	-3.27218e-06 	-0.000473126 	0.255227
0.010786 	-3.27218e-06 	-0.000473126 	0.255227
0.0108361 	-3.56348e-06 	-0.000470282 	0.254604
0.0108863 	-3.84851e-06 	-0.000467264 	0.25395
0.0108863 	-3.84851e-06 	-0.000467264 	0.25395
0.0109365 	-4.13354e-06 	-0.000464246 	0.253295
0.0109365 	-4.13354e-06 	-0.000464246 	0.253295
0.0109866 	-4.41393e-06 	-0.000461101 	0.252619
0.0110368 	-4.69219e-06 	-0.000457899 	0.251933
0.0110368 	-4.69219e-06 	-0.000457899 	0.251933
0.011087 	-4.96749e-06 	-0.000454616 	0.251233
0.011087 	-4.96749e-06 	-0.000454616 	0.251233
0.0111371 	-5.2385e-06 	-0.000451218 	0.250514
0.0111873 	-5.50818e-06 	-0.000447784 	0.249789
0.0111873 	-5.50818e-06 	-0.000447784 	0.249789
0.0112375 	-5.77139e-06 	-0.000444175 	0.249035
0.0112876 	-6.0346e-06 	-0.000440566 	0.248281
0.0112876 	-6.0346e-06 	-0.000440566 	0.248281
0.0113378 	-6.28976e-06 	-0.000436734 	0.247491
0.0113378 	-6.28976e-06 	-0.000436734 	0.247491
0.011388 	-6.54468e-06 	-0.000432894 	0.246701
0.0114381 	-6.79258e-06 	-0.000428846 	0.245878
0.0114381 	-6.79258e-06 	-0.000428846 	0.245878
0.0114883 	-7.03883e-06 	-0.000424749 	0.245048
0.0115385 	-7.27885e-06 	-0.000420447 	0.244188
0.0115385 	-7.27885e-06 	-0.000420447 	0.244188
0.0115886 	-7.51605e-06 	-0.000416053 	0.243314
0.0116388 	-7.74756e-06 	-0.000411452 	0.242412
0.0116388 	-7.74756e-06 	-0.000411452 	0.242412
0.011689 	-7.97531e-06 	-0.000406716 	0.241491
0.0117391 	-8.1978e-06 	-0.000401763 	0.240541
0.0117893 	-8.41606e-06 	-0.000396635 	0.239568
0.0118395 	-8.62926e-06 	-0.000391272 	0.238564
0.0118395 	-8.62926e-06 	-0.000391272 	0.238564
0.0118896 	-8.8382e-06 	-0.00038571 	0.237533
0.0119398 	-9.04194e-06 	-0.000379888 	0.236467
0.0119398 	-9.04194e-06 	-0.000379888 	0.236467
0.01199 	-9.24167e-06 	-0.000373865 	0.235374
0.0120401 	-9.43559e-06 	-0.000367547 	0.23424
0.0120401 	-9.43559e-06 	-0.000367547 	0.23424
0.0120903 	-9.626e-06 	-0.000361051 	0.23308
0.0120903 	-9.626e-06 	-0.000361051 	0.23308
0.0121906 	-9.99022e-06 	-0.000347234 	0.230638
0.0121906 	-9.99022e-06 	-0.000347234 	0.230638
0.0122408 	-1.01624e-05 	-0.000339852 	0.229342
0.012291 	-1.0333e-05 	-0.000332393 	0.228035
0.012291 	-1.0333e-05 	-0.000332393 	0.228035
0.0123411 	-1.04929e-05 	-0.000324453 	0.226646
0.0123913 	-1.06506e-05 	-0.000316422 	0.225241
0.0123913 	-1.06506e-05 	-0.000316422 	0.225241
0.0124415 	-1.07993e-05 	-0.000308007 	0.223766
0.0124415 	-1.07993e-05 	-0.000308007 	0.223766
0.0124916 	-1.0943e-05 	-0.000299402 	0.222253
0.0124916 	-1.0943e-05 	-0.000299402 	0.222253
0.0125418 	-1.10798e-05 	-0.000290527 	0.220687
0.012592 	-1.12082e-05 	-0.000281361 	0.219057
0.0126421 	-1.13324e-05 	-0.000272051 	0.217395
0.0126421 	-1.13324e-05 	-0.000272051 	0.217395
0.0126923 	-1.14441e-05 	-0.000262359 	0.215636
0.0127425 	-1.15513e-05 	-0.000252553 	0.213843
0.0127425 	-1.15513e-05 	-0.000252553 	0.213843
0.0127926 	-1.16483e-05 	-0.00024249 	0.211973
0.0128428 	-1.17361e-05 	-0.000232247 	0.210035
0.0128428 	-1.17361e-05 	-0.000232247 	0.210035
0.0129431 	-1.18847e-05 	-0.000211316 	0.205956
0.0129431 	-1.18847e-05 	-0.000211316 	0.205956
0.0129933 	-1.19444e-05 	-0.000200682 	0.203809
0.0130435 	-1.19939e-05 	-0.000189962 	0.201588
0.0130435 	-1.19939e-05 	-0.000189962 	0.201588
0.0131438 	-1.2055e-05 	-0.000168425 	0.196872
0.0131438 	-1.2055e-05 	-0.000168425 	0.196872
0.013194 	-1.20678e-05 	-0.000157678 	0.194386
0.0132441 	-1.20651e-05 	-0.000147024 	0.191791
0.0132441 	-1.20651e-05 	-0.000147024 	0.191791
0.0132943 	-1.20519e-05 	-0.000136456 	0.189119
0.0133445 	-1.20234e-05 	-0.000126037 	0.186339
0.0133445 	-1.20234e-05 	-0.000126037 	0.186339
0.0133946 	-1.19764e-05 	-0.000115857 	0.183428
0.0133946 	-1.19764e-05 	-0.000115857 	0.183428
0.0134448 	-1.19163e-05 	-0.00010587 	0.180422
0.0134448 	-1.19163e-05 	-0.00010587 	0.180422
0.013495 	-1.18414e-05 	-9.61089e-05 	0.17731
0.0135452 	-1.17421e-05 	-8.67734e-05 	0.174022
0.0135452 	-1.17421e-05 	-8.67734e-05 	0.174022
0.0135953 	-1.16263e-05 	-7.77443e-05 	0.170613
0.0135953 	-1.16263e-05 	-7.77443e-05 	0.170613
0.0136455 	-1.1493e-05 	-6.90487e-05 	0.167074
0.0136455 	-1.1493e-05 	-6.90487e-05 	0.167074
0.0136957 	-1.13378e-05 	-6.07843e-05 	0.163371
0.0136957 	-1.13378e-05 	-6.07843e-05 	0.163371
0.0137458 	-1.1156e-05 	-5.30621e-05 	0.159458
0.013796 	-1.09529e-05 	-4.5785e-05 	0.155374
0.013796 	-1.09529e-05 	-4.5785e-05 	0.155374
0.0138462 	-1.07273e-05 	-3.89832e-05 	0.151103
0.0138462 	-1.07273e-05 	-3.89832e-05 	0.151103
0.0138963 	-1.04779e-05 	-3.26876e-05 	0.146631
0.0139465 	-1.01957e-05 	-2.70884e-05 	0.14187
0.0139465 	-1.01957e-05 	-2.70884e-05 	0.14187
0.0139967 	-9.88688e-06 	-2.20441e-05 	0.136863
0.0139967 	-9.88688e-06 	-2.20441e-05 	0.136863
0.0140468 	-9.55089e-06 	-1.7554e-05 	0.131594
0.0140468 	-9.55089e-06 	-1.7554e-05 	0.131594
0.014097 	-9.1867e-06 	-1.36267e-05 	0.126044
0.0141472 	-8.7932e-06 	-1.02622e-05 	0.120188
0.0141472 	-8.7932e-06 	-1.02622e-05 	0.120188
0.0141973 	-8.36924e-06 	-7.44665e-06 	0.114
0.0142475 	-7.90853e-06 	-5.2225e-06 	0.107381
0.0142977 	-7.41597e-06 	-3.45849e-06 	0.100346
0.0142977 	-7.41597e-06 	-3.45849e-06 	0.100346
0.0143478 	-6.89431e-06 	-2.11044e-06 	0.0928852
0.014398 	-6.34866e-06 	-1.13917e-06 	0.0850164
0.014398 	-6.34866e-06 	-1.13917e-06 	0.0850164
0.0144482 	-5.78621e-06 	-4.95418e-07 	0.076798
0.0144983 	-5.21583e-06 	-1.185e-07 	0.0683343
0.0144983 	-5.21583e-06 	-1.185e-07 	0.0683343
0.0145485 	-4.64728e-06 	5.97149e-08 	0.0597759
0.0145485 	-4.64728e-06 	5.97149e-08 	0.0597759
0.0145987 	-4.08949e-06 	1.08352e-07 	0.051304
0.0146488 	-3.54861e-06 	8.90278e-08 	0.0431007
0.014699 	-3.02644e-06 	4.82745e-08 	0.035315
0.014699 	-3.02644e-06 	4.82745e-08 	0.035315
0.0147492 	-2.51945e-06 	1.44539e-08 	0.0280429
0.0147993 	-2.01668e-06 	-1.48415e-09 	0.0213292
0.0147993 	-2.01668e-06 	-1.48415e-09 	0.0213292
0.0148495 	-1.49212e-06 	1.63299e-09 	0.0151838
0.0148495 	-1.49212e-06 	1.63299e-09 	0.0151838
0.0148997 	-9.25581e-07 	8.41107e-09 	0.00959755
0.0148997 	-9.25581e-07 	8.41107e-09 	0.00959755
0.0149498 	-3.83244e-07 	1.01721e-08 	0.00455066
0.0149498 	-3.83244e-07 	1.01721e-08 	0.00455066
0.015 	0 	0 	0
0.015 	0 	0 	0
