/*--------------------------------*- C++ -*----------------------------------*\
| =========                 |                                                 |
| \\      /  F ield         | OpenFOAM: The Open Source CFD Toolbox           |
|  \\    /   O peration     | Version:  v1906                                 |
|   \\  /    A nd           | Web:      www.OpenFOAM.com                      |
|    \\/     M anipulation  |                                                 |
\*---------------------------------------------------------------------------*/
FoamFile
{
    version     2.0;
    format      ascii;
    class       volScalarField;
    location    "97.2";
    object      omega;
}
// * * * * * * * * * * * * * * * * * * * * * * * * * * * * * * * * * * * * * //

dimensions      [0 0 -1 0 0 0 0];


internalField   nonuniform List<scalar> 
2528
(
156509
156509
156509
156509
28679.8
26745.4
28714.4
28183.5
10006.1
9149.1
10012
9778.13
4776.81
4351.56
4762.86
4698.39
2756.96
2501.78
2733.65
2744.92
1814.28
1625.42
1788.01
1830.04
1312.3
1150.16
1286.01
1338.97
1015.34
866.37
990.719
1045.79
823.638
683.965
801.538
854.852
690.69
559.627
671.465
721.397
593.127
470.677
576.744
622.791
518.243
404.473
504.585
546.623
458.566
353.595
447.458
485.621
409.593
313.488
400.75
435.382
368.591
281.23
361.673
393.121
333.794
254.87
328.451
356.988
303.975
233.051
299.879
325.693
278.235
214.775
275.081
298.305
255.887
199.305
253.401
274.13
236.389
186.108
234.33
252.628
219.301
174.785
217.465
233.375
204.264
165.023
202.476
216.036
190.979
156.579
189.09
200.298
179.131
149.262
177.068
185.966
168.52
142.891
166.204
172.858
158.979
137.247
156.342
160.775
150.37
132.144
147.378
149.498
142.576
127.466
139.24
138.864
135.496
123.128
131.85
128.791
129.023
119.073
125.112
119.424
123.078
115.254
118.947
110.919
117.604
111.636
113.319
103.232
112.57
108.188
108.23
96.1912
107.973
104.884
103.659
89.6874
103.847
101.705
99.4474
83.6781
100.226
98.635
95.0752
78.1223
96.9873
95.6659
90.2428
72.973
93.5228
92.7969
85.5379
68.1832
89.0065
90.038
81.5266
63.7138
83.938
87.4127
78.1234
59.5419
79.5788
84.9646
75.1548
55.674
76.1218
82.7682
72.6364
52.1345
73.2386
80.8963
70.7092
48.9281
70.7152
79.3307
69.5934
46.0389
68.5226
77.7801
69.4867
43.4469
66.6961
75.5086
70.2368
41.1307
65.2956
72.2346
70.2737
39.0688
64.419
69.0679
65.0306
37.2399
64.2413
66.6006
58.6485
35.6237
64.9442
64.6522
54.3532
34.2002
66.3966
63.0196
51.0015
32.9502
67.2575
61.6787
47.9836
31.8552
62.2399
60.682
45.1793
30.8985
55.9524
60.1366
42.5802
30.0642
51.769
60.2148
40.1908
29.3388
48.5151
61.1219
38.0001
28.711
45.5752
63.0323
35.9679
28.1715
42.822
65.7395
34.0565
27.7127
40.2598
66.5175
32.2879
27.3282
37.8894
61.1557
30.7159
27.0132
35.6888
55.6683
29.3398
26.7945
33.6227
52.1686
28.129
26.6666
31.6456
49.405
27.0543
26.627
29.822
46.8431
26.0923
26.6685
28.2647
44.3994
25.2275
26.7922
26.9797
42.2047
24.4506
26.9995
25.9323
40.2983
23.7523
27.2956
25.1014
38.6511
23.1256
27.688
24.4733
37.2534
22.5654
28.187
24.042
36.1109
22.0682
28.8468
23.8115
35.2447
21.6315
29.6964
23.7956
34.6983
21.2534
30.7744
24.0193
34.5507
20.9331
32.069
24.5289
34.8886
20.6697
33.5069
25.3179
35.8945
20.4622
35.0979
26.311
37.8876
20.3208
36.9008
27.5272
40.7684
20.2466
39.0782
29.0536
45.2085
20.235
42.0249
30.9069
44.965
20.2927
46.9258
156508
156508
156509
156509
26889.2
26927.1
26964.8
27006.4
9099.62
9130.79
9169.01
9200.77
4319.63
4338.31
4389.92
4403.14
2489.92
2497.67
2565.12
2562.56
1627.91
1628.33
1707.33
1694.94
1163.51
1160.02
1244.71
1227.46
888.581
883.567
968.607
950.058
713.557
708.574
789.999
772.327
595.271
591.213
666.577
650.848
511.163
508.475
576.606
563.1
448.717
447.58
508.194
496.722
400.634
401.126
454.323
444.612
362.41
364.633
410.618
402.468
331.098
335.216
374.304
367.475
304.79
310.918
343.546
337.734
282.285
290.384
317.075
311.981
262.76
272.686
293.986
289.344
245.602
257.165
273.614
269.204
230.346
243.342
255.459
251.108
216.639
230.86
239.138
234.719
204.211
219.446
224.351
219.781
192.862
208.891
210.863
206.076
182.433
199.026
198.49
193.438
172.817
189.756
187.085
181.732
163.933
181.068
176.54
170.848
155.698
172.946
166.765
160.69
147.994
165.326
157.679
151.168
140.669
158.144
149.187
142.287
133.607
151.342
141.169
133.981
126.757
144.876
133.487
126.191
120.246
138.707
126.026
118.864
114.305
132.81
118.763
111.958
109.055
127.17
111.822
105.428
104.432
121.773
105.422
99.2813
100.337
116.606
99.7478
93.5051
96.6378
111.656
94.6826
88.0807
92.7963
106.908
90.0522
82.9855
87.9842
102.35
85.69
78.1976
82.2406
97.9799
81.2754
73.6973
76.761
93.8007
76.6236
69.4675
72.2043
89.8163
72.0253
65.4937
68.3853
86.0291
67.9117
61.7635
65.0311
82.4426
64.3661
58.2651
62.0771
79.0502
61.2102
54.9854
59.5817
75.8325
58.2823
51.9102
57.5987
72.77
55.5498
49.0302
56.0314
69.841
53.0067
46.3478
54.1657
67.0209
50.6403
43.8774
50.7496
64.2857
48.4314
41.6484
46.9221
61.6228
46.362
39.6915
44.0296
59.0205
44.4186
37.9994
41.7898
56.4732
42.5894
36.5227
39.7896
53.9936
40.8642
35.2143
37.8838
51.6264
39.2343
34.0543
36.1414
49.4592
37.6922
33.036
34.6314
47.5398
36.2318
32.1541
33.302
45.8577
34.8465
31.4037
32.1093
44.3422
33.5282
30.7667
31.023
42.9601
32.2741
30.2488
30.0252
41.6844
31.0914
29.8078
29.1016
40.4951
29.9774
29.4346
28.2429
39.3824
28.9297
29.1102
27.4433
38.3404
27.9452
28.8148
26.6986
37.3539
27.0229
28.5247
26.0056
36.3646
26.1617
28.2827
25.361
35.3206
25.3597
28.1215
24.7614
34.26
24.6149
28.0678
24.2051
33.2536
23.9261
28.1362
23.695
32.3099
23.2954
28.3287
23.2384
31.3967
22.7266
28.6252
22.8439
30.4885
22.2165
28.9961
22.5164
29.5713
21.771
29.3914
22.2553
28.6474
21.3959
29.7267
22.0558
27.7107
21.0978
29.8609
21.918
26.7785
20.874
29.7231
21.8581
25.8709
20.7271
29.4621
21.9015
25.0451
20.6618
29.1881
22.0781
24.3622
20.6809
28.9666
156509
156508
156509
156509
26840.6
27102.1
26815.6
27279.9
9105.69
9252.42
9076.56
9420.8
4373.31
4414.56
4336.84
4574.36
2576.65
2544.79
2533.65
2703.62
1737.58
1660.2
1691.21
1819.72
1287.32
1185.54
1241.41
1343.25
1018.69
907.758
976.403
1059.74
843.719
733.849
807.06
876.606
721.006
618.362
690.872
749.595
629.568
537.398
606.125
656.036
558.093
477.721
540.991
583.625
500.178
431.715
488.806
525.207
451.945
394.907
445.572
476.452
410.897
364.484
408.774
434.667
375.373
338.609
376.782
398.123
344.207
316.074
348.487
365.68
316.569
296.051
323.134
336.563
291.855
277.977
300.198
310.225
269.616
261.464
279.299
286.259
249.519
246.208
260.169
264.356
231.305
231.994
242.557
244.27
214.75
218.636
226.207
225.801
199.613
205.954
210.902
208.781
185.613
193.971
196.494
193.077
172.507
182.773
183.085
178.573
160.244
172.346
170.931
165.176
149.039
162.721
160.237
152.801
138.983
153.848
151.089
141.331
130.052
145.562
143.257
130.671
122.322
137.643
136.257
120.821
115.562
130.01
129.303
111.806
109.38
122.794
121.513
103.62
103.297
116.122
113.203
96.1863
96.8221
110.063
105.311
89.3995
90.4374
104.678
98.2347
83.2009
84.6156
99.8797
92.0629
77.5235
79.4191
95.4072
86.6644
72.3059
74.8941
90.9402
81.8448
67.4629
70.8618
86.4835
77.4796
62.9068
67.1748
82.2368
73.5002
58.5821
63.7788
78.3048
69.8375
54.5226
60.6383
74.7386
66.4369
50.8362
57.7274
71.4939
63.2772
47.5581
55.0256
68.5286
60.3379
44.6586
52.5152
65.8224
57.6003
42.1062
50.1808
63.3506
55.0541
39.8702
48.0087
61.0767
52.6824
37.9216
45.987
58.9744
50.4701
36.234
44.1042
57.0297
48.4033
34.7841
42.3483
55.2295
46.4694
33.5519
40.7059
53.5606
44.6152
32.5213
39.1651
52.0098
42.8225
31.6801
37.7177
50.5636
41.0827
31.0206
36.3591
49.2088
39.3813
30.5395
35.0864
47.9162
37.7121
30.2392
33.8985
46.6669
36.1079
30.1291
32.7962
45.4489
34.5814
30.2208
31.7816
44.2509
33.1263
30.5487
30.861
43.061
31.7482
31.1144
29.9798
41.8813
30.445
31.9746
29.1161
40.725
29.2159
33.3676
28.2819
39.5892
28.0766
34.7916
27.4841
38.4738
27.0253
36.0618
26.7286
37.3803
26.0601
34.6685
26.0222
36.3103
25.1815
33.8352
25.3698
35.2668
24.3903
33.3407
24.7758
34.2567
23.6873
33.3443
24.2438
33.2857
23.0719
34.002
23.7753
32.36
22.5413
35.2704
23.3717
31.4851
22.0912
37.0002
23.0351
30.6666
21.7292
39.475
22.7686
29.9082
21.4495
42.8053
22.5739
29.2152
21.2428
47.1879
22.465
28.5893
21.1012
48.8122
22.4431
28.0215
21.0241
43.3565
22.5056
27.5059
21.0237
39.3646
22.6594
27.0362
21.1072
36.818
22.9087
26.6024
21.2852
34.9243
156509
156509
156509
156509
25762.4
25852.9
27086.6
26023.5
8883.6
8905.43
9282.06
8893.63
4279.35
4288.28
4479.84
4293.41
2492.74
2508.4
2635.67
2526.54
1641.96
1666.25
1765.8
1688.92
1179.99
1210.1
1295.91
1233.47
904.908
937.175
1014.83
960.135
728.962
760.231
831.941
782.744
609.436
637.458
704.123
659.789
523.806
547.221
609.292
569.67
459.487
477.673
535.554
500.497
409.128
422.026
476.141
445.415
368.286
376.152
426.92
400.301
334.196
337.461
385.235
362.507
305.068
304.249
349.36
330.234
279.701
275.395
318.118
302.255
257.282
250.134
290.679
277.715
237.238
227.929
266.439
255.992
219.158
208.39
244.94
236.621
202.751
191.224
225.831
219.238
187.839
176.203
208.843
203.556
174.305
163.107
193.78
189.408
162.142
151.71
180.4
176.584
151.237
141.663
168.464
164.91
141.469
132.66
157.768
154.24
132.715
124.581
148.125
144.445
124.862
117.321
139.388
135.42
117.808
110.785
131.442
127.074
111.463
104.891
124.193
119.331
105.751
99.5646
117.566
112.13
100.603
94.7421
111.494
105.471
95.9616
90.3658
105.92
99.2883
91.7805
86.3847
100.789
93.527
88.009
82.7545
96.0503
88.1414
84.5721
79.4367
91.659
83.0862
81.3993
76.3979
87.5804
78.3362
78.4225
73.6099
83.7896
73.8718
75.6083
71.0484
80.2679
69.6778
72.9564
68.6925
76.9985
65.7467
70.4652
66.5233
73.9674
62.08
68.1361
64.5244
71.1621
58.6691
65.9635
62.6826
68.5514
55.4987
63.9406
60.987
66.1115
52.5588
62.0616
59.4295
63.8111
49.8366
60.3204
58.0073
61.606
47.3188
58.7101
56.6788
59.4335
44.9932
57.2207
55.4358
57.2372
42.8482
55.8264
54.2899
55.0583
40.8729
54.4879
53.2201
52.9537
39.0566
53.1555
52.2149
50.9509
37.3888
51.7503
51.2745
49.1397
35.8598
50.1807
50.3999
47.4961
34.4597
48.4741
49.5892
45.8633
33.1797
46.6999
48.8358
44.074
32.0108
44.8874
48.1245
41.8602
30.9442
43.052
47.4233
39.7273
29.9703
41.2059
46.6663
37.7322
29.0796
39.3722
45.7496
35.7
28.2759
37.5978
44.5948
33.872
27.5653
35.9393
43.2789
32.2655
26.9607
34.4012
41.8868
30.8156
26.4499
32.9712
40.4551
29.4798
25.9956
31.644
39.0257
28.2408
25.5965
30.4103
37.6331
27.0936
25.2541
29.2654
36.292
26.036
24.9804
28.2105
35.0114
25.0681
24.7929
27.2406
33.7964
24.1928
24.7126
26.3641
32.6686
23.4127
24.7561
25.5911
31.6572
22.7265
24.8851
24.9115
30.7825
22.1321
25.1115
24.3199
30.0626
21.6288
25.4452
23.8272
29.5129
21.2204
25.89
23.4575
29.1412
20.912
26.4377
23.2112
28.9427
20.7105
27.0655
23.103
28.8829
20.6236
27.7463
23.1372
28.8867
20.6578
28.4489
23.3013
28.8316
20.822
29.1162
23.5712
28.4951
21.1241
29.6521
34.5906
39.6356
20.4219
46.1632
36.3965
36.5234
20.6275
41.3749
33.5697
34.2511
20.9014
38.2651
31.6706
32.3922
21.2401
36.0486
30.4217
30.8486
21.6428
34.6556
29.9029
29.5822
22.1086
33.8829
29.7078
28.5295
22.6382
33.6107
29.7988
27.6421
23.2352
33.684
30.1526
26.9232
23.8998
34.0244
30.7074
26.4349
24.6304
34.5653
31.4128
26.1707
25.423
35.2589
32.235
26.1007
26.2741
36.0708
33.1505
26.1946
27.1836
36.9752
34.1407
26.4404
28.1554
37.9514
35.1906
26.8129
29.1885
38.9892
36.2894
27.2925
30.2829
40.0821
37.4318
27.859
31.4397
41.2268
38.6168
28.4837
32.6606
42.4226
39.8455
29.1068
33.9482
43.6702
41.1197
29.6483
35.3065
44.972
42.4448
30.1153
36.7407
46.335
43.8286
30.5726
38.2552
47.7656
45.2787
31.0745
39.8512
49.2657
46.803
31.664
41.5276
50.835
48.4105
32.3749
43.2851
52.4744
50.1101
33.2381
45.1382
54.1874
51.91
34.2857
47.1062
55.9797
53.8259
35.5526
49.2133
57.859
55.8671
37.0783
51.4881
59.8351
58.0444
38.9075
53.9611
61.9201
60.3696
41.0872
56.6594
64.1533
62.8558
43.6342
59.5933
66.5716
65.517
46.4222
62.7796
69.1894
68.3687
49.339
66.2325
72.0221
71.4275
52.4164
69.9601
75.0798
74.7109
55.6967
73.9688
78.3659
78.2438
59.1938
78.2834
81.8815
82.0597
62.9123
83.1198
85.6313
86.1945
66.9226
88.7999
89.6321
90.6782
71.3079
95.2223
93.9291
95.5689
76.1286
101.74
98.5767
100.977
81.4374
107.893
103.582
107.044
87.2834
113.873
108.882
113.84
93.6971
120.188
114.425
121.232
100.696
127.198
120.273
128.96
108.346
135.086
126.568
136.916
117.091
143.841
133.434
145.228
127.456
153.286
140.951
154.131
139.402
163.282
149.213
163.819
152.513
173.818
158.298
174.395
166.165
184.975
168.209
185.907
180.192
196.865
178.855
198.403
195.099
209.601
190.135
211.973
211.473
223.302
202.054
226.757
229.668
238.098
214.731
242.916
249.74
254.152
228.343
260.618
271.615
271.676
243.085
280.06
295.315
290.879
259.126
301.5
320.988
311.945
276.775
325.289
348.888
335.148
296.493
351.906
379.385
360.897
318.948
382.019
412.99
389.789
345.118
416.587
450.428
422.702
376.375
457.031
492.769
460.944
414.614
505.535
541.663
506.422
462.585
565.553
599.795
562.274
524.384
642.321
671.67
633.483
606.131
743.882
764.606
727.85
717.077
883.284
890.53
858.025
871.471
1081.94
1069.44
1045.16
1092.01
1375.59
1336.18
1324.9
1416.64
1826.33
1753.01
1759.25
1912.29
2550.69
2436.5
2464.02
2705.65
3789.86
3626.33
3678.46
4058.28
6109.25
5883.32
5964.37
6576.19
11074.8
10763.8
10881.3
11909
24199.4
23766.3
23932.8
25749.5
73774.5
73202.8
73423.1
76656.9
439448
439448
439448
439448
22.4223
23.8489
20.7912
28.8562
22.9366
23.5252
21.003
28.8858
23.6167
23.382
21.3073
29.0361
24.409
23.4064
21.6963
29.2973
25.2641
23.5891
22.1623
29.6597
26.1731
23.9336
22.698
30.1143
27.1223
24.4213
23.2964
30.6521
28.097
25.0179
23.9515
31.2651
29.0863
25.7622
24.6587
31.946
30.0789
26.6396
25.4149
32.6886
31.0691
27.6457
26.2186
33.4876
32.0683
28.7918
27.0695
34.3387
33.1044
30.0872
27.9681
35.2381
34.1706
31.535
28.9152
36.1832
35.2607
33.1319
29.9123
37.1714
36.3878
34.8715
30.961
38.2012
37.5643
37.0645
32.0632
39.2712
38.795
40.3652
33.2208
40.3809
40.0836
44.2892
34.4356
41.5299
41.4335
44.7684
35.7101
42.7187
42.8492
42.8102
37.0484
43.9481
44.3354
41.3018
38.4544
45.2196
45.896
40.4195
39.9321
46.5353
47.5356
40.0985
41.4861
47.8975
49.2563
40.199
43.1214
49.3087
51.0607
40.6212
44.8428
50.7715
52.9542
41.3063
46.6559
52.2882
54.9277
42.2205
48.5669
53.8612
56.99
43.3422
50.5825
55.4933
59.1492
44.6575
52.7099
57.1881
61.4093
46.1576
54.9574
58.9502
63.7745
47.8389
57.3344
60.7887
66.2531
49.7018
59.8513
62.7138
68.8615
51.7505
62.52
64.7852
71.6357
53.9928
65.3565
67.02
74.6055
56.4211
68.3801
69.4239
77.7828
59.0541
71.6084
72.0065
81.1787
61.9123
75.0602
74.7811
84.8062
65.0143
78.7565
77.7638
88.6805
68.3821
82.7212
80.9746
92.8206
72.0411
86.9792
84.437
97.2516
76.0207
91.5555
88.1782
102.007
80.355
96.4961
92.2294
107.127
85.0835
101.872
96.626
112.659
90.2526
107.766
101.408
118.649
95.9167
114.252
106.621
125.141
102.141
121.426
112.318
132.177
109.006
129.386
118.559
139.804
116.61
138.216
125.422
148.072
125.061
147.989
133.002
157.04
134.481
158.785
141.409
166.781
145.013
170.694
150.76
177.363
156.833
183.822
161.191
188.854
170.15
198.292
172.851
201.339
185.201
214.247
185.911
214.931
202.351
231.844
200.555
229.776
221.936
251.26
216.972
246.068
244.121
272.706
235.421
264.069
268.918
296.437
256.13
284.144
296.319
322.776
279.363
306.801
326.523
352.155
305.559
332.763
360.052
385.166
335.404
363.112
397.776
422.647
369.94
399.391
441.01
465.825
410.761
443.823
491.734
516.609
460.212
499.829
553.158
577.954
521.717
572.667
630.143
654.19
600.511
670.363
730.401
751.788
704.785
805.158
866.384
880.9
847.377
995.984
1058.7
1057.27
1049
1273.32
1342.01
1305.41
1343.96
1689.87
1777.47
1665.71
1792.31
2344.92
2479.67
2213.32
2507.42
3447.34
3684.99
3112.76
3724.27
5498.14
5944.93
4788
5992.47
9917.4
10777
8534.93
10825.7
21804.5
23476.4
19296.6
23504.9
67628.7
70820.3
63707.7
70721.6
439448
439448
439448
439448
23.2822
26.2266
21.5696
33.491
23.8054
25.8989
21.9554
32.5048
24.4389
25.5855
22.4087
31.9094
25.215
25.296
22.9225
31.6402
26.1343
25.0427
23.4901
31.6341
27.1849
24.8372
24.1029
31.8472
28.3774
24.6919
24.7512
32.2441
29.7021
24.6215
25.4238
32.7947
31.3205
24.6334
26.1109
33.4718
32.9307
24.7404
26.8136
34.2562
34.0365
24.9185
27.5482
35.1331
34.6506
25.1661
28.33
36.0875
35.3692
25.4806
29.1717
37.1094
35.5059
25.8582
30.0814
38.1917
35.8521
26.2924
31.0639
39.3274
36.4928
26.7671
32.1227
40.5154
37.3445
27.2693
33.2604
41.7576
38.3798
27.8098
34.4787
43.056
39.5754
28.4022
35.7776
44.4111
40.9174
29.062
37.1561
45.8213
42.3971
29.8055
38.6129
47.2784
44.0087
30.6471
40.145
48.7846
45.7476
31.5987
41.7503
50.3468
47.6098
32.6696
43.4303
51.9741
49.5926
33.868
45.1904
53.6743
51.6947
35.2003
47.0389
55.4539
53.9148
36.6691
48.9836
57.3231
56.256
38.2718
51.0294
59.2868
58.7199
40.0019
53.1781
61.3517
61.3095
41.8418
55.4296
63.5249
64.0248
43.7811
57.7846
65.8119
66.8708
45.8425
60.2458
68.2157
69.8561
48.0517
62.8181
70.7406
72.9899
50.4343
65.508
73.3383
76.2835
53.0135
68.3237
76.0136
79.7499
55.8173
71.2748
78.8053
83.4054
58.8631
74.3757
81.7527
87.2695
62.1667
77.6483
84.8701
91.365
65.7403
81.1106
88.1657
95.7316
69.5944
84.7759
91.6478
100.391
73.7365
88.6615
95.3297
105.331
78.1682
92.7892
99.2247
110.554
82.8867
97.1925
103.351
116.097
87.8903
101.899
107.73
122.029
93.1978
106.94
112.39
128.426
98.8566
112.357
117.368
135.352
104.934
118.197
122.708
142.861
111.511
124.519
128.457
151.003
118.68
131.397
134.667
159.843
126.537
138.998
141.431
169.464
135.189
147.503
148.853
179.971
144.755
157.03
157.028
191.484
155.368
167.726
166.065
204.141
167.18
179.772
176.085
218.098
180.37
193.383
187.218
233.528
195.352
208.816
199.615
250.674
212.428
226.354
213.408
269.782
231.931
246.285
228.786
291.17
254.234
268.938
246.008
315.257
279.751
294.719
265.434
342.567
309.022
324.104
287.594
373.844
342.678
357.747
313.293
410.142
381.493
396.529
343.738
453.001
426.514
441.712
380.679
504.646
479.247
495.175
426.634
568.508
541.795
559.85
485.314
650.105
617.52
640.47
562.276
758.627
711.929
745.024
665.916
909.546
834.623
887.862
809.144
1128.88
1002.86
1095.49
1012.52
1461.71
1248.73
1416.89
1309.42
1986.97
1632.25
1942.37
1759.06
2851.71
2268.84
2841.25
2473.88
4350.71
3396.54
4446.34
3687.99
7142.39
5571.05
7472.55
5950.36
12951.1
10338.6
13707.3
10775
27541.6
23187.7
28913.1
23446.9
79306
72483.7
81129.9
70674.9
439448
439448
439448
439448
23.8925
27.8623
21.5672
29.9277
24.1703
27.2492
22.1541
29.9919
24.3277
26.7486
22.869
30.0105
24.4541
26.3573
23.6747
30.0817
24.6259
26.1043
24.5892
30.2499
24.8864
26.0043
25.6105
30.5329
25.2521
26.0553
26.6882
30.9342
25.7299
26.2633
27.8877
31.4486
26.3189
26.6345
28.783
32.0692
27.0136
27.1769
29.3179
32.7893
27.8071
27.9281
29.9235
33.6023
28.6897
28.8916
30.6426
34.5027
29.6467
30.0773
31.5605
35.4873
30.6524
31.476
32.6605
36.5546
31.6951
33.1848
33.8978
37.7093
32.784
34.4605
35.2567
38.9627
33.9224
34.5636
36.7674
40.3339
35.1138
34.777
38.4569
41.8651
36.365
35.1967
40.2366
43.5619
37.6866
35.8861
42.052
45.3591
39.0856
36.9187
44.0015
47.0972
40.568
38.2627
46.0652
48.504
42.1442
39.9141
48.1652
49.7515
43.8229
41.8519
50.2597
51.0645
45.6029
44.1046
52.326
52.5485
47.4833
46.7914
54.5118
54.2502
49.4698
49.8168
56.9252
56.1559
51.5688
52.9738
59.6262
58.2742
53.7881
56.5728
62.5989
60.6296
56.1377
59.6113
65.7464
63.2746
58.6318
60.7913
68.9937
66.2574
61.2899
62.1755
72.3307
69.5639
64.1285
63.9564
75.7746
73.0637
67.1522
66.2752
79.35
76.2398
70.3664
69.2248
83.0785
78.8876
73.7775
72.7246
86.9771
81.4698
77.3881
76.7827
91.0598
84.3038
81.2114
81.4548
95.34
87.5389
85.2621
86.7777
99.8287
91.2421
89.5538
92.8402
104.533
95.4368
94.1033
99.7284
109.459
100.115
98.9272
107.325
114.641
105.282
104.041
115.241
120.124
110.837
109.459
122.243
125.934
116.547
115.192
127.904
132.101
122.349
121.256
133.419
138.661
128.386
127.679
139.599
145.656
134.858
134.501
146.811
153.134
141.929
141.774
155.224
161.15
149.699
149.562
164.834
169.689
158.167
157.939
175.584
178.746
167.303
166.991
187.442
188.412
177.127
176.82
200.26
198.794
187.7
187.548
213.855
210.019
199.121
199.308
228.301
222.241
211.508
212.249
243.575
235.648
224.993
226.556
259.907
250.467
239.742
242.462
277.549
266.969
255.976
260.271
296.777
285.497
273.988
280.384
317.943
306.49
294.182
303.339
341.547
330.531
317.11
329.884
368.292
358.403
343.515
361.09
399.177
391.203
374.467
398.526
435.668
430.506
411.495
444.474
479.98
478.563
456.839
502.3
535.469
538.516
514.008
577.22
607.531
615.252
588.547
677.495
704.789
716.643
689.205
816.295
840.974
855.532
829.839
1014.82
1038
1052.97
1032.34
1308.08
1331.63
1344.31
1332.39
1757.32
1783.44
1791.29
1791.62
2477.64
2509.13
2509.77
2525.74
3708.51
3748.53
3739.94
3775.08
6013.14
6065.03
6045.68
6104.11
10953.9
11020.6
10990.4
11077
24039.2
24120.9
24084.1
24203.4
73569.2
73658
73625.9
73771.8
439448
439448
439448
439448
)
;

boundaryField
{
    leftWall
    {
        type            omegaWallFunction;
        Cmu             0.09;
        kappa           0.41;
        E               9.8;
        beta1           0.075;
        blended         true;
        value           nonuniform List<scalar> 
16
(
156509
156508
156509
156509
156509
156508
156508
156509
156509
156509
156509
156509
156509
156509
156509
156509
)
;
    }
    rightWall
    {
        type            omegaWallFunction;
        Cmu             0.09;
        kappa           0.41;
        E               9.8;
        beta1           0.075;
        blended         true;
        value           uniform 439448;
    }
    leftSides_periodic0
    {
        type            cyclic;
    }
    leftSides_periodic1
    {
        type            cyclic;
    }
    rightSides_periodic0
    {
        type            cyclic;
    }
    rightSides_periodic1
    {
        type            cyclic;
    }
    leftInOut_periodic0
    {
        type            cyclic;
    }
    leftInOut_periodic1
    {
        type            cyclic;
    }
    rightInOut_periodic0
    {
        type            cyclic;
    }
    rightInOut_periodic1
    {
        type            cyclic;
    }
}


// ************************************************************************* //
