/*--------------------------------*- C++ -*----------------------------------*\
| =========                 |                                                 |
| \\      /  F ield         | OpenFOAM: The Open Source CFD Toolbox           |
|  \\    /   O peration     | Version:  v1912                                 |
|   \\  /    A nd           | Website:  www.openfoam.com                      |
|    \\/     M anipulation  |                                                 |
\*---------------------------------------------------------------------------*/
FoamFile
{
    version     2.0;
    format      ascii;
    class       volSymmTensorField;
    location    "97.2";
    object      turbulenceProperties:R;
}
// * * * * * * * * * * * * * * * * * * * * * * * * * * * * * * * * * * * * * //

dimensions      [0 2 -2 0 0 0 0];


internalField   nonuniform List<symmTensor> 
2528
(
(2.20888e-06 -4.61969e-10 -3.72477e-12 2.20865e-06 1.00842e-08 2.20888e-06)
(8.67573e-07 1.8013e-10 -3.91007e-14 8.67575e-07 2.53973e-09 8.67572e-07)
(1.92072e-06 4.04196e-10 3.23618e-12 1.92072e-06 8.39355e-09 1.92072e-06)
(2.51123e-06 -2.34648e-10 1.11436e-13 2.51124e-06 1.17454e-08 2.51123e-06)
(5.23357e-07 -7.88252e-10 -1.41038e-11 5.23496e-07 9.46404e-09 5.23354e-07)
(1.83053e-07 1.00965e-10 -3.02333e-13 1.83052e-07 2.08833e-09 1.83045e-07)
(4.35855e-07 6.58311e-10 1.17216e-11 4.3586e-07 7.30937e-09 4.35856e-07)
(6.27599e-07 6.11161e-11 9.77795e-13 6.27622e-07 1.25625e-08 6.276e-07)
(1.56206e-06 -6.55887e-09 -1.99039e-10 1.56323e-06 6.93551e-08 1.56199e-06)
(4.18385e-07 3.02383e-10 -5.48423e-12 4.18374e-07 1.16207e-08 4.183e-07)
(1.23426e-06 5.19731e-09 1.57037e-10 1.23433e-06 4.96534e-08 1.23423e-06)
(1.91948e-06 2.03749e-09 2.34483e-11 1.91987e-06 9.76568e-08 1.91952e-06)
(5.25544e-06 -4.01715e-08 -1.92592e-09 5.24423e-06 4.78411e-07 5.25467e-06)
(1.3565e-06 2.23459e-09 -6.42373e-11 1.35633e-06 7.98309e-08 1.35573e-06)
(4.13802e-06 3.1865e-08 1.52113e-09 4.13869e-06 3.43884e-07 4.13753e-06)
(6.32746e-06 1.2448e-08 2.76314e-10 6.33136e-06 6.47039e-07 6.32798e-06)
(1.28874e-05 -1.50527e-07 -1.02653e-08 1.29268e-05 1.97796e-06 1.28835e-05)
(3.35724e-06 1.1372e-08 -3.80742e-10 3.35596e-06 3.41943e-07 3.3532e-06)
(1.01942e-05 1.20452e-07 8.17781e-09 1.01979e-05 1.44721e-06 1.01915e-05)
(1.52422e-05 4.04694e-08 1.56734e-09 1.52612e-05 2.55317e-06 1.52454e-05)
(2.55202e-05 -4.0948e-07 -3.65927e-08 2.54677e-05 5.5721e-06 2.55075e-05)
(6.81127e-06 3.52059e-08 -1.47895e-09 6.806e-06 1.01482e-06 6.79674e-06)
(2.02521e-05 3.31523e-07 2.94796e-08 2.02646e-05 4.15267e-06 2.02425e-05)
(2.95971e-05 1.0661e-07 5.67194e-09 2.96619e-05 6.94264e-06 2.96094e-05)
(4.33748e-05 -8.79965e-07 -9.85715e-08 4.33802e-05 1.20884e-05 4.33429e-05)
(1.20473e-05 8.09132e-08 -4.33059e-09 1.20307e-05 2.36683e-06 1.20068e-05)
(3.46726e-05 7.21999e-07 8.04043e-08 3.47052e-05 9.18763e-06 3.46476e-05)
(4.9496e-05 2.37259e-07 1.51658e-08 4.96633e-05 1.46518e-05 4.95312e-05)
(6.60688e-05 -1.58294e-06 -2.16752e-07 6.60487e-05 2.17407e-05 6.60036e-05)
(1.92743e-05 1.51565e-07 -1.03531e-08 1.9232e-05 4.65162e-06 1.91803e-05)
(5.32139e-05 1.31655e-06 1.78985e-07 5.32834e-05 1.68528e-05 5.31601e-05)
(7.41407e-05 4.54838e-07 3.26836e-08 7.44956e-05 2.57607e-05 7.42217e-05)
(9.24144e-05 -2.48106e-06 -4.09567e-07 9.23987e-05 3.39989e-05 9.2299e-05)
(2.85387e-05 2.41947e-07 -2.12417e-08 2.84463e-05 8.02842e-06 2.83494e-05)
(7.50495e-05 2.091e-06 3.4199e-07 7.51772e-05 2.68447e-05 7.49493e-05)
(0.000101987 7.66322e-07 6.00509e-08 0.000102639 3.94989e-05 0.000102145)
(0.000120871 -3.48266e-06 -6.89419e-07 0.000120829 4.78648e-05 0.000120688)
(3.97031e-05 3.37149e-07 -3.87113e-08 3.95247e-05 1.24947e-05 3.93622e-05)
(9.89509e-05 2.97361e-06 5.8112e-07 9.916e-05 3.83892e-05 9.87832e-05)
(0.000131135 1.15121e-06 9.78553e-08 0.000132204 5.46108e-05 0.000131407)
(0.00014981 -4.46953e-06 -1.06148e-06 0.000149772 6.23466e-05 0.00014954)
(5.24625e-05 4.15717e-07 -6.42716e-08 5.21509e-05 1.78741e-05 5.19008e-05)
(0.000123581 3.86043e-06 9.01639e-07 0.000123895 5.06305e-05 0.000123322)
(0.000159766 1.5709e-06 1.45601e-07 0.000161368 6.9929e-05 0.000160192)
(0.000177868 -5.35342e-06 -1.52558e-06 0.00017787 7.67436e-05 0.000177497)
(6.64006e-05 4.57345e-07 -9.90482e-08 6.58991e-05 2.38756e-05 6.55406e-05)
(0.000147729 4.65839e-06 1.30332e-06 0.00014817 6.29543e-05 0.000147356)
(0.000186474 1.99543e-06 2.02127e-07 0.000188715 8.46476e-05 0.000187091)
(0.000204188 -6.10751e-06 -2.07993e-06 0.00020425 9.04497e-05 0.000203701)
(8.10697e-05 4.5029e-07 -1.43492e-07 8.03143e-05 3.01942e-05 7.98299e-05)
(0.000170485 5.33226e-06 1.78282e-06 0.000171071 7.48862e-05 0.000169976)
(0.000210534 2.41571e-06 2.65866e-07 0.000213509 9.81982e-05 0.000211377)
(0.000228341 -6.72904e-06 -2.72204e-06 0.00022846 0.000102783 0.000227727)
(9.60594e-05 3.93998e-07 -1.97134e-07 9.49819e-05 3.65845e-05 9.43588e-05)
(0.000191427 5.88498e-06 2.33704e-06 0.000192169 8.58255e-05 0.000190762)
(0.000231622 2.78375e-06 3.29226e-07 0.000235353 0.000108397 0.000232707)
(0.000250077 -7.20469e-06 -3.44712e-06 0.000250255 0.000113406 0.000249328)
(0.00011104 2.98947e-07 -2.59224e-07 0.00010957 4.29122e-05 0.000108802)
(0.000210269 6.30954e-06 2.96069e-06 0.000211171 9.53145e-05 0.000209428)
(0.00024962 3.13099e-06 3.94869e-07 0.000254158 0.00011692 0.00025097)
(0.000269359 -7.52616e-06 -4.24926e-06 0.000269636 0.000122433 0.00026847)
(0.000125766 1.82664e-07 -3.28733e-07 0.000123832 4.91588e-05 0.000122923)
(0.000226926 6.60027e-06 3.64746e-06 0.000227991 0.000103398 0.000225894)
(0.000264573 3.45004e-06 4.62291e-07 0.000269961 0.000124036 0.000266212)
(0.000286298 -7.69827e-06 -5.12122e-06 0.000286708 0.000130069 0.000285268)
(0.000140069 5.84413e-08 -4.04471e-07 0.000137597 5.53405e-05 0.000136564)
(0.000241447 6.76206e-06 4.39022e-06 0.000242675 0.000110248 0.000240211)
(0.00027661 3.73468e-06 5.30527e-07 0.000282885 0.000129804 0.000278559)
(0.000301076 -7.73028e-06 -6.05485e-06 0.000301635 0.000136496 0.000299903)
(0.000153839 -7.19275e-08 -4.85163e-07 0.000150761 6.14262e-05 0.000149626)
(0.000253947 6.80573e-06 5.18121e-06 0.000255332 0.000115988 0.000252498)
(0.000285913 3.98176e-06 5.98556e-07 0.000293097 0.000134299 0.000288189)
(0.000313896 -7.63527e-06 -7.04163e-06 0.000314621 0.000141889 0.000312585)
(0.000167024 -2.13689e-07 -5.69786e-07 0.000163278 6.72593e-05 0.000162068)
(0.00026458 6.74583e-06 6.01285e-06 0.000266112 0.000120717 0.000262911)
(0.000292689 4.19016e-06 6.6571e-07 0.000300792 0.000137635 0.000295307)
(0.000324966 -7.42378e-06 -8.07384e-06 0.000325873 0.000146459 0.000323523)
(0.000179592 -3.67039e-07 -6.57323e-07 0.000175121 7.27678e-05 0.000173873)
(0.000273512 6.59291e-06 6.87845e-06 0.000275177 0.000124612 0.00027162)
(0.000297158 4.36283e-06 7.31578e-07 0.000306179 0.000139899 0.000300129)
(0.000334482 -7.11167e-06 -9.14259e-06 0.000335582 0.000150398 0.000332918)
(0.000191536 -5.21309e-07 -7.46839e-07 0.000186285 7.80592e-05 0.000185045)
(0.000280905 6.35811e-06 7.77043e-06 0.000282686 0.000127801 0.00027879)
(0.000299534 4.50509e-06 7.96119e-07 0.00030947 0.000141179 0.000302867)
(0.000342619 -6.71273e-06 -1.02384e-05 0.000343919 0.000153777 0.000340948)
(0.000202864 -6.67193e-07 -8.37714e-07 0.000196781 8.31801e-05 0.000195605)
(0.000286912 6.04738e-06 8.68113e-06 0.000288789 0.00013044 0.000284577)
(0.000300033 4.61764e-06 8.59634e-07 0.00031088 0.000141579 0.000303735)
(0.00034953 -6.23265e-06 -1.13513e-05 0.000351032 0.000156668 0.000347772)
(0.000213582 -8.01999e-07 -9.28787e-07 0.000206632 8.81576e-05 0.00020557)
(0.00029166 5.67005e-06 9.60258e-06 0.000293616 0.000132677 0.000289114)
(0.000298872 4.68405e-06 9.20957e-07 0.00031062 0.000141213 0.000302946)
(0.000355346 -5.69369e-06 -1.24769e-05 0.000357047 0.000159207 0.000353523)
(0.000223703 -9.23021e-07 -1.01915e-06 0.000215856 9.30534e-05 0.000214963)
(0.000295254 5.25081e-06 1.0528e-05 0.000297269 0.000134491 0.000292505)
(0.000296271 4.66642e-06 9.77291e-07 0.000308861 0.000140188 0.000300704)
(0.000360181 -5.10644e-06 -1.36092e-05 0.000362074 0.000161387 0.000358314)
(0.00023324 -1.02929e-06 -1.10829e-06 0.000224469 9.78936e-05 0.000223803)
(0.000297787 4.8184e-06 1.14529e-05 0.000299838 0.000135619 0.000294847)
(0.00029242 4.53283e-06 1.02436e-06 0.000305694 0.000138549 0.000297177)
(0.000364127 -4.47144e-06 -1.47449e-05 0.000366217 0.000163255 0.000362235)
(0.000242201 -1.1295e-06 -1.19784e-06 0.000232483 0.000102682 0.000232102)
(0.000299365 4.38809e-06 1.2375e-05 0.00030142 0.000135763 0.000296243)
(0.000287404 4.3199e-06 1.0624e-06 0.000301143 0.000136328 0.000292439)
(0.000367275 -3.80654e-06 -1.5879e-05 0.000369536 0.000164856 0.000365381)
(0.000250592 -1.23983e-06 -1.2905e-06 0.000239911 0.000107325 0.000239863)
(0.000300108 3.92926e-06 1.32902e-05 0.000302141 0.00013533 0.000296814)
(0.000281139 4.16788e-06 1.10269e-06 0.000295264 0.000133506 0.000286445)
(0.000369702 -3.10814e-06 -1.69983e-05 0.000372092 0.000166207 0.000367835)
(0.000258417 -1.37129e-06 -1.38634e-06 0.000246764 0.000111618 0.000247089)
(0.000300136 3.38607e-06 1.41863e-05 0.000302138 0.000135061 0.000296682)
(0.000273452 4.24781e-06 1.16633e-06 0.000288341 0.000130064 0.000279127)
(0.000371446 -2.3694e-06 -1.80768e-05 0.000373992 0.000167396 0.00036964)
(0.000265679 -1.52283e-06 -1.48385e-06 0.000253048 0.000115497 0.000253787)
(0.000299546 2.75721e-06 1.50402e-05 0.000301502 0.000135299 0.000295943)
(0.000264419 4.59246e-06 1.27271e-06 0.000280849 0.00012612 0.000270667)
(0.000372578 -1.60153e-06 -1.90904e-05 0.000375271 0.000168498 0.000370865)
(0.00027239 -1.68618e-06 -1.58103e-06 0.000258766 0.000119082 0.000259968)
(0.000298397 2.11028e-06 1.58295e-05 0.000300282 0.000135657 0.00029466)
(0.000254697 4.95767e-06 1.41321e-06 0.000273069 0.000121935 0.00026169)
(0.000373163 -8.37544e-07 -2.00352e-05 0.000375968 0.000169347 0.000371558)
(0.00027856 -1.85669e-06 -1.67853e-06 0.000263934 0.000122418 0.000265641)
(0.000296738 1.52714e-06 1.65505e-05 0.000298581 0.000135196 0.000292885)
(0.000245447 4.83604e-06 1.49885e-06 0.000264666 0.000114879 0.000252915)
(0.000373271 -1.31787e-07 -2.09331e-05 0.0003762 0.000169395 0.000371763)
(0.000284197 -2.03501e-06 -1.77933e-06 0.000268566 0.000125456 0.000270814)
(0.000294782 1.03207e-06 1.72207e-05 0.000296404 0.000133526 0.00029083)
(0.000236567 4.43967e-06 1.56518e-06 0.000256139 0.000111049 0.000244394)
(0.00037271 4.89215e-07 -2.18015e-05 0.000376728 0.000168304 0.000371276)
(0.000289311 -2.22584e-06 -1.88411e-06 0.000272671 0.000128212 0.000275495)
(0.000292778 3.3663e-07 1.78361e-05 0.00029399 0.000134497 0.000288736)
(0.00022772 4.06096e-06 1.63402e-06 0.000247745 0.000108947 0.0002359)
(0.000372615 1.01839e-06 -2.26354e-05 0.000375899 0.000166141 0.000371248)
(0.000293913 -2.44437e-06 -1.96697e-06 0.000276269 0.000130627 0.000279696)
(0.00029057 -1.17738e-06 1.68938e-05 0.000291736 0.000133627 0.000286768)
(0.000218848 3.81249e-06 1.68107e-06 0.000239525 0.000105097 0.000227369)
(0.000373603 1.88763e-06 -2.34219e-05 0.000373475 0.000168684 0.000372315)
(0.000298012 -2.68011e-06 -1.97494e-06 0.000279385 0.000132687 0.000283433)
(0.000287851 -2.98493e-06 1.51451e-05 0.00028922 0.000132628 0.000284435)
(0.000210125 3.63719e-06 1.658e-06 0.000231441 9.94938e-05 0.000218968)
(0.000373289 4.04083e-06 -2.18875e-05 0.000374791 0.000172205 0.000372228)
(0.000301619 -2.87628e-06 -1.9158e-06 0.000282047 0.000134403 0.000286728)
(0.00028361 -3.67424e-06 1.45173e-05 0.00028491 0.0001307 0.000280306)
(0.000201739 3.41497e-06 1.57499e-06 0.000223517 9.33058e-05 0.000210884)
(0.000371948 6.75459e-06 -1.8123e-05 0.000377693 0.000172603 0.000371234)
(0.000304766 -2.98604e-06 -1.96549e-06 0.000284294 0.000135675 0.000289604)
(0.000277684 -2.69181e-06 1.68292e-05 0.000278563 0.000127514 0.000273816)
(0.000193769 3.08346e-06 1.59544e-06 0.000215954 8.67784e-05 0.000203205)
(0.000369205 8.08108e-06 -1.56757e-05 0.000376243 0.000171749 0.000368804)
(0.0003075 -3.03334e-06 -2.35444e-06 0.000286167 0.000136474 0.000292099)
(0.000271416 -8.96739e-07 2.03522e-05 0.000271736 0.000112553 0.000266714)
(0.000186283 2.66292e-06 1.92732e-06 0.000208912 7.99186e-05 0.000196017)
(0.00036349 7.17227e-06 -1.7254e-05 0.000367863 0.000168626 0.000363351)
(0.000309907 -3.12388e-06 -2.96674e-06 0.000287704 0.000136678 0.000294289)
(0.000265639 -1.04349e-06 2.07031e-05 0.000265998 9.70413e-05 0.000260868)
(0.000179366 2.2482e-06 2.4639e-06 0.000202488 7.27613e-05 0.000189421)
(0.000357029 3.97762e-06 -2.57265e-05 0.000353679 0.000163425 0.000357181)
(0.000312162 -3.36103e-06 -3.35703e-06 0.000288901 0.000136066 0.000296319)
(0.00026062 -2.74316e-06 2.09813e-05 0.000261368 0.000103119 0.000255846)
(0.000173074 1.93283e-06 2.80692e-06 0.000196794 6.53797e-05 0.000183512)
(0.000349467 8.61842e-07 -2.698e-05 0.000345014 0.000109773 0.000349771)
(0.000314402 -3.77889e-06 -3.41147e-06 0.000290037 0.000134402 0.00029832)
(0.000256308 -3.93512e-06 2.11948e-05 0.000256976 0.000107479 0.000251554)
(0.000167483 1.73476e-06 2.85738e-06 0.00019191 5.79372e-05 0.000178375)
(0.000340944 2.85998e-06 -2.736e-05 0.000344039 0.000111071 0.000341263)
(0.000316678 -4.34505e-06 -3.39481e-06 0.000291933 0.00013414 0.000300379)
(0.000252664 -4.20638e-06 2.13366e-05 0.000253091 0.000101511 0.000247873)
(0.000162683 1.58089e-06 2.85411e-06 0.000187878 5.04956e-05 0.000174071)
(0.000334286 6.08871e-06 -2.76139e-05 0.000342602 0.000133895 0.000334627)
(0.000319099 -4.74858e-06 -3.37004e-06 0.000294988 0.000141539 0.000303211)
(0.000250204 -4.07715e-06 2.13795e-05 0.000250229 9.0392e-05 0.000245304)
(0.000158719 1.36376e-06 2.96895e-06 0.000184724 4.30505e-05 0.000170627)
(0.000330075 7.9391e-06 -2.76334e-05 0.000337471 0.000145045 0.00033049)
(0.000320486 -4.00579e-06 -2.88868e-06 0.000299611 0.000143363 0.000307567)
(0.000249921 -5.38894e-06 2.12343e-05 0.000249045 9.68536e-05 0.00024489)
(0.000155589 1.04548e-06 3.21163e-06 0.000182459 3.56712e-05 0.000168051)
(0.000326831 8.60713e-06 -2.72591e-05 0.00033121 0.00014262 0.000327333)
(0.000321678 -3.15068e-06 -2.36094e-06 0.000303222 0.000144813 0.000311359)
(0.000251409 -8.8218e-06 1.48799e-05 0.00025087 0.000114976 0.000247737)
(0.000153296 6.70025e-07 3.36445e-06 0.000181036 2.83231e-05 0.000166328)
(0.000323147 8.94323e-06 -2.64982e-05 0.000327339 0.000135834 0.000323712)
(0.000321287 -3.50116e-06 -2.03505e-06 0.000302836 0.000144686 0.000311307)
(0.000253791 -1.08411e-05 8.17636e-06 0.000254113 0.000116994 0.000251672)
(0.000151894 2.88875e-07 3.01301e-06 0.000180335 2.10335e-05 0.000165433)
(0.000319378 9.08218e-06 -2.5773e-05 0.000326179 0.000126919 0.00032006)
(0.000320733 -5.99285e-06 -1.78747e-06 0.000297681 0.000142884 0.000307044)
(0.00024777 -1.14587e-05 5.61027e-06 0.00024832 0.000114473 0.000246242)
(0.000151409 -8.82987e-08 1.81824e-06 0.000180248 1.39471e-05 0.000165305)
(0.000318588 8.9515e-06 -2.54554e-05 0.000323112 0.000115513 0.000319595)
(0.000318944 -7.43274e-06 -4.14649e-07 0.00029335 9.65893e-05 0.000302586)
(0.000228504 -1.07274e-05 7.04671e-06 0.000228341 0.000105245 0.000226519)
(0.000151693 -4.73922e-07 6.81244e-08 0.000180841 7.17281e-06 0.00016585)
(0.000321627 1.09004e-05 -2.52441e-05 0.000319079 0.000127286 0.000323279)
(0.000317745 -6.50101e-06 -8.95819e-08 0.000289925 8.34727e-05 0.000301382)
(0.000209583 -5.11558e-06 1.81572e-05 0.000206609 4.55431e-05 0.000204344)
(0.000152331 -9.25373e-07 -2.74649e-07 0.000182317 8.5228e-07 0.000167062)
(0.000324598 1.43937e-05 -1.72332e-05 0.000325032 0.000149604 0.000326314)
(0.000318328 -6.18546e-06 -9.85002e-07 0.000287085 0.000108868 0.000301837)
(0.000195397 1.80726e-06 1.79519e-05 0.000193425 -3.64986e-05 0.000190086)
(0.000153363 -1.55593e-06 6.5782e-07 0.000184526 -5.08932e-06 0.00016883)
(0.000328726 1.60223e-05 -9.40711e-06 0.00033313 0.000152604 0.000329806)
(0.000318784 -6.54275e-06 -2.47833e-06 0.000286874 0.000126917 0.000302362)
(0.000184412 -3.44113e-06 1.76485e-05 0.000184148 1.47152e-06 0.000179042)
(0.000155062 -2.37384e-06 2.28257e-06 0.000187073 -1.06919e-05 0.000171059)
(0.000322255 1.65329e-05 -6.3444e-06 0.000327343 0.000149779 0.00032295)
(0.000318991 -6.73213e-06 -4.66886e-06 0.000288618 0.000127206 0.000303013)
(0.000175419 -8.89996e-06 1.73607e-05 0.000175492 4.63901e-05 0.000170043)
(0.000157546 -3.29399e-06 4.76115e-06 0.000189715 -1.58806e-05 0.000173673)
(0.000297939 1.58692e-05 -8.03047e-06 0.000300221 0.000137962 0.000298746)
(0.000320307 -6.82773e-06 -7.34712e-06 0.000290585 0.000120357 0.000305026)
(0.000167634 -1.10981e-05 1.71148e-05 0.000167069 6.00046e-05 0.000162343)
(0.000160617 -4.12401e-06 7.92125e-06 0.000192538 -2.06125e-05 0.000176592)
(0.000275003 8.43224e-06 -2.15835e-05 0.000265262 4.79069e-05 0.000277086)
(0.00032349 -7.11042e-06 -7.96894e-06 0.000293729 0.000110298 0.000308503)
(0.000160472 -1.1674e-05 1.69046e-05 0.000159552 5.6126e-05 0.000155282)
(0.000163631 -4.79199e-06 8.85015e-06 0.000195897 -2.49667e-05 0.000179906)
(0.000256068 -2.0768e-06 -2.12968e-05 0.000252543 -5.90658e-05 0.00025812)
(0.000328886 -8.36259e-06 -7.34084e-06 0.000300182 0.000110308 0.000313945)
(0.000154001 -1.21208e-05 1.67361e-05 0.000153277 5.04213e-05 0.000148637)
(0.000166639 -5.2629e-06 8.33237e-06 0.000199706 -2.89603e-05 0.000183493)
(0.000239766 5.06689e-06 -2.09417e-05 0.000247508 -2.57362e-06 0.00024183)
(0.000336913 -1.03027e-05 -6.33177e-06 0.000311438 0.000149704 0.000323235)
(0.000148469 -1.26491e-05 1.65153e-05 0.000147961 4.60076e-05 0.000142496)
(0.00016991 -5.65456e-06 7.97923e-06 0.000203669 -3.26566e-05 0.000187255)
(0.000228122 1.2644e-05 -2.01618e-05 0.000238861 5.8501e-05 0.000230249)
(0.000344907 -7.40119e-06 -3.58244e-06 0.00032976 0.000156735 0.000337275)
(0.000143746 -1.32347e-05 1.59532e-05 0.000143222 4.27016e-05 0.000137219)
(0.000173522 -6.12725e-06 8.18536e-06 0.000207619 -3.59643e-05 0.000191176)
(0.000219523 1.57807e-05 -1.84434e-05 0.000227384 7.72054e-05 0.000221757)
(0.000355887 -5.57568e-06 -2.28688e-06 0.000344914 0.000163418 0.000351259)
(0.00013971 -1.39425e-05 1.46799e-05 0.000138955 4.00029e-05 0.000132825)
(0.000177406 -6.71443e-06 8.68488e-06 0.000211557 -3.88718e-05 0.000195235)
(0.000211483 1.651e-05 -1.54476e-05 0.000217446 7.22655e-05 0.000213881)
(0.000355631 -5.96994e-06 -2.10079e-06 0.000345688 0.0001639 0.000351596)
(0.000136314 -1.47763e-05 1.2423e-05 0.000135214 3.78339e-05 0.000129175)
(0.000181499 -7.35252e-06 9.20672e-06 0.000215505 -4.14284e-05 0.000199412)
(0.000203507 1.68719e-05 -1.28542e-05 0.000210283 6.41135e-05 0.00020612)
(0.000341301 -9.96142e-06 -3.78942e-06 0.000327837 0.000155613 0.00033436)
(0.000133537 -1.56538e-05 1.04464e-05 0.000132073 3.63877e-05 0.000126147)
(0.000185779 -7.99327e-06 9.68561e-06 0.000219456 -4.33281e-05 0.000203687)
(0.000196546 1.7177e-05 -1.25192e-05 0.000204203 5.65133e-05 0.000199325)
(0.000328584 -1.30276e-05 -7.78978e-06 0.000306536 1.52311e-05 0.000314962)
(0.000131257 -1.64868e-05 1.0192e-05 0.000129559 3.54216e-05 0.000123653)
(0.00019026 -8.62935e-06 1.01027e-05 0.000223388 -4.46131e-05 0.000208042)
(0.000190758 1.73793e-05 -1.31351e-05 0.000198882 4.90868e-05 0.000193614)
(0.000317688 -7.20486e-06 -8.05461e-06 0.000293047 -4.0785e-05 0.000304241)
(0.00012937 -1.72325e-05 1.06358e-05 0.000127596 3.46047e-05 0.000121628)
(0.000194931 -9.27018e-06 1.04489e-05 0.000227323 -4.54925e-05 0.000212472)
(0.000185996 1.76018e-05 -1.35288e-05 0.000194468 4.22828e-05 0.000188918)
(0.000310064 -6.54848e-06 -8.27356e-06 0.000281778 2.9213e-05 0.000296878)
(0.000127859 -1.79343e-05 1.08455e-05 0.000126034 3.38676e-05 0.000120017)
(0.00019979 -9.92191e-06 1.07184e-05 0.000231302 -4.59999e-05 0.00021696)
(0.000182235 1.79816e-05 -1.34593e-05 0.000191097 3.67297e-05 0.000185295)
(0.000303067 -8.71333e-06 -8.49314e-06 0.000274039 9.06473e-05 0.000290164)
(0.000126712 -1.86508e-05 1.06567e-05 0.000124774 3.31639e-05 0.000118763)
(0.000204852 -1.05905e-05 1.09152e-05 0.00023536 -4.61818e-05 0.0002215)
(0.000179514 1.85302e-05 -1.31444e-05 0.000188821 3.24699e-05 0.000182793)
(0.000296082 -1.0153e-05 -8.71809e-06 0.000268848 0.000109192 0.00028353)
(0.000125874 -1.93991e-05 1.02848e-05 0.000123771 3.25442e-05 0.000117813)
(0.000210141 -1.12783e-05 1.10496e-05 0.000239482 -4.5993e-05 0.000226143)
(0.000177842 1.91687e-05 -1.27698e-05 0.000187558 2.89103e-05 0.000181392)
(0.000290087 -1.04998e-05 -8.92499e-06 0.000263804 0.000107813 0.000278041)
(0.000125281 -2.01586e-05 9.88445e-06 0.000122998 3.20859e-05 0.000117123)
(0.00021567 -1.19886e-05 1.11293e-05 0.000243665 -4.54478e-05 0.000230975)
(0.000177199 1.98217e-05 -1.23637e-05 0.00018724 2.56366e-05 0.000181057)
(0.000285205 -1.06337e-05 -9.10188e-06 0.000258964 0.000104413 0.000273801)
(0.000124886 -2.09129e-05 9.47453e-06 0.000122417 3.1814e-05 0.000116654)
(0.000221479 -1.27217e-05 1.11554e-05 0.000247959 -4.4554e-05 0.00023603)
(0.000177563 2.0468e-05 -1.19218e-05 0.000187856 2.24565e-05 0.000181759)
(0.000281096 -1.07415e-05 -9.24687e-06 0.000255184 0.000101239 0.000270384)
(0.000124647 -2.166e-05 9.0517e-06 0.000121985 3.16732e-05 0.000116371)
(0.000227625 -1.34713e-05 1.11268e-05 0.000252419 -4.32342e-05 0.000241364)
(0.000178925 2.11163e-05 -1.14445e-05 0.00018942 1.93875e-05 0.000183481)
(0.000277801 -1.08094e-05 -9.35689e-06 0.000252492 9.78287e-05 0.00026782)
(0.000124528 -2.2396e-05 8.616e-06 0.000121666 3.16295e-05 0.000116241)
(0.000234182 -1.42379e-05 1.10423e-05 0.000257125 -4.1465e-05 0.000247045)
(0.000181307 2.17763e-05 -1.09339e-05 0.000191957 1.6686e-05 0.000186226)
(0.000275415 -1.08244e-05 -9.42823e-06 0.000250855 9.37618e-05 0.000266265)
(0.00012449 -2.31157e-05 8.16962e-06 0.000121446 3.1705e-05 0.000116224)
(0.000241254 -1.50066e-05 1.08872e-05 0.000262191 -3.93498e-05 0.000253147)
(0.000184758 2.24454e-05 -1.03936e-05 0.000195514 1.44209e-05 0.000190031)
(0.000274107 -1.07656e-05 -9.45541e-06 0.000250305 8.83388e-05 0.000265918)
(0.000124503 -2.38121e-05 7.71706e-06 0.000121299 3.1837e-05 0.000116288)
(0.000248977 -1.57776e-05 1.06623e-05 0.000267765 -3.73004e-05 0.000259794)
(0.000189363 2.30965e-05 -9.83172e-06 0.000200157 1.24231e-05 0.000194982)
(0.000273998 -1.05884e-05 -9.43047e-06 0.000251308 8.03028e-05 0.000266894)
(0.000124547 -2.44757e-05 7.26562e-06 0.00012119 3.19897e-05 0.000116417)
(0.000257658 -1.65484e-05 1.03692e-05 0.000273786 -3.62445e-05 0.000267287)
(0.000195242 2.36463e-05 -9.26176e-06 0.000206042 1.01174e-05 0.000201225)
(0.000275678 -1.07514e-05 -9.34092e-06 0.000253904 7.34578e-05 0.000269756)
(0.000124436 -2.51055e-05 6.82585e-06 0.000121424 3.21535e-05 0.00011643)
(0.000266595 -1.7314e-05 1.00236e-05 0.000282037 -3.73431e-05 0.000274924)
(0.000202487 2.38076e-05 -8.61875e-06 0.000213644 5.86139e-06 0.000208895)
(0.000279342 -1.05137e-05 -9.17554e-06 0.000259498 6.77762e-05 0.00027466)
(0.000124435 -2.56694e-05 6.35464e-06 0.000121419 3.22927e-05 0.000116588)
(0.000275953 -1.67021e-05 9.64758e-06 0.000292422 -2.50039e-05 0.000282853)
(0.000211477 2.52722e-05 -8.1588e-06 0.000222435 1.15675e-05 0.000218409)
(0.000286296 -1.26566e-05 -8.89854e-06 0.000268336 8.23488e-05 0.000282856)
(0.000124633 -2.6159e-05 6.01953e-06 0.000120959 3.23697e-05 0.000116971)
(0.000287969 -1.31421e-05 9.22884e-06 0.000301474 4.34309e-05 0.000293333)
(0.00022237 3.40412e-05 -8.19979e-06 0.000232249 7.00098e-05 0.000230086)
(0.00029729 -1.41622e-05 -6.25037e-06 0.000284757 0.000135468 0.000295693)
(0.000124624 -2.6565e-05 6.01312e-06 0.000120913 3.25255e-05 0.000117073)
(0.000303647 -9.20663e-06 7.44741e-06 0.000308604 0.000142196 0.000306855)
(0.000237643 2.91711e-05 -4.20736e-06 0.000242842 0.000108064 0.000242275)
(0.000312451 -7.44218e-06 -3.2544e-06 0.00030758 0.000145367 0.000312113)
(0.000125026 -2.69147e-05 5.75713e-06 0.000119971 3.24815e-05 0.000117532)
(0.000319962 -1.18431e-05 5.82188e-06 0.000316473 0.000148393 0.000321409)
(0.000252423 2.85083e-05 -1.90885e-06 0.000255503 0.000114918 0.000255836)
(0.000323376 -4.95091e-06 -2.16192e-06 0.000321422 0.000153479 0.00032347)
(0.000124864 -2.67815e-05 3.88481e-06 0.000119687 2.81583e-05 0.000117699)
(0.000334162 -4.26913e-05 1.06593e-05 0.000330154 -5.42051e-05 0.000334775)
(0.00026134 6.43341e-05 6.15187e-06 0.000271812 9.28493e-05 0.000270745)
(0.000314532 -7.11107e-06 -2.98697e-06 0.000312813 0.000150358 0.000314983)
(0.000123962 -2.5408e-05 -3.90103e-06 0.000120631 1.52281e-05 0.000117348)
(0.00035136 -1.57499e-05 3.14238e-06 0.000350355 -0.000166913 0.000351085)
(3.93802e-07 5.24542e-11 -4.21741e-13 3.93806e-07 8.96994e-10 3.938e-07)
(2.14535e-07 5.38006e-11 4.587e-14 2.14536e-07 2.63234e-10 2.14535e-07)
(9.42022e-07 -1.06612e-10 1.01447e-12 9.42037e-07 2.77091e-09 9.4202e-07)
(5.74477e-07 -1.26483e-10 -1.48976e-13 5.74476e-07 1.222e-09 5.74475e-07)
(1.56623e-07 3.12807e-11 -2.53678e-12 1.56631e-07 1.40463e-09 1.56617e-07)
(1.30912e-07 8.09016e-11 8.63029e-13 1.30914e-07 9.58132e-10 1.3091e-07)
(3.63605e-07 -3.01839e-11 5.91326e-12 3.63645e-07 4.88355e-09 3.636e-07)
(2.31539e-07 -1.0247e-10 -1.70921e-12 2.31535e-07 2.73013e-09 2.31532e-07)
(7.04269e-07 -1.67181e-10 -5.04037e-11 7.04392e-07 1.63113e-08 7.04199e-07)
(6.92483e-07 1.54749e-10 3.18462e-11 6.925e-07 1.64046e-08 6.92456e-07)
(1.56829e-06 8.97905e-10 1.12304e-10 1.5689e-06 5.81522e-08 1.56823e-06)
(1.02181e-06 2.66862e-10 -5.07434e-11 1.02173e-06 3.59571e-08 1.02174e-06)
(2.42832e-06 -8.19963e-10 -4.77257e-10 2.42911e-06 1.29159e-07 2.42789e-06)
(2.41398e-06 3.11198e-11 3.7594e-10 2.41396e-06 1.27055e-07 2.41378e-06)
(5.29967e-06 5.43119e-09 1.03445e-09 5.30378e-06 4.2337e-07 5.29933e-06)
(3.48132e-06 3.21063e-09 -5.7508e-10 3.48071e-06 2.58463e-07 3.48085e-06)
(6.0484e-06 1.01903e-09 -2.52067e-09 6.05169e-06 5.95812e-07 6.04666e-06)
(6.03926e-06 2.67261e-09 2.18134e-09 6.03957e-06 5.62919e-07 6.03837e-06)
(1.29265e-05 1.29887e-08 5.2834e-09 1.29429e-05 1.78191e-06 1.2925e-05)
(8.56407e-06 8.81231e-09 -3.23646e-09 8.56224e-06 1.07725e-06 8.56209e-06)
(1.22704e-05 7.93976e-09 -9.11904e-09 1.22804e-05 1.8632e-06 1.22654e-05)
(1.23163e-05 6.85263e-09 8.37482e-09 1.23169e-05 1.76942e-06 1.23134e-05)
(2.55853e-05 2.81778e-08 1.83374e-08 2.56338e-05 5.15992e-06 2.55807e-05)
(1.71255e-05 2.40287e-08 -1.19979e-08 1.71198e-05 3.1628e-06 1.71195e-05)
(2.16353e-05 2.18042e-08 -2.53292e-08 2.16589e-05 4.50462e-06 2.16238e-05)
(2.18617e-05 4.1799e-09 2.43859e-08 2.18633e-05 4.37797e-06 2.18548e-05)
(4.3822e-05 5.95913e-08 4.85605e-08 4.39339e-05 1.1574e-05 4.38109e-05)
(2.97004e-05 6.1534e-08 -3.35653e-08 2.96874e-05 7.27615e-06 2.9686e-05)
(3.43719e-05 4.15394e-08 -5.77928e-08 3.44186e-05 9.02514e-06 3.43509e-05)
(3.50016e-05 -2.41521e-08 5.7949e-08 3.50041e-05 9.0318e-06 3.49887e-05)
(6.73413e-05 1.19272e-07 1.053e-07 6.75566e-05 2.15032e-05 6.73202e-05)
(4.63304e-05 1.37724e-07 -7.64613e-08 4.63051e-05 1.39567e-05 4.63023e-05)
(5.02913e-05 6.24602e-08 -1.13214e-07 5.03716e-05 1.5628e-05 5.02595e-05)
(5.16223e-05 -1.03115e-07 1.17554e-07 5.16228e-05 1.61045e-05 5.16031e-05)
(9.49812e-05 2.16846e-07 1.96006e-07 9.5341e-05 3.45577e-05 9.49478e-05)
(6.64886e-05 2.65765e-07 -1.48862e-07 6.64432e-05 2.32419e-05 6.64418e-05)
(6.87856e-05 7.86474e-08 -1.96536e-07 6.89083e-05 2.40911e-05 6.87461e-05)
(7.11224e-05 -2.51233e-07 2.10091e-07 7.11137e-05 2.5477e-05 7.10999e-05)
(0.00012502 3.48809e-07 3.24117e-07 0.000125558 4.96413e-05 0.000124975)
(8.91668e-05 4.47207e-07 -2.5633e-07 8.9092e-05 3.46063e-05 8.90992e-05)
(8.89623e-05 8.9095e-08 -3.09798e-07 8.91341e-05 3.3864e-05 8.89236e-05)
(9.25379e-05 -4.66817e-07 3.39076e-07 9.25074e-05 3.65546e-05 9.25207e-05)
(0.000155664 4.92023e-07 4.88764e-07 0.000156393 6.54882e-05 0.000155612)
(0.000113126 6.66177e-07 -4.0078e-07 0.00011301 4.71737e-05 0.000113039)
(0.000109859 1.05107e-07 -4.5211e-07 0.000110082 4.43295e-05 0.000109835)
(0.000114791 -7.21197e-07 5.04343e-07 0.000114719 4.85102e-05 0.000114794)
(0.000185434 6.19589e-07 6.85951e-07 0.000186341 8.11743e-05 0.000185384)
(0.000137184 8.88712e-07 -5.80956e-07 0.000137013 6.00309e-05 0.000137082)
(0.000130615 1.44153e-07 -6.20296e-07 0.00013088 5.50191e-05 0.000130621)
(0.000136928 -9.64251e-07 7.02989e-07 0.00013679 6.05699e-05 0.00013697)
(0.000213335 7.23181e-07 9.10264e-07 0.000214397 9.61931e-05 0.000213296)
(0.000160399 1.07803e-06 -7.93736e-07 0.000160171 7.25134e-05 0.00016029)
(0.000150552 2.08871e-07 -8.10241e-07 0.000150848 6.5632e-05 0.000150608)
(0.000158235 -1.15361e-06 9.30136e-07 0.000158019 7.22677e-05 0.00015834)
(0.00023892 8.14944e-07 1.15716e-06 0.000240113 0.000110158 0.000238905)
(0.000182149 1.21794e-06 -1.03484e-06 0.000181865 8.4355e-05 0.000182044)
(0.000169249 2.82026e-07 -1.01805e-06 0.000169566 7.58277e-05 0.000169376)
(0.000178282 -1.26736e-06 1.17047e-06 0.000177977 8.28657e-05 0.000178475)
(0.00026202 9.06103e-07 1.41359e-06 0.000263317 0.000122026 0.000262045)
(0.000202146 1.28948e-06 -1.27854e-06 0.0002018 9.39168e-05 0.000202058)
(0.000186503 3.40216e-07 -1.23953e-06 0.000186835 8.51562e-05 0.000186722)
(0.000196927 -1.30604e-06 1.405e-06 0.00019651 9.15326e-05 0.000197229)
(0.000282629 9.97025e-07 1.67028e-06 0.000283994 0.000131639 0.000282713)
(0.000220349 1.32625e-06 -1.53573e-06 0.000219921 0.000102364 0.000220289)
(0.000202187 3.78298e-07 -1.46985e-06 0.00020252 9.35149e-05 0.000202519)
(0.000214144 -1.31502e-06 1.65044e-06 0.000213579 9.95328e-05 0.000214578)
(0.000300837 1.08727e-06 1.93409e-06 0.000302234 0.000140105 0.000300997)
(0.000236733 1.34416e-06 -1.81033e-06 0.000236204 0.000109967 0.000236713)
(0.000216295 4.12527e-07 -1.697e-06 0.000216604 0.000100685 0.000216759)
(0.000229893 -1.30518e-06 1.90605e-06 0.000229151 0.000106847 0.00023048)
(0.000316766 1.17458e-06 2.20164e-06 0.00031817 0.00014752 0.00031702)
(0.00025132 1.33562e-06 -2.10055e-06 0.000250688 0.000116743 0.000251352)
(0.000228872 4.52974e-07 -1.91245e-06 0.000229138 0.000106542 0.000229482)
(0.000244166 -1.26547e-06 2.16925e-06 0.000243236 0.000113475 0.000244927)
(0.00033056 1.25938e-06 2.46968e-06 0.000331946 0.000153956 0.000330928)