-0.0075 	0 	0 	0
-0.0075 	-2.95597e-36 	-2.45559e-36 	1.84994e-31
-0.00745622 	-2.42815e-07 	-2.01712e-07 	0.0151961
-0.00745622 	-2.42815e-07 	-2.01712e-07 	0.0151961
-0.00741165 	-8.12022e-07 	-6.82552e-07 	0.029591
-0.00741165 	-8.12022e-07 	-6.82552e-07 	0.029591
-0.00736628 	-1.45416e-06 	-1.51359e-06 	0.043284
-0.00736628 	-1.45416e-06 	-1.51359e-06 	0.043284
-0.0073201 	-2.02674e-06 	-2.69989e-06 	0.0563039
-0.0073201 	-2.02674e-06 	-2.69989e-06 	0.0563039
-0.00727309 	-2.54083e-06 	-4.27344e-06 	0.0686749
-0.00727309 	-2.54083e-06 	-4.27344e-06 	0.0686749
-0.00722524 	-3.02274e-06 	-6.23977e-06 	0.0804171
-0.00722524 	-3.02274e-06 	-6.23977e-06 	0.0804171
-0.00717653 	-3.4784e-06 	-8.61434e-06 	0.0915392
-0.00717653 	-3.4784e-06 	-8.61434e-06 	0.0915392
-0.00712695 	-3.90902e-06 	-1.14185e-05 	0.102028
-0.00712695 	-3.90902e-06 	-1.14185e-05 	0.102028
-0.00707647 	-4.3138e-06 	-1.46893e-05 	0.111855
-0.00707647 	-4.3138e-06 	-1.46893e-05 	0.111855
-0.0070251 	-4.69037e-06 	-1.84854e-05 	0.120991
-0.0070251 	-4.69037e-06 	-1.84854e-05 	0.120991
-0.0069728 	-5.0355e-06 	-2.28795e-05 	0.12943
-0.0069728 	-5.0355e-06 	-2.28795e-05 	0.12943
-0.00691956 	-5.34596e-06 	-2.79451e-05 	0.13719
-0.00691956 	-5.34596e-06 	-2.79451e-05 	0.13719
-0.00686537 	-5.61939e-06 	-3.37488e-05 	0.14431
-0.00686537 	-5.61939e-06 	-3.37488e-05 	0.14431
-0.00681021 	-5.85492e-06 	-4.03592e-05 	0.150845
-0.00681021 	-5.85492e-06 	-4.03592e-05 	0.150845
-0.00675406 	-6.05295e-06 	-4.78492e-05 	0.156858
-0.00675406 	-6.05295e-06 	-4.78492e-05 	0.156858
-0.0066969 	-6.21445e-06 	-5.62856e-05 	0.162402
-0.0066969 	-6.21445e-06 	-5.62856e-05 	0.162402
-0.00663871 	-6.3408e-06 	-6.5715e-05 	0.167522
-0.00663871 	-6.3408e-06 	-6.5715e-05 	0.167522
-0.00657949 	-6.43366e-06 	-7.61425e-05 	0.172262
-0.00657949 	-6.43366e-06 	-7.61425e-05 	0.172262
-0.0065192 	-6.49483e-06 	-8.7535e-05 	0.17666
-0.0065192 	-6.49483e-06 	-8.7535e-05 	0.17666
-0.00645783 	-6.52645e-06 	-9.98435e-05 	0.18076
-0.00645783 	-6.52645e-06 	-9.98435e-05 	0.18076
-0.00639535 	-6.53079e-06 	-0.000113016 	0.184601
-0.00639535 	-6.53079e-06 	-0.000113016 	0.184601
-0.00633176 	-6.51006e-06 	-0.000126999 	0.188214
-0.00633176 	-6.51006e-06 	-0.000126999 	0.188214
-0.00626703 	-6.46633e-06 	-0.000141738 	0.191628
-0.00626703 	-6.46633e-06 	-0.000141738 	0.191628
-0.00620114 	-6.40147e-06 	-0.000157177 	0.194865
-0.00620114 	-6.40147e-06 	-0.000157177 	0.194865
-0.00613406 	-6.31709e-06 	-0.000173257 	0.197947
-0.00613406 	-6.31709e-06 	-0.000173257 	0.197947
-0.00606579 	-6.21446e-06 	-0.000189915 	0.200889
-0.00606579 	-6.21446e-06 	-0.000189915 	0.200889
-0.00599629 	-6.09451e-06 	-0.000207085 	0.203711
-0.00599629 	-6.09451e-06 	-0.000207085 	0.203711
-0.00592554 	-5.95808e-06 	-0.000224698 	0.206427
-0.00592554 	-5.95808e-06 	-0.000224698 	0.206427
-0.00585352 	-5.80608e-06 	-0.000242676 	0.209052
-0.00585352 	-5.80608e-06 	-0.000242676 	0.209052
-0.00578022 	-5.6395e-06 	-0.000260926 	0.211597
-0.00578022 	-5.6395e-06 	-0.000260926 	0.211597
-0.00570559 	-5.45914e-06 	-0.000279349 	0.214073
-0.00570559 	-5.45914e-06 	-0.000279349 	0.214073
-0.00562963 	-5.26561e-06 	-0.000297847 	0.216487
-0.00562963 	-5.26561e-06 	-0.000297847 	0.216487
-0.00555231 	-5.05936e-06 	-0.00031632 	0.218846
-0.00555231 	-5.05936e-06 	-0.00031632 	0.218846
-0.0054736 	-4.84075e-06 	-0.000334664 	0.221156
-0.0054736 	-4.84075e-06 	-0.000334664 	0.221156
-0.00539348 	-4.61011e-06 	-0.000352775 	0.223421
-0.00539348 	-4.61011e-06 	-0.000352775 	0.223421
-0.00531193 	-4.36766e-06 	-0.000370549 	0.225646
-0.00531193 	-4.36766e-06 	-0.000370549 	0.225646
-0.00522891 	-4.11363e-06 	-0.000387883 	0.227833
-0.00522891 	-4.11363e-06 	-0.000387883 	0.227833
-0.0051444 	-3.84817e-06 	-0.000404675 	0.229983
-0.0051444 	-3.84817e-06 	-0.000404675 	0.229983
-0.00505838 	-3.57141e-06 	-0.000420827 	0.2321
-0.00505838 	-3.57141e-06 	-0.000420827 	0.2321
-0.00497081 	-3.28344e-06 	-0.000436249 	0.234183
-0.00497081 	-3.28344e-06 	-0.000436249 	0.234183
-0.00488168 	-2.98429e-06 	-0.00045085 	0.236231
-0.00488168 	-2.98429e-06 	-0.00045085 	0.236231
-0.00479094 	-2.67392e-06 	-0.000464546 	0.238245
-0.00479094 	-2.67392e-06 	-0.000464546 	0.238245
-0.00469858 	-2.35214e-06 	-0.000477256 	0.240224
-0.00469858 	-2.35214e-06 	-0.000477256 	0.240224
-0.00460456 	-2.01862e-06 	-0.000488907 	0.242164
-0.00460456 	-2.01862e-06 	-0.000488907 	0.242164
-0.00450886 	-1.67286e-06 	-0.00049945 	0.244066
-0.00450886 	-1.67286e-06 	-0.00049945 	0.244066
-0.00441144 	-1.31433e-06 	-0.000508871 	0.245927
-0.00441144 	-1.31433e-06 	-0.000508871 	0.245927
-0.00431227 	-9.4254e-07 	-0.000517187 	0.247745
-0.00431227 	-9.4254e-07 	-0.000517187 	0.247745
-0.00421133 	-5.57062e-07 	-0.000524443 	0.249518
-0.00421133 	-5.57062e-07 	-0.000524443 	0.249518
-0.00410857 	-1.57134e-07 	-0.000530706 	0.251244
-0.00410857 	-1.57134e-07 	-0.000530706 	0.251244
-0.00400397 	2.58765e-07 	-0.000536055 	0.252922
-0.00400397 	2.58765e-07 	-0.000536055 	0.252922
-0.0038975 	6.92523e-07 	-0.000540578 	0.25455
-0.0038975 	6.92523e-07 	-0.000540578 	0.25455
-0.00378912 	1.14517e-06 	-0.000544357 	0.256133
-0.00378912 	1.14517e-06 	-0.000544357 	0.256133
-0.00367879 	1.61632e-06 	-0.000547457 	0.257671
-0.00367879 	1.61632e-06 	-0.000547457 	0.257671
-0.00356649 	2.10481e-06 	-0.000549932 	0.259166
-0.00356649 	2.10481e-06 	-0.000549932 	0.259166
-0.00345217 	2.60951e-06 	-0.000551836 	0.260613
-0.00345217 	2.60951e-06 	-0.000551836 	0.260613
-0.0033358 	3.12951e-06 	-0.000553226 	0.262013
-0.0033358 	3.12951e-06 	-0.000553226 	0.262013
-0.00321735 	3.66374e-06 	-0.000554165 	0.263361
-0.00321735 	3.66374e-06 	-0.000554165 	0.263361
-0.00309677 	4.21084e-06 	-0.000554719 	0.264656
-0.00309677 	4.21084e-06 	-0.000554719 	0.264656
-0.00297403 	4.76914e-06 	-0.000554956 	0.265895
-0.00297403 	4.76914e-06 	-0.000554956 	0.265895
-0.00284909 	5.33657e-06 	-0.00055495 	0.267076
-0.00284909 	5.33657e-06 	-0.00055495 	0.267076
-0.0027219 	5.91074e-06 	-0.000554773 	0.268196
-0.0027219 	5.91074e-06 	-0.000554773 	0.268196
-0.00259244 	6.48903e-06 	-0.000554497 	0.269253
-0.00259244 	6.48903e-06 	-0.000554497 	0.269253
-0.00246065 	7.06864e-06 	-0.00055419 	0.270244
-0.00246065 	7.06864e-06 	-0.00055419 	0.270244
-0.00232651 	7.64643e-06 	-0.00055391 	0.271167
-0.00232651 	7.64643e-06 	-0.00055391 	0.271167
-0.00218995 	8.21894e-06 	-0.000553707 	0.27202
-0.00218995 	8.21894e-06 	-0.000553707 	0.27202
-0.00205095 	8.78248e-06 	-0.000553617 	0.272801
-0.00205095 	8.78248e-06 	-0.000553617 	0.272801
-0.00190946 	9.33316e-06 	-0.000553665 	0.27351
-0.00190946 	9.33316e-06 	-0.000553665 	0.27351
-0.00176543 	9.86658e-06 	-0.000553859 	0.274143
-0.00176543 	9.86658e-06 	-0.000553859 	0.274143
-0.00161881 	1.03776e-05 	-0.000554191 	0.274703
-0.00161881 	1.03776e-05 	-0.000554191 	0.274703
-0.00146957 	1.08601e-05 	-0.000554635 	0.275187
-0.00146957 	1.08601e-05 	-0.000554635 	0.275187
-0.00131765 	1.13077e-05 	-0.000555151 	0.275596
-0.00131765 	1.13077e-05 	-0.000555151 	0.275596
-0.001163 	1.17134e-05 	-0.000555688 	0.275931
-0.001163 	1.17134e-05 	-0.000555688 	0.275931
-0.00100559 	1.20695e-05 	-0.000556196 	0.276191
-0.00100559 	1.20695e-05 	-0.000556196 	0.276191
-0.000845345 	1.23671e-05 	-0.000556589 	0.276375
-0.000845345 	1.23671e-05 	-0.000556589 	0.276375
-0.000682232 	1.25963e-05 	-0.00055684 	0.276482
-0.000682232 	1.25963e-05 	-0.00055684 	0.276482
-0.000516194 	1.27461e-05 	-0.000556934 	0.276511
-0.000516194 	1.27461e-05 	-0.000556934 	0.276511
-0.000347178 	1.28049e-05 	-0.000556771 	0.276459
-0.000347178 	1.28049e-05 	-0.000556771 	0.276459
-0.000175132 	1.27584e-05 	-0.0005564 	0.276324
-0.000175132 	1.27584e-05 	-0.0005564 	0.276324
0 	1.25929e-05 	-0.000555728 	0.276104
0 	1.25929e-05 	-0.000555728 	0.276104
0 	1.25929e-05 	-0.000555728 	0.276104
0 	1.25929e-05 	-0.000555728 	0.276104
0.000175132 	1.23082e-05 	-0.000554633 	0.275801
0.000175132 	1.36462e-05 	-0.000455294 	0.272519
0.000347178 	1.19156e-05 	-0.000553226 	0.275421
0.000347178 	1.48881e-05 	-0.000455769 	0.272205
0.000516194 	1.14332e-05 	-0.000551427 	0.27497
0.000516194 	1.5957e-05 	-0.000455809 	0.271813
0.000682232 	1.08791e-05 	-0.000549264 	0.274451
0.000682232 	1.68705e-05 	-0.000455431 	0.271347
0.000845345 	1.02665e-05 	-0.000546838 	0.273868
0.000845345 	1.76442e-05 	-0.000454888 	0.270812
0.00100559 	9.60799e-06 	-0.000544125 	0.273224
0.00100559 	1.82947e-05 	-0.000454063 	0.270212
0.001163 	8.91485e-06 	-0.000541144 	0.272521
0.001163 	1.88372e-05 	-0.000452959 	0.269549
0.00131765 	8.19718e-06 	-0.000537913 	0.271761
0.00131765 	1.9286e-05 	-0.000451582 	0.268828
0.00146957 	7.46378e-06 	-0.000534445 	0.270947
0.00146957 	1.96534e-05 	-0.000449939 	0.268049
0.00161881 	6.72227e-06 	-0.000530752 	0.27008
0.00161881 	1.99506e-05 	-0.000448036 	0.267216
0.00176543 	5.97912e-06 	-0.000526844 	0.269163
0.00176543 	2.01871e-05 	-0.00044588 	0.266329
0.00190946 	5.23975e-06 	-0.000522728 	0.268196
0.00190946 	2.0371e-05 	-0.000443473 	0.265392
0.00205095 	4.50874e-06 	-0.000518409 	0.267181
0.00205095 	2.05095e-05 	-0.000440818 	0.264405
0.00218995 	3.78988e-06 	-0.00051389 	0.266119
0.00218995 	2.06085e-05 	-0.000437912 	0.26337
0.00232651 	3.08636e-06 	-0.00050917 	0.265011
0.00232651 	2.06731e-05 	-0.000434753 	0.262287
0.00246065 	2.40073e-06 	-0.000504247 	0.263857
0.00246065 	2.07076e-05 	-0.000431336 	0.261157
0.00259244 	1.7351e-06 	-0.000499117 	0.262659
0.00259244 	2.07153e-05 	-0.000427654 	0.259981
0.0027219 	1.09113e-06 	-0.000493775 	0.261415
0.0027219 	2.06991e-05 	-0.0004237 	0.25876
0.00284909 	4.70179e-07 	-0.000488212 	0.260128
0.00284909 	2.06611e-05 	-0.000419462 	0.257494
0.00297403 	-1.26686e-07 	-0.00048242 	0.258797
0.00297403 	2.06031e-05 	-0.000414927 	0.256184
0.00309677 	-6.98632e-07 	-0.000476389 	0.257421
0.00309677 	2.05263e-05 	-0.00041008 	0.254829
0.00321735 	-1.24502e-06 	-0.000470108 	0.256001
0.00321735 	2.04315e-05 	-0.000404905 	0.253429
0.0033358 	-1.7654e-06 	-0.000463566 	0.254537
0.0033358 	2.03194e-05 	-0.000399385 	0.251984
0.00345217 	2.01904e-05 	-0.000393508 	0.250494
0.00345217 	-2.25945e-06 	-0.000456753 	0.253026
0.00356649 	-2.72696e-06 	-0.00044966 	0.25147
0.00356649 	2.0045e-05 	-0.000387271 	0.248956
0.00367879 	-3.16777e-06 	-0.000442276 	0.249866
0.00367879 	1.98841e-05 	-0.000380669 	0.247371
0.00378912 	-3.5817e-06 	-0.000434583 	0.248214
0.00378912 	1.97097e-05 	-0.000373691 	0.245737
0.0038975 	-3.96853e-06 	-0.000426561 	0.246512
0.0038975 	1.95237e-05 	-0.000366323 	0.244057
0.00400397 	-4.32813e-06 	-0.000418168 	0.244757
0.00400397 	1.93264e-05 	-0.000358511 	0.242324
0.00410857 	1.91184e-05 	-0.000350153 	0.240527
0.00410857 	-4.66032e-06 	-0.00040934 	0.242944
0.00421133 	-4.96482e-06 	-0.000399998 	0.241065
0.00421133 	1.88996e-05 	-0.000341143 	0.238654
0.00431227 	-5.24199e-06 	-0.000390057 	0.239115
0.00431227 	1.86686e-05 	-0.0003314 	0.236697
0.00441144 	-5.49285e-06 	-0.000379446 	0.237085
0.00441144 	1.84224e-05 	-0.000320875 	0.234652
0.00450886 	-5.71852e-06 	-0.000368127 	0.234971
0.00450886 	1.8158e-05 	-0.000309567 	0.232514
0.00460456 	-5.91986e-06 	-0.000356096 	0.232765
0.00460456 	1.78723e-05 	-0.00029751 	0.230281
0.00469858 	-6.09733e-06 	-0.000343368 	0.230464
0.00469858 	1.75627e-05 	-0.000284753 	0.227947
0.00479094 	-6.25123e-06 	-0.000329965 	0.228063
0.00479094 	1.72262e-05 	-0.000271351 	0.22551
0.00488168 	-6.38185e-06 	-0.000315919 	0.225557
0.00488168 	1.68601e-05 	-0.000257362 	0.222964
0.00497081 	-6.48955e-06 	-0.000301266 	0.222941
0.00497081 	1.64617e-05 	-0.000242851 	0.220306
0.00505838 	-6.57474e-06 	-0.000286059 	0.220212
0.00505838 	1.60282e-05 	-0.000227892 	0.217532
0.0051444 	-6.63786e-06 	-0.000270361 	0.217366
0.0051444 	1.5557e-05 	-0.000212574 	0.214638
0.00522891 	-6.67939e-06 	-0.000254254 	0.214399
0.00522891 	1.50458e-05 	-0.000196997 	0.211622
0.00531193 	-6.6998e-06 	-0.000237835 	0.211308
0.00531193 	1.44927e-05 	-0.000181281 	0.20848
0.00539348 	-6.69959e-06 	-0.000221215 	0.20809
0.00539348 	1.38963e-05 	-0.000165556 	0.205212
0.0054736 	-6.67925e-06 	-0.000204518 	0.204741
0.0054736 	1.32555e-05 	-0.000149965 	0.201815
0.00555231 	-6.63928e-06 	-0.000187876 	0.201259
0.00555231 	1.25698e-05 	-0.00013465 	0.198287
0.00562963 	-6.58017e-06 	-0.000171424 	0.197638
0.00562963 	1.1839e-05 	-0.000119754 	0.194626
0.00570559 	-6.50245e-06 	-0.000155292 	0.193876
0.00570559 	1.10635e-05 	-0.000105409 	0.190829
0.00578022 	-6.40664e-06 	-0.000139607 	0.189966
0.00578022 	1.02438e-05 	-9.17354e-05 	0.186892
0.00585352 	-6.29328e-06 	-0.000124486 	0.185904
0.00585352 	9.38106e-06 	-7.88366e-05 	0.182811
0.00592554 	-6.16294e-06 	-0.000110031 	0.181683
0.00592554 	8.47693e-06 	-6.67963e-05 	0.17858
0.00599629 	-6.01619e-06 	-9.63331e-05 	0.177295
0.00599629 	7.53354e-06 	-5.56779e-05 	0.174191
0.00606579 	-5.85355e-06 	-8.34656e-05 	0.172732
0.00606579 	6.55365e-06 	-4.55248e-05 	0.169637
0.00613406 	-5.67542e-06 	-7.14919e-05 	0.167982
0.00613406 	5.54063e-06 	-3.6362e-05 	0.164906
0.00620114 	4.49822e-06 	-2.81975e-05 	0.159981
0.00620114 	-5.48224e-06 	-6.04611e-05 	0.163029
0.00626703 	-5.27465e-06 	-5.04102e-05 	0.157855
0.00626703 	3.43097e-06 	-2.10286e-05 	0.154845
0.00633176 	2.34507e-06 	-1.48434e-05 	0.149483
0.00633176 	-5.05367e-06 	-4.13689e-05 	0.152444
0.00639535 	1.24859e-06 	-9.6142e-06 	0.14388
0.00639535 	-4.82054e-06 	-3.33508e-05 	0.146781
0.00645783 	-4.57646e-06 	-2.63485e-05 	0.140849
0.00645783 	1.51406e-07 	-5.29659e-06 	0.138018
0.0065192 	-4.32276e-06 	-2.03385e-05 	0.134632
0.0065192 	-9.34641e-07 	-1.83348e-06 	0.13188
0.00657949 	-4.06095e-06 	-1.52843e-05 	0.128113
0.00657949 	-1.9954e-06 	8.41508e-07 	0.125449
0.00663871 	-3.79248e-06 	-1.11364e-05 	0.121274
0.00663871 	-3.01405e-06 	2.80119e-06 	0.118709
0.0066969 	-3.51853e-06 	-7.81847e-06 	0.114099
0.0066969 	-3.97175e-06 	4.12889e-06 	0.111638
0.00675406 	-4.84921e-06 	4.91249e-06 	0.1042
0.00675406 	-3.24016e-06 	-5.23976e-06 	0.106555
0.00681021 	-5.62476e-06 	5.23969e-06 	0.0963701
0.00681021 	-2.9594e-06 	-3.30207e-06 	0.0986085
0.00686537 	-6.27156e-06 	5.19924e-06 	0.0881616
0.00686537 	-2.68067e-06 	-1.91089e-06 	0.0902672
0.00691956 	-6.75998e-06 	4.8796e-06 	0.0796412
0.00691956 	-2.40976e-06 	-9.82236e-07 	0.0815953
0.0069728 	-7.06255e-06 	4.3698e-06 	0.070926
0.0069728 	-2.15192e-06 	-4.21767e-07 	0.0727099
0.0070251 	-1.91107e-06 	-1.31268e-07 	0.0637794
0.0070251 	-7.15955e-06 	3.75379e-06 	0.0621812
0.00707647 	-1.68915e-06 	-1.71952e-08 	0.0550041
0.00707647 	-7.04439e-06 	3.10394e-06 	0.0536004
0.00712695 	-1.48547e-06 	6.80694e-10 	0.0465817
0.00712695 	-6.72579e-06 	2.47656e-06 	0.0453729
0.00717653 	-1.29694e-06 	-1.86786e-08 	0.0386688
0.00717653 	-6.22526e-06 	1.90863e-06 	0.0376475
0.00722524 	-1.11862e-06 	-3.94647e-08 	0.0313583
0.00722524 	-5.57092e-06 	1.41932e-06 	0.0305127
0.00727309 	-4.79065e-06 	1.014e-06 	0.0239996
0.00727309 	-9.43573e-07 	-4.57872e-08 	0.0246826
0.0073201 	-3.90652e-06 	6.87254e-07 	0.0181003
0.0073201 	-7.59932e-07 	-3.71016e-08 	0.0186332
0.00736628 	-2.92895e-06 	4.33026e-07 	0.0127875
0.00736628 	-5.42606e-07 	-1.42205e-08 	0.0131812
0.00741165 	-2.8847e-07 	-3.965e-10 	0.00828862
0.00741165 	-1.89475e-06 	2.3308e-07 	0.00802432
0.00745622 	-7.57341e-08 	6.54152e-09 	0.00391404
0.00745622 	-8.97893e-07 	9.18269e-08 	0.00376985
0.0075 	0 	0 	0
0.0075 	0 	0 	0
