/*--------------------------------*- C++ -*----------------------------------*\
| =========                 |                                                 |
| \\      /  F ield         | OpenFOAM: The Open Source CFD Toolbox           |
|  \\    /   O peration     | Version:  v1912                                 |
|   \\  /    A nd           | Website:  www.openfoam.com                      |
|    \\/     M anipulation  |                                                 |
\*---------------------------------------------------------------------------*/
FoamFile
{
    version     2.0;
    format      ascii;
    class       volVectorField;
    location    "8";
    object      UMean;
}
// * * * * * * * * * * * * * * * * * * * * * * * * * * * * * * * * * * * * * //

dimensions      [0 1 -1 0 0 0 0];


internalField   nonuniform List<vector> 
34128
(
(6.1383e-07 -4.54717e-07 -0.00493146)
(8.73994e-07 -4.52029e-07 -0.00492156)
(2.34026e-07 -4.45393e-07 -0.00490367)
(-1.5023e-06 -4.44599e-07 -0.00490518)
(-1.95219e-06 -4.53918e-07 -0.00493965)
(-3.57026e-07 -4.61927e-07 -0.00496058)
(1.32978e-06 -4.61191e-07 -0.00495397)
(2.39863e-06 -4.50856e-07 -0.00492188)
(1.09231e-06 -4.41061e-07 -0.00488431)
(-1.40421e-06 -4.44524e-07 -0.00489801)
(-1.50678e-06 -4.54182e-07 -0.00493237)
(-7.79717e-07 -4.55562e-07 -0.00494281)
(1.77701e-06 4.81835e-06 -0.0147583)
(2.48878e-06 4.86369e-06 -0.0147295)
(6.29122e-07 4.94082e-06 -0.0146776)
(-4.37288e-06 4.94567e-06 -0.0146823)
(-5.63894e-06 4.8291e-06 -0.0147825)
(-1.021e-06 4.73188e-06 -0.0148432)
(3.82354e-06 4.74266e-06 -0.014824)
(6.95139e-06 4.86957e-06 -0.0147307)
(3.18253e-06 4.99502e-06 -0.0146215)
(-4.0169e-06 4.94551e-06 -0.0146612)
(-4.28805e-06 4.82831e-06 -0.0147609)
(-2.25297e-06 4.80612e-06 -0.0147913)
(2.91317e-06 1.03487e-05 -0.0246689)
(4.02888e-06 1.04801e-05 -0.0246222)
(1.00256e-06 1.06934e-05 -0.0245379)
(-7.10247e-06 1.07025e-05 -0.0245459)
(-9.11701e-06 1.03701e-05 -0.0247089)
(-1.62297e-06 1.00949e-05 -0.0248073)
(6.18589e-06 1.01279e-05 -0.0247761)
(1.13138e-05 1.04888e-05 -0.0246245)
(5.20582e-06 1.08488e-05 -0.0244471)
(-6.46688e-06 1.07055e-05 -0.0245114)
(-6.87425e-06 1.0375e-05 -0.0246731)
(-3.65594e-06 1.03135e-05 -0.0247225)
(4.00639e-06 2.2295e-05 -0.0346305)
(5.48898e-06 2.25539e-05 -0.0345667)
(1.35361e-06 2.29732e-05 -0.0344522)
(-9.69905e-06 2.29901e-05 -0.0344637)
(-1.23986e-05 2.23323e-05 -0.0346859)
(-2.17692e-06 2.17884e-05 -0.0348195)
(8.40541e-06 2.18526e-05 -0.0347771)
(1.54821e-05 2.25675e-05 -0.0345708)
(7.16132e-06 2.3284e-05 -0.0343291)
(-8.76108e-06 2.2996e-05 -0.0344163)
(-9.26637e-06 2.23447e-05 -0.0346361)
(-4.97989e-06 2.22225e-05 -0.0347034)
(5.04794e-06 3.58864e-05 -0.0446017)
(6.869e-06 3.63119e-05 -0.0445221)
(1.68469e-06 3.70036e-05 -0.0443795)
(-1.21671e-05 3.70305e-05 -0.0443949)
(-1.5493e-05 3.59375e-05 -0.0446722)
(-2.69508e-06 3.50364e-05 -0.044838)
(1.04715e-05 3.51419e-05 -0.0447851)
(1.94511e-05 3.63292e-05 -0.0445284)
(9.04711e-06 3.75251e-05 -0.0442273)
(-1.09046e-05 3.70416e-05 -0.0443353)
(-1.14635e-05 3.59651e-05 -0.0446086)
(-6.21457e-06 3.57623e-05 -0.0446924)
(6.03475e-06 5.32481e-05 -0.0545384)
(8.17308e-06 5.38773e-05 -0.054444)
(2.00036e-06 5.49063e-05 -0.0542758)
(-1.45089e-05 5.49449e-05 -0.0542955)
(-1.84072e-05 5.33089e-05 -0.0546234)
(-3.1881e-06 5.19646e-05 -0.054818)
(1.23742e-05 5.21205e-05 -0.0547558)
(2.32144e-05 5.38954e-05 -0.0544534)
(1.08603e-05 5.56926e-05 -0.0540979)
(-1.29017e-05 5.49631e-05 -0.0542244)
(-1.34643e-05 5.33592e-05 -0.0545463)
(-7.35064e-06 5.30569e-05 -0.0546453)
(6.96491e-06 7.36222e-05 -0.0643966)
(9.40497e-06 7.44901e-05 -0.0642885)
(2.30344e-06 7.59201e-05 -0.0640973)
(-1.67278e-05 7.59715e-05 -0.0641218)
(-2.11497e-05 7.36844e-05 -0.0644954)
(-3.66776e-06 7.18121e-05 -0.0647153)
(1.41035e-05 7.20274e-05 -0.0646448)
(2.67641e-05 7.45035e-05 -0.0643018)
(1.25967e-05 7.70251e-05 -0.0638974)
(-1.47566e-05 7.59986e-05 -0.0640401)
(-1.52668e-05 7.37665e-05 -0.0644054)
(-8.37931e-06 7.33473e-05 -0.064518)
(7.83745e-06 9.68656e-05 -0.0741358)
(1.05681e-05 9.80053e-05 -0.0740152)
(2.59573e-06 9.98994e-05 -0.0738035)
(-1.88285e-05 9.99641e-05 -0.0738333)
(-2.37305e-05 9.69179e-05 -0.0742477)
(-4.14633e-06 9.44348e-05 -0.0744892)
(1.56492e-05 9.47175e-05 -0.0744116)
(3.00921e-05 9.80063e-05 -0.0740332)
(1.4251e-05 0.000101376 -0.0735856)
(-1.64735e-05 0.000100001 -0.073742)
(-1.68692e-05 9.70425e-05 -0.0741454)
(-9.29322e-06 9.64898e-05 -0.0742701)
(8.65236e-06 0.000122763 -0.0837218)
(1.16658e-05 0.000124206 -0.0835895)
(2.8787e-06 0.000126626 -0.0833598)
(-2.08159e-05 0.000126704 -0.0833953)
(-2.616e-05 0.000122791 -0.0838457)
(-4.63595e-06 0.000119617 -0.0841055)
(1.70029e-05 0.000119975 -0.0840218)
(3.31916e-05 0.000124184 -0.0836129)
(1.5818e-05 0.000128524 -0.0831274)
(-1.80568e-05 0.000126752 -0.0832953)
(-1.82697e-05 0.000122971 -0.083732)
(-1.00871e-05 0.000122269 -0.0838673)
(9.4106e-06 0.000151131 -0.093128)
(1.27015e-05 0.000152907 -0.0929851)
(3.15421e-06 0.000155914 -0.0927397)
(-2.2695e-05 0.000156003 -0.0927811)
(-2.84491e-05 0.000151118 -0.0932632)
(-5.14816e-06 0.000147176 -0.0935382)
(1.81571e-05 0.000147614 -0.0934495)
(3.60575e-05 0.000152846 -0.0930145)
(1.72922e-05 0.000158279 -0.0924959)
(-1.95113e-05 0.00015606 -0.0926733)
(-1.94672e-05 0.000151366 -0.0931388)
(-1.07579e-05 0.000150503 -0.0932834)
(1.01143e-05 0.000181783 -0.102337)
(1.36788e-05 0.000183919 -0.102184)
(3.42493e-06 0.000187573 -0.101925)
(-2.44699e-05 0.00018767 -0.101973)
(-3.06083e-05 0.000181711 -0.102483)
(-5.69376e-06 0.000176928 -0.10277)
(1.9106e-05 0.00017745 -0.102677)
(3.86863e-05 0.000183802 -0.10222)
(1.86687e-05 0.000190446 -0.101672)
(-2.08419e-05 0.000187733 -0.101858)
(-2.04605e-05 0.00018204 -0.102348)
(-1.13048e-05 0.000181004 -0.102501)
(1.07667e-05 0.000214556 -0.111339)
(1.46013e-05 0.000217079 -0.111178)
(3.69459e-06 0.000221437 -0.110906)
(-2.61432e-05 0.000221537 -0.11096)
(-3.26469e-05 0.000214403 -0.111495)
(-6.28282e-06 0.000208712 -0.111793)
(1.98443e-05 0.00020932 -0.111697)
(4.10759e-05 0.000216882 -0.11122)
(1.99428e-05 0.000224852 -0.110646)
(-2.20527e-05 0.000221601 -0.110839)
(-2.12478e-05 0.000214828 -0.111352)
(-1.17282e-05 0.000213612 -0.111511)
(1.13725e-05 0.000249311 -0.120133)
(1.54733e-05 0.000252245 -0.119963)
(3.96799e-06 0.000257363 -0.119681)
(-2.7716e-05 0.00025746 -0.11974)
(-3.45729e-05 0.000249057 -0.120298)
(-6.9251e-06 0.000242395 -0.120605)
(2.03665e-05 0.000243087 -0.120505)
(4.32237e-05 0.000251941 -0.120012)
(2.11093e-05 0.000261349 -0.119415)
(-2.31473e-05 0.000257516 -0.119613)
(-2.18267e-05 0.000249591 -0.120146)
(-1.20296e-05 0.000248189 -0.120312)
(1.19375e-05 0.000285932 -0.12872)
(1.62988e-05 0.0002893 -0.128543)
(4.25058e-06 0.000295232 -0.12825)
(-2.91871e-05 0.000295318 -0.128315)
(-3.63921e-05 0.000285554 -0.128893)
(-7.6303e-06 0.000277864 -0.129208)
(2.06651e-05 0.000278636 -0.129106)
(4.51252e-05 0.000288858 -0.128598)
(2.21621e-05 0.000299811 -0.127979)
(-2.41273e-05 0.000295353 -0.128183)
(-2.21926e-05 0.000286211 -0.128734)
(-1.22102e-05 0.000284621 -0.128905)
(1.24686e-05 0.000324311 -0.1371)
(1.70817e-05 0.000328134 -0.136917)
(4.54806e-06 0.000334932 -0.136614)
(-3.05524e-05 0.000334999 -0.136685)
(-3.81072e-05 0.000323789 -0.137282)
(-8.40807e-06 0.000315016 -0.137603)
(2.07306e-05 0.000315859 -0.137499)
(4.67713e-05 0.000327519 -0.136978)
(2.30934e-05 0.00034012 -0.136339)
(-2.49922e-05 0.000334996 -0.136548)
(-2.23388e-05 0.000324577 -0.137116)
(-1.22706e-05 0.000322803 -0.137292)
(1.29743e-05 0.000364351 -0.145275)
(1.78257e-05 0.000368649 -0.145086)
(4.86597e-06 0.000376364 -0.144775)
(-3.18056e-05 0.000376403 -0.14485)
(-3.9718e-05 0.000363664 -0.145464)
(-9.26812e-06 0.000353758 -0.145792)
(2.05508e-05 0.000354659 -0.145686)
(4.81489e-05 0.000367821 -0.145153)
(2.38932e-05 0.000382171 -0.144495)
(-2.57389e-05 0.00037634 -0.144709)
(-2.22562e-05 0.00036459 -0.145293)
(-1.22105e-05 0.000362639 -0.145472)
(1.34641e-05 0.000405953 -0.153242)
(1.85349e-05 0.000410742 -0.153049)
(5.20927e-06 0.000419425 -0.15273)
(-3.29378e-05 0.000419428 -0.152809)
(-4.12213e-05 0.00040508 -0.153439)
(-1.02201e-05 0.000393992 -0.153771)
(2.01106e-05 0.000394936 -0.153664)
(4.92393e-05 0.000409659 -0.153121)
(2.45497e-05 0.000425855 -0.152446)
(-2.63614e-05 0.000419276 -0.152665)
(-2.19336e-05 0.000406147 -0.153263)
(-1.20288e-05 0.00040403 -0.153445)
(1.39488e-05 0.000448995 -0.160998)
(1.92132e-05 0.000454293 -0.160801)
(5.582e-06 0.000463995 -0.160474)
(-3.39381e-05 0.000463952 -0.160558)
(-4.26107e-05 0.000447918 -0.161201)
(-1.12734e-05 0.000435601 -0.161536)
(1.93929e-05 0.000436568 -0.161429)
(5.00189e-05 0.000452907 -0.160877)
(2.50493e-05 0.000471048 -0.160188)
(-2.68508e-05 0.000463675 -0.16041)
(-2.13581e-05 0.000449124 -0.16102)
(-1.17233e-05 0.000446859 -0.161205)
(1.44406e-05 0.00049333 -0.168532)
(1.98652e-05 0.00049915 -0.168334)
(5.98697e-06 0.000509921 -0.168)
(-3.47937e-05 0.000509826 -0.168086)
(-4.38769e-05 0.00049203 -0.168742)
(-1.24366e-05 0.000478439 -0.169078)
(1.83787e-05 0.000479402 -0.168971)
(5.04591e-05 0.000497409 -0.168414)
(2.53767e-05 0.000517593 -0.167711)
(-2.71955e-05 0.000509381 -0.167937)
(-2.05156e-05 0.000493369 -0.168556)
(-1.12908e-05 0.000490977 -0.168743)
(1.49527e-05 0.000538767 -0.175832)
(2.04956e-05 0.000545121 -0.175634)
(6.42564e-06 0.000557015 -0.175295)
(-3.54905e-05 0.00055686 -0.175384)
(-4.50082e-05 0.000537228 -0.176047)
(-1.3717e-05 0.000522317 -0.176383)
(1.70482e-05 0.000523247 -0.176276)
(5.05278e-05 0.000542969 -0.175717)
(2.5516e-05 0.000565294 -0.175005)
(-2.73814e-05 0.000556194 -0.175233)
(-1.93916e-05 0.000538687 -0.175859)
(-1.07278e-05 0.000536196 -0.176047)
(1.54995e-05 0.00058507 -0.182883)
(2.11097e-05 0.000591968 -0.182686)
(6.89798e-06 0.000605038 -0.182344)
(-3.6013e-05 0.000604819 -0.182435)
(-4.59902e-05 0.000583278 -0.183103)
(-1.51206e-05 0.000567002 -0.183435)
(1.53823e-05 0.000567865 -0.18333)
(5.01905e-05 0.000589345 -0.182773)
(2.54512e-05 0.000613909 -0.182055)
(-2.73923e-05 0.00060387 -0.182283)
(-1.79724e-05 0.000584838 -0.182913)
(-1.00302e-05 0.000582281 -0.1831)
(1.60962e-05 0.000631954 -0.189667)
(2.17134e-05 0.000639405 -0.189472)
(7.40257e-06 0.000653706 -0.189129)
(-3.63453e-05 0.000653419 -0.189221)
(-4.68071e-05 0.000629897 -0.189889)
(-1.66509e-05 0.000612214 -0.190217)
(1.33633e-05 0.000612969 -0.190114)
(4.94123e-05 0.000636244 -0.189561)
(2.51671e-05 0.000663146 -0.188843)
(-2.72107e-05 0.000652115 -0.18907)
(-1.62459e-05 0.000631535 -0.189699)
(-9.19356e-06 0.000628951 -0.189885)
(1.6759e-05 0.000679088 -0.196164)
(2.23137e-05 0.000687098 -0.195974)
(7.93668e-06 0.000702687 -0.195631)
(-3.64711e-05 0.000702329 -0.195724)
(-4.74419e-05 0.000676757 -0.196388)
(-1.83092e-05 0.000657628 -0.196707)
(1.09771e-05 0.000658228 -0.196607)
(4.81594e-05 0.000683328 -0.196064)
(2.46503e-05 0.000712661 -0.19535)
(-2.68184e-05 0.000700586 -0.195575)
(-1.42029e-05 0.000678443 -0.196198)
(-8.21359e-06 0.000675875 -0.196381)
(1.75045e-05 0.000726097 -0.202355)
(2.29183e-05 0.000734671 -0.20217)
(8.49659e-06 0.000751603 -0.201832)
(-3.63743e-05 0.000751175 -0.201924)
(-4.78771e-05 0.00072349 -0.202579)
(-2.00937e-05 0.000702877 -0.202886)
(8.21417e-06 0.00070327 -0.202791)
(4.64016e-05 0.000730213 -0.202262)
(2.38902e-05 0.000762068 -0.201556)
(-2.61974e-05 0.000748894 -0.201777)
(-1.18381e-05 0.000725183 -0.202391)
(-7.08614e-06 0.000722684 -0.20257)
(1.835e-05 0.000772573 -0.20822)
(2.35365e-05 0.000781714 -0.208043)
(9.07798e-06 0.000800044 -0.20771)
(-3.60397e-05 0.000799545 -0.207802)
(-4.80959e-05 0.000769692 -0.208442)
(-2.19991e-05 0.000747564 -0.208736)
(5.07112e-06 0.00074769 -0.208645)
(4.41142e-05 0.000776482 -0.208134)
(2.28799e-05 0.000810941 -0.207444)
(-2.53309e-05 0.000796615 -0.207658)
(-9.15096e-06 0.000771344 -0.208257)
(-5.80755e-06 0.000768972 -0.208432)
(1.93127e-05 0.000818078 -0.213742)
(2.41793e-05 0.000827788 -0.213574)
(9.67655e-06 0.000847569 -0.21325)
(-3.54534e-05 0.000847001 -0.213341)
(-4.80822e-05 0.000814935 -0.21396)
(-2.40163e-05 0.000791267 -0.214238)
(1.55238e-06 0.000791057 -0.214153)
(4.12798e-05 0.000821689 -0.213664)
(2.1617e-05 0.000858823 -0.212994)
(-2.42041e-05 0.000843296 -0.2132)
(-6.1468e-06 0.000816488 -0.21378)
(-4.37494e-06 0.000814308 -0.213949)
(2.04104e-05 0.000862162 -0.218905)
(2.48596e-05 0.000872441 -0.218747)
(1.02887e-05 0.00089372 -0.218435)
(-3.46033e-05 0.000893087 -0.218524)
(-4.78222e-05 0.000858776 -0.219118)
(-2.61318e-05 0.000833551 -0.219376)
(-2.32851e-06 0.000832928 -0.219298)
(3.7891e-05 0.000865374 -0.218835)
(2.01049e-05 0.000905237 -0.218191)
(-2.28053e-05 0.000888464 -0.218387)
(-2.83771e-06 0.00086016 -0.218944)
(-2.78644e-06 0.000858243 -0.219106)
(2.16606e-05 0.000904366 -0.223697)
(2.55926e-05 0.000915214 -0.223551)
(1.0912e-05 0.000938033 -0.223254)
(-3.348e-05 0.00093734 -0.223339)
(-4.7305e-05 0.000900767 -0.223903)
(-2.83272e-05 0.000873978 -0.22414)
(-6.54738e-06 0.000872859 -0.224068)
(3.39519e-05 0.000907071 -0.223635)
(1.8353e-05 0.000949698 -0.223022)
(-2.11271e-05 0.000931642 -0.223207)
(7.56832e-07 0.000901903 -0.223736)
(-1.04151e-06 0.000900328 -0.223891)
(2.30805e-05 0.000944242 -0.22811)
(2.63959e-05 0.00095566 -0.227975)
(1.15464e-05 0.000980052 -0.227695)
(-3.20771e-05 0.000979304 -0.227777)
(-4.65233e-05 0.000940473 -0.228306)
(-3.05788e-05 0.000912122 -0.228521)
(-1.10681e-05 0.000910413 -0.228456)
(2.94805e-05 0.00094632 -0.228055)
(1.63779e-05 0.000991725 -0.227478)
(-1.91676e-05 0.000972356 -0.227649)
(4.60942e-06 0.000941267 -0.228147)
(8.58772e-07 0.000940116 -0.228294)
(2.46868e-05 0.000981361 -0.232138)
(2.72897e-05 0.000993348 -0.232016)
(1.21944e-05 0.00101934 -0.231756)
(-3.0392e-05 0.00101854 -0.231833)
(-4.54743e-05 0.000977477 -0.232323)
(-3.28576e-05 0.000947579 -0.232514)
(-1.58415e-05 0.000945181 -0.232456)
(2.45107e-05 0.000982685 -0.23209)
(1.42035e-05 0.00103085 -0.231553)
(-1.6931e-05 0.00101015 -0.231709)
(8.68434e-06 0.000977823 -0.232173)
(2.91147e-06 0.000977186 -0.232311)
(2.64949e-05 0.00101533 -0.235781)
(2.8296e-05 0.00102789 -0.235672)
(1.28616e-05 0.00105548 -0.235433)
(-2.84263e-05 0.00105464 -0.235506)
(-4.41605e-05 0.0010114 -0.235953)
(-3.51286e-05 0.000979978 -0.236119)
(-2.08042e-05 0.000976784 -0.236067)
(1.90938e-05 0.00101576 -0.235739)
(1.18617e-05 0.00106665 -0.235244)
(-1.44292e-05 0.00104461 -0.235385)
(1.29375e-05 0.00101118 -0.235812)
(5.11154e-06 0.00101114 -0.235942)
(2.85187e-05 0.0010458 -0.239042)
(2.94387e-05 0.00105893 -0.238946)
(1.35572e-05 0.00108813 -0.23873)
(-2.61866e-05 0.00108725 -0.238798)
(-4.25902e-05 0.0010419 -0.239201)
(-3.73518e-05 0.001009 -0.239341)
(-2.58783e-05 0.0010049 -0.239296)
(1.32999e-05 0.0010452 -0.239005)
(9.39234e-06 0.00109873 -0.238556)
(-1.16822e-05 0.00107536 -0.23868)
(1.7317e-05 0.00104098 -0.239069)
(7.45168e-06 0.00104165 -0.239191)
(3.07693e-05 0.00107247 -0.241929)
(3.07425e-05 0.00108618 -0.241847)
(1.42939e-05 0.00111697 -0.241656)
(-2.36847e-05 0.00111607 -0.241718)
(-4.07782e-05 0.00106871 -0.242074)
(-3.94823e-05 0.00103438 -0.242189)
(-3.09717e-05 0.00102925 -0.242149)
(7.21882e-06 0.0010707 -0.241897)
(6.84313e-06 0.00112675 -0.241494)
(-8.71839e-06 0.00110208 -0.241601)
(2.17634e-05 0.00106695 -0.241952)
(9.92241e-06 0.00106841 -0.242065)
(3.32547e-05 0.00109514 -0.244457)
(3.22318e-05 0.00110943 -0.244388)
(1.5088e-05 0.00114178 -0.244222)
(-2.09385e-05 0.00114084 -0.244278)
(-3.87459e-05 0.00109161 -0.244587)
(-4.14712e-05 0.00105591 -0.244676)
(-3.59788e-05 0.00104964 -0.244642)
(9.60025e-07 0.00109203 -0.244427)
(4.26926e-06 0.00115046 -0.244072)
(-5.57491e-06 0.00112453 -0.244161)
(2.62116e-05 0.00108886 -0.244474)
(1.25122e-05 0.0010912 -0.244579)
(3.59779e-05 0.00111364 -0.246642)
(3.39288e-05 0.00112854 -0.246585)
(1.5958e-05 0.00116238 -0.246444)
(-1.79719e-05 0.00116142 -0.246494)
(-3.65214e-05 0.00111047 -0.246755)
(-4.32674e-05 0.00107347 -0.246821)
(-4.07823e-05 0.00106595 -0.246792)
(-5.34854e-06 0.00110905 -0.246613)
(1.73248e-06 0.00116967 -0.246304)
(-2.29695e-06 0.00114254 -0.246376)
(3.05924e-05 0.00110656 -0.246653)
(1.52077e-05 0.00110988 -0.246749)
(3.89353e-05 0.00112791 -0.248503)
(3.58517e-05 0.00114342 -0.248458)
(1.69241e-05 0.0011787 -0.248343)
(-1.48151e-05 0.00117771 -0.248387)
(-3.41391e-05 0.00112522 -0.248601)
(-4.48186e-05 0.00108701 -0.248645)
(-4.52563e-05 0.00107811 -0.248619)
(-1.15626e-05 0.00112169 -0.248474)
(-7.00395e-07 0.00118428 -0.24821)
(1.06277e-06 0.00115602 -0.248266)
(3.4834e-05 0.00111999 -0.248507)
(1.79934e-05 0.00112435 -0.248596)
(4.21153e-05 0.00113794 -0.250066)
(3.80114e-05 0.00115409 -0.250032)
(1.80061e-05 0.00119073 -0.249941)
(-1.15051e-05 0.0011897 -0.249978)
(-3.16383e-05 0.00113587 -0.250148)
(-4.60734e-05 0.00109653 -0.250171)
(-4.92708e-05 0.00108616 -0.250148)
(-1.75261e-05 0.00112994 -0.250036)
(-2.96031e-06 0.00119426 -0.249814)
(4.44542e-06 0.00116496 -0.249854)
(3.88656e-05 0.00112913 -0.250063)
(2.08521e-05 0.00113463 -0.250145)
(4.5496e-05 0.00114385 -0.251355)
(4.04085e-05 0.00116066 -0.251332)
(1.92203e-05 0.00119856 -0.251264)
(-8.08477e-06 0.00119749 -0.251295)
(-2.90595e-05 0.00114254 -0.251423)
(-4.69819e-05 0.00110214 -0.251426)
(-5.26985e-05 0.00109021 -0.251406)
(-2.30776e-05 0.00113393 -0.251322)
(-4.97865e-06 0.00119969 -0.251139)
(7.78874e-06 0.00116947 -0.251166)
(4.26204e-05 0.00113411 -0.251345)
(2.37657e-05 0.0011408 -0.25142)
(4.90467e-05 0.00114583 -0.2524)
(4.30319e-05 0.00116332 -0.252386)
(2.05788e-05 0.00120238 -0.25234)
(-4.60019e-06 0.00120126 -0.252363)
(-2.64483e-05 0.00114541 -0.252453)
(-4.7503e-05 0.00110405 -0.25244)
(-5.54183e-05 0.00109047 -0.252422)
(-2.80556e-05 0.00113387 -0.252363)
(-6.6881e-06 0.00120078 -0.252215)
(1.1033e-05 0.00116975 -0.252229)
(4.60418e-05 0.00113512 -0.252382)
(2.67174e-05 0.00114304 -0.252451)
(5.27318e-05 0.00114415 -0.253229)
(4.58591e-05 0.00116236 -0.253224)
(2.20905e-05 0.00120245 -0.253198)
(-1.09973e-06 0.00120128 -0.253214)
(-2.38529e-05 0.00114476 -0.253269)
(-4.76143e-05 0.00110251 -0.253242)
(-5.73291e-05 0.00108722 -0.253225)
(-3.23061e-05 0.00113003 -0.253188)
(-8.02575e-06 0.0011978 -0.253071)
(1.41254e-05 0.00116607 -0.253073)
(4.90879e-05 0.00113243 -0.253204)
(2.96913e-05 0.00114162 -0.253267)
(5.65078e-05 0.00113913 -0.253875)
(4.88582e-05 0.00115807 -0.253877)
(2.37546e-05 0.0011991 -0.253868)
(2.3657e-06 0.00119786 -0.253878)
(-2.13069e-05 0.00114088 -0.253902)
(-4.72942e-05 0.0010978 -0.253863)
(-5.83598e-05 0.00108075 -0.253847)
(-3.57075e-05 0.00112275 -0.253829)
(-8.94391e-06 0.00119107 -0.253737)
(1.70202e-05 0.00115877 -0.253731)
(5.17285e-05 0.00112633 -0.253842)
(3.2669e-05 0.00113682 -0.253901)
(6.03202e-05 0.00113106 -0.254364)
(5.19782e-05 0.00115078 -0.254374)
(2.55539e-05 0.00119263 -0.254379)
(5.74516e-06 0.00119131 -0.254383)
(-1.88308e-05 0.00113406 -0.254381)
(-4.65251e-05 0.0010902 -0.254332)
(-5.84657e-05 0.00107138 -0.254316)
(-3.81734e-05 0.00111236 -0.254313)
(-9.41183e-06 0.00118094 -0.254243)
(1.96814e-05 0.00114819 -0.254229)
(5.39492e-05 0.00111714 -0.254324)
(3.56327e-05 0.00112894 -0.254379)
(6.41094e-05 0.00112031 -0.254724)
(5.51544e-05 0.00114083 -0.25474)
(2.74593e-05 0.0011834 -0.254758)
(8.99548e-06 0.00118199 -0.254756)
(-1.64374e-05 0.00112465 -0.254731)
(-4.53044e-05 0.00108003 -0.254674)
(-5.76337e-05 0.00105943 -0.254659)
(-3.96491e-05 0.00109922 -0.254668)
(-9.41495e-06 0.00116779 -0.254615)
(2.20871e-05 0.00113469 -0.254595)
(5.57567e-05 0.0011052 -0.254678)
(3.85673e-05 0.00111829 -0.254728)
(6.78164e-05 0.00110723 -0.254978)
(5.83192e-05 0.00112857 -0.255)
(2.94351e-05 0.00117176 -0.255028)
(1.20821e-05 0.00117024 -0.255021)
(-1.41262e-05 0.00111296 -0.254977)
(-4.3638e-05 0.00106759 -0.254914)
(-5.58842e-05 0.00104524 -0.2549)
(-4.01208e-05 0.0010837 -0.254918)
(-8.95625e-06 0.00115201 -0.254879)
(2.42318e-05 0.00111867 -0.254855)
(5.71769e-05 0.00109084 -0.254927)
(4.14596e-05 0.00110521 -0.254973)
(7.13847e-05 0.00109214 -0.25515)
(6.1404e-05 0.00111435 -0.255176)
(3.14382e-05 0.00115806 -0.255213)
(1.49814e-05 0.00115642 -0.2552)
(-1.18847e-05 0.00109932 -0.255141)
(-4.15388e-05 0.0010532 -0.255073)
(-5.32659e-05 0.00102913 -0.25506)
(-3.96142e-05 0.00106617 -0.255085)
(-8.05418e-06 0.001134 -0.255056)
(2.61257e-05 0.0011005 -0.255029)
(5.82521e-05 0.00107441 -0.255093)
(4.43e-05 0.00109004 -0.255136)
(7.47641e-05 0.00107538 -0.255256)
(6.43445e-05 0.00109847 -0.255287)
(3.3421e-05 0.00114263 -0.25533)
(1.76811e-05 0.00114085 -0.255312)
(-9.69068e-06 0.00108402 -0.255241)
(-3.90245e-05 0.0010371 -0.255169)
(-4.9846e-05 0.00101138 -0.255157)
(-3.81848e-05 0.00104696 -0.255187)
(-6.73939e-06 0.00111412 -0.255166)
(2.77921e-05 0.00108053 -0.255137)
(5.90365e-05 0.0010562 -0.255195)
(4.70823e-05 0.00107305 -0.255234)
(7.7913e-05 0.00105721 -0.255312)
(6.70858e-05 0.00108121 -0.255347)
(3.53357e-05 0.00112575 -0.255395)
(2.01797e-05 0.00112381 -0.255373)
(-7.51602e-06 0.00106731 -0.255292)
(-3.61147e-05 0.00101955 -0.255217)
(-4.56995e-05 0.000992251 -0.255206)
(-3.59063e-05 0.00102636 -0.25524)
(-5.04953e-06 0.0010927 -0.255225)
(2.92632e-05 0.00105906 -0.255195)
(5.95896e-05 0.00103648 -0.255247)
(4.98035e-05 0.00105452 -0.255283)
(8.07985e-05 0.00103786 -0.255331)
(6.95839e-05 0.00106279 -0.255368)
(3.71377e-05 0.00110766 -0.25542)
(2.24837e-05 0.00110553 -0.255395)
(-5.33083e-06 0.00104938 -0.255306)
(-3.28282e-05 0.00100074 -0.255227)
(-4.08977e-05 0.000971944 -0.255218)
(-3.28557e-05 0.00100461 -0.255256)
(-3.02342e-06 0.00107002 -0.255244)
(3.05752e-05 0.00103635 -0.255214)
(5.99697e-05 0.00101547 -0.255262)
(5.24639e-05 0.00103467 -0.255294)
(8.33952e-05 0.00101753 -0.25532)
(7.18064e-05 0.0010434 -0.25536)
(3.87902e-05 0.00108854 -0.255415)
(2.46042e-05 0.00108619 -0.255386)
(-3.10746e-06 0.00103039 -0.255291)
(-2.91796e-05 0.000980804 -0.25521)
(-3.55014e-05 0.000950624 -0.255203)
(-2.90996e-05 0.000981933 -0.255243)
(-6.95231e-07 0.00104632 -0.255234)
(3.17661e-05 0.00101262 -0.255203)
(6.02275e-05 0.000993363 -0.255248)
(5.50654e-05 0.00101367 -0.255276)
(8.56839e-05 0.000996346 -0.255287)
(7.37326e-05 0.00102316 -0.25533)
(4.0269e-05 0.00106854 -0.255387)
(2.65534e-05 0.00106592 -0.255355)
(-8.23359e-07 0.00101047 -0.255254)
(-2.51792e-05 0.000959848 -0.255172)
(-2.9554e-05 0.000928397 -0.255166)
(-2.46822e-05 0.000958451 -0.255209)
(1.91308e-06 0.00102175 -0.255202)
(3.28736e-05 0.000988011 -0.255171)
(6.04075e-05 0.000970276 -0.255212)
(5.76109e-05 0.00099166 -0.255237)
(8.76506e-05 0.000974403 -0.255236)
(7.53589e-05 0.00100218 -0.255281)
(4.15624e-05 0.00104774 -0.25534)
(2.83427e-05 0.00104483 -0.255305)
(1.54954e-06 0.000989657 -0.255201)
(-2.08198e-05 0.000937919 -0.255116)
(-2.3079e-05 0.000905337 -0.255112)
(-1.9642e-05 0.000934269 -0.255158)
(4.7861e-06 0.000996458 -0.255152)
(3.39322e-05 0.000962639 -0.255121)
(6.05478e-05 0.000946299 -0.255159)
(6.01097e-05 0.000968712 -0.25518)
(8.92891e-05 0.000951754 -0.255171)
(7.66915e-05 0.000980496 -0.255218)
(4.26699e-05 0.0010262 -0.255279)
(2.99931e-05 0.00102296 -0.255242)
(4.02818e-06 0.000967981 -0.255133)
(-1.60718e-05 0.000915057 -0.255048)
(-1.60718e-05 0.00088147 -0.255046)
(-1.40122e-05 0.000909486 -0.255093)
(7.91354e-06 0.000970536 -0.255088)
(3.49593e-05 0.000936571 -0.255058)
(6.06684e-05 0.000921464 -0.255092)
(6.25764e-05 0.000944866 -0.25511)
(9.06134e-05 0.000928404 -0.255094)
(7.77267e-05 0.000958107 -0.255143)
(4.35928e-05 0.00100394 -0.255206)
(3.14953e-05 0.00100027 -0.255167)
(6.59022e-06 0.000945394 -0.255055)
(-1.09198e-05 0.000891213 -0.254967)
(-8.51144e-06 0.00085677 -0.254968)
(-7.79636e-06 0.000884092 -0.255017)
(1.12952e-05 0.000944015 -0.255013)
(3.59516e-05 0.000909826 -0.254983)
(6.07521e-05 0.000895752 -0.255014)
(6.5026e-05 0.000920105 -0.255027)
(9.16253e-05 0.000904292 -0.255007)
(7.84743e-05 0.000934955 -0.255058)
(4.43467e-05 0.000980907 -0.255122)
(3.28185e-05 0.000976697 -0.255081)
(9.2314e-06 0.00092183 -0.254967)
(-5.39271e-06 0.000866281 -0.254878)
(-4.38643e-07 0.000831203 -0.25488)
(-9.99022e-07 0.000858019 -0.254932)
(1.49398e-05 0.000916867 -0.254929)
(3.69153e-05 0.000882384 -0.254899)
(6.07793e-05 0.00086916 -0.254926)
(6.74241e-05 0.000894384 -0.254935)
(9.2268e-05 0.000879358 -0.254911)
(7.89299e-05 0.000911006 -0.254964)
(4.4969e-05 0.000957052 -0.25503)
(3.39559e-05 0.000952241 -0.254987)
(1.20006e-05 0.000897279 -0.254872)
(4.76063e-07 0.000840246 -0.25478)
(8.05961e-06 0.000804745 -0.254786)
(6.35307e-06 0.000831308 -0.254839)
(1.88516e-05 0.000889117 -0.254837)
(3.7908e-05 0.000854254 -0.254807)
(6.08085e-05 0.000841666 -0.25483)
(6.96662e-05 0.000867701 -0.254835)
(9.24699e-05 0.00085361 -0.254808)
(7.90383e-05 0.000886277 -0.254863)
(4.54479e-05 0.000932387 -0.25493)
(3.49289e-05 0.000926916 -0.254886)
(1.494e-05 0.000871755 -0.254771)
(6.665e-06 0.000813156 -0.254678)
(1.69005e-05 0.000777427 -0.254686)
(1.41963e-05 0.000804038 -0.254741)
(2.30138e-05 0.000860856 -0.25474)
(3.89683e-05 0.000825488 -0.25471)
(6.09121e-05 0.000813268 -0.254729)
(7.16738e-05 0.000840097 -0.254729)
(9.21911e-05 0.000827111 -0.254701)
(7.87464e-05 0.000860818 -0.254757)
(4.57244e-05 0.000906946 -0.254824)
(3.57628e-05 0.00090075 -0.25478)
(1.80514e-05 0.000845266 -0.254665)
(1.31424e-05 0.000785072 -0.254572)
(2.59833e-05 0.000749303 -0.254583)
(2.24165e-05 0.000776265 -0.254639)
(2.7404e-05 0.000832192 -0.25464)
(4.01031e-05 0.000796155 -0.254609)
(6.11058e-05 0.000784068 -0.254623)
(7.34152e-05 0.00081165 -0.254619)
(9.14021e-05 0.00079992 -0.25459)
(7.80068e-05 0.00083467 -0.254648)
(4.57462e-05 0.000880772 -0.254714)
(3.64741e-05 0.000873773 -0.254672)
(2.13376e-05 0.000817828 -0.254558)
(1.98608e-05 0.000756032 -0.254465)
(3.52019e-05 0.000720424 -0.254478)
(3.08757e-05 0.000748046 -0.254536)
(3.2002e-05 0.000803197 -0.254538)
(4.13455e-05 0.000766318 -0.254506)
(6.13743e-05 0.000754149 -0.254516)
(7.48518e-05 0.000782459 -0.254508)
(9.00782e-05 0.000772072 -0.254479)
(7.67795e-05 0.000807856 -0.254537)
(4.54774e-05 0.0008539 -0.254603)
(3.70799e-05 0.000846001 -0.254562)
(2.4835e-05 0.000789471 -0.254451)
(2.67597e-05 0.000726061 -0.254358)
(4.44544e-05 0.000690824 -0.254374)
(3.94283e-05 0.000719428 -0.254433)
(3.67761e-05 0.000773919 -0.254437)
(4.27415e-05 0.000736033 -0.254403)
(6.16811e-05 0.000723557 -0.254408)
(7.59383e-05 0.000752585 -0.254397)
(8.8208e-05 0.00074357 -0.254369)
(7.50457e-05 0.0007804 -0.254427)
(4.48964e-05 0.000826333 -0.254492)
(3.7603e-05 0.000817434 -0.254453)
(2.85759e-05 0.000760198 -0.254344)
(3.37731e-05 0.000695188 -0.254253)
(5.36271e-05 0.000660526 -0.254271)
(4.79355e-05 0.000690431 -0.254331)
(4.16776e-05 0.000744388 -0.254337)
(4.43297e-05 0.00070534 -0.254302)
(6.19817e-05 0.00069234 -0.254302)
(7.66422e-05 0.000722073 -0.254289)
(8.57965e-05 0.000714399 -0.254261)
(7.28082e-05 0.000752301 -0.254319)
(4.4e-05 0.000798062 -0.254381)
(3.80714e-05 0.000788052 -0.254344)
(3.25687e-05 0.000730001 -0.254239)
(4.08341e-05 0.000663439 -0.254152)
(6.26051e-05 0.000629547 -0.254171)
(5.62609e-05 0.000661066 -0.254232)
(4.66295e-05 0.000714621 -0.25424)
(4.61262e-05 0.000674265 -0.254203)
(6.22266e-05 0.000660546 -0.254199)
(7.69407e-05 0.000690956 -0.254184)
(8.28621e-05 0.000684551 -0.254156)
(7.00888e-05 0.000723555 -0.254213)
(4.27962e-05 0.000769064 -0.254273)
(3.85149e-05 0.000757824 -0.254239)
(3.67963e-05 0.000698869 -0.254137)
(4.78773e-05 0.000630834 -0.254054)
(7.12789e-05 0.000597901 -0.254074)
(6.429e-05 0.000631332 -0.254136)
(5.15543e-05 0.000684609 -0.254146)
(4.81171e-05 0.000642825 -0.254107)
(6.23518e-05 0.000628211 -0.254099)
(7.68134e-05 0.000659272 -0.254083)
(7.94399e-05 0.000654006 -0.254055)
(6.69371e-05 0.000694152 -0.25411)
(4.12868e-05 0.000739312 -0.254168)
(3.89523e-05 0.000726713 -0.254136)
(4.12151e-05 0.000666792 -0.254039)
(5.48291e-05 0.000597397 -0.25396)
(7.95372e-05 0.000565612 -0.253982)
(7.19226e-05 0.000601216 -0.254044)
(5.64113e-05 0.000654328 -0.254057)
(5.02585e-05 0.000611036 -0.254015)
(6.22821e-05 0.000595367 -0.254004)
(7.62432e-05 0.000627043 -0.253987)
(7.55716e-05 0.000622735 -0.253959)
(6.34242e-05 0.000664078 -0.254011)
(3.9481e-05 0.000708779 -0.254066)
(3.937e-05 0.000694678 -0.254037)
(4.57494e-05 0.000633761 -0.253945)
(6.16001e-05 0.000563148 -0.253871)
(8.72608e-05 0.000532686 -0.253894)
(7.90611e-05 0.000570703 -0.253956)
(6.1163e-05 0.000623759 -0.253971)
(5.2483e-05 0.000578912 -0.253928)
(6.19349e-05 0.000562043 -0.253913)
(7.52034e-05 0.000594276 -0.253897)
(7.13043e-05 0.000590713 -0.253867)
(5.96239e-05 0.000633322 -0.253917)
(3.74055e-05 0.000677439 -0.253969)
(3.97333e-05 0.000661678 -0.253943)
(5.02872e-05 0.000599764 -0.253855)
(6.80763e-05 0.000528109 -0.253788)
(9.43223e-05 0.000499119 -0.253811)
(8.56182e-05 0.000539775 -0.253874)
(6.57509e-05 0.00059288 -0.25389)
(5.4704e-05 0.000546461 -0.253846)
(6.12194e-05 0.000528267 -0.253829)
(7.36501e-05 0.00056097 -0.253812)
(6.6701e-05 0.000557902 -0.253781)
(5.5601e-05 0.000601863 -0.253827)
(3.50968e-05 0.000645261 -0.253876)
(4.00052e-05 0.000627677 -0.253853)
(5.46741e-05 0.000564791 -0.253771)
(7.41049e-05 0.000492307 -0.25371)
(0.000100588 0.00046493 -0.253733)
(9.15198e-05 0.000508392 -0.253796)
(7.01074e-05 0.000561653 -0.253814)
(5.68166e-05 0.000513695 -0.25377)
(6.00454e-05 0.00049408 -0.25375)
(7.15349e-05 0.000527126 -0.253735)
(6.1829e-05 0.000524259 -0.253701)
(5.13902e-05 0.000569676 -0.253744)
(3.25903e-05 0.00061222 -0.253789)
(4.01355e-05 0.000592663 -0.253769)
(5.87166e-05 0.000528853 -0.253693)
(7.95022e-05 0.000455762 -0.253638)
(0.000105915 0.000430126 -0.253662)
(9.66835e-05 0.000476513 -0.253724)
(7.41563e-05 0.000530049 -0.253743)
(5.87048e-05 0.00048063 -0.253699)
(5.8329e-05 0.000459498 -0.253679)
(6.88223e-05 0.000492734 -0.253664)
(5.67394e-05 0.000489762 -0.253628)
(4.70045e-05 0.000536745 -0.253667)
(2.9915e-05 0.000578302 -0.253709)
(4.00513e-05 0.000556617 -0.253692)
(6.22156e-05 0.000491963 -0.253621)
(8.40676e-05 0.0004185 -0.253573)
(0.000110151 0.000394689 -0.253597)