0 	373
5.01672e-05 	370.534
0.000100334 	368.067
0.000150502 	365.601
0.000200669 	363.134
0.000250836 	360.668
0.000301003 	358.202
0.000351171 	356.181
0.000401338 	355.846
0.000451505 	355.51
0.000501672 	355.175
0.000551839 	354.84
0.000602007 	354.504
0.000652174 	354.169
0.000702341 	353.834
0.000752508 	353.563
0.000802676 	353.452
0.000852843 	353.341
0.00090301 	353.23
0.000953177 	353.119
0.00100334 	353.008
0.00105351 	352.897
0.00110368 	352.786
0.00115385 	352.675
0.00120401 	352.567
0.00125418 	352.51
0.00130435 	352.454
0.00135452 	352.398
0.00140468 	352.341
0.00145485 	352.285
0.00150502 	352.229
0.00155518 	352.172
0.00160535 	352.116
0.00165552 	352.06
0.00170569 	352.003
0.00175585 	351.952
0.00180602 	351.916
0.00185619 	351.879
0.00190635 	351.843
0.00195652 	351.806
0.00200669 	351.769
0.00205686 	351.733
0.00210702 	351.696
0.00215719 	351.66
0.00220736 	351.623
0.00225753 	351.586
0.00230769 	351.55
0.00235786 	351.513
0.00240803 	351.483
0.00245819 	351.456
0.00250836 	351.43
0.00255853 	351.403
0.0026087 	351.376
0.00265886 	351.349
0.00270903 	351.322
0.0027592 	351.295
0.00280936 	351.268
0.00285953 	351.241
0.0029097 	351.214
0.00295987 	351.187
0.00301003 	351.16
0.0030602 	351.134
0.00311037 	351.107
0.00316054 	351.086
0.0032107 	351.064
0.00326087 	351.043
0.00331104 	351.022
0.0033612 	351
0.00341137 	350.979
0.00346154 	350.958
0.00351171 	350.937
0.00356187 	350.915
0.00361204 	350.894
0.00366221 	350.873
0.00371237 	350.851
0.00376254 	350.83
0.00381271 	350.809
0.00386288 	350.788
0.00391304 	350.766
0.00396321 	350.745
0.00401338 	350.727
0.00406355 	350.709
0.00411371 	350.691
0.00416388 	350.673
0.00421405 	350.656
0.00426421 	350.638
0.00431438 	350.62
0.00436455 	350.602
0.00441472 	350.584
0.00446488 	350.567
0.00451505 	350.549
0.00456522 	350.531
0.00461538 	350.513
0.00466555 	350.495
0.00471572 	350.478
0.00476589 	350.46
0.00481605 	350.442
0.00486622 	350.424
0.00491639 	350.406
0.00496656 	350.389
0.00501672 	350.373
0.00506689 	350.357
0.00511706 	350.341
0.00516722 	350.325
0.00521739 	350.309
0.00526756 	350.294
0.00531773 	350.278
0.00536789 	350.262
0.00541806 	350.246
0.00546823 	350.23
0.00551839 	350.215
0.00556856 	350.199
0.00561873 	350.183
0.0056689 	350.167
0.00571906 	350.151
0.00576923 	350.136
0.0058194 	350.12
0.00586957 	350.104
0.00591973 	350.088
0.0059699 	350.072
0.00602007 	350.057
0.00607023 	350.041
0.0061204 	350.025
0.00617057 	350.01
0.00622074 	349.995
0.0062709 	349.981
0.00632107 	349.966
0.00637124 	349.952
0.0064214 	349.937
0.00647157 	349.922
0.00652174 	349.908
0.00657191 	349.893
0.00662207 	349.878
0.00667224 	349.864
0.00672241 	349.849
0.00677258 	349.834
0.00682274 	349.82
0.00687291 	349.805
0.00692308 	349.791
0.00697324 	349.776
0.00702341 	349.761
0.00707358 	349.747
0.00712375 	349.732
0.00717391 	349.717
0.00722408 	349.703
0.00727425 	349.688
0.00732441 	349.673
0.00737458 	349.659
0.00742475 	349.644
0.00747492 	349.63
0.00752508 	349.614
0.00757525 	349.599
0.00762542 	349.583
0.00767559 	349.567
0.00772575 	349.551
0.00777592 	349.535
0.00782609 	349.52
0.00787625 	349.504
0.00792642 	349.488
0.00797659 	349.472
0.00802676 	349.457
0.00807692 	349.441
0.00812709 	349.425
0.00817726 	349.409
0.00822742 	349.394
0.00827759 	349.378
0.00832776 	349.362
0.00837793 	349.346
0.00842809 	349.33
0.00847826 	349.315
0.00852843 	349.299
0.0085786 	349.283
0.00862876 	349.267
0.00867893 	349.252
0.0087291 	349.236
0.00877926 	349.22
0.00882943 	349.204
0.0088796 	349.187
0.00892977 	349.169
0.00897993 	349.15
0.0090301 	349.131
0.00908027 	349.112
0.00913043 	349.093
0.0091806 	349.074
0.00923077 	349.055
0.00928094 	349.036
0.0093311 	349.017
0.00938127 	348.998
0.00943144 	348.979
0.00948161 	348.96
0.00953177 	348.941
0.00958194 	348.922
0.00963211 	348.904
0.00968227 	348.885
0.00973244 	348.866
0.00978261 	348.847
0.00983278 	348.828
0.00988294 	348.809
0.00993311 	348.79
0.00998328 	348.771
0.0100334 	348.752
0.0100836 	348.73
0.0101338 	348.708
0.0101839 	348.686
0.0102341 	348.663
0.0102843 	348.641
0.0103344 	348.619
0.0103846 	348.597
0.0104348 	348.575
0.0104849 	348.553
0.0105351 	348.531
0.0105853 	348.508
0.0106355 	348.486
0.0106856 	348.464
0.0107358 	348.442
0.010786 	348.42
0.0108361 	348.398
0.0108863 	348.376
0.0109365 	348.354
0.0109866 	348.331
0.0110368 	348.309
0.011087 	348.282
0.0111371 	348.256
0.0111873 	348.229
0.0112375 	348.202
0.0112876 	348.176
0.0113378 	348.149
0.011388 	348.122
0.0114381 	348.096
0.0114883 	348.069
0.0115385 	348.042
0.0115886 	348.016
0.0116388 	347.989
0.011689 	347.962
0.0117391 	347.936
0.0117893 	347.909
0.0118395 	347.882
0.0118896 	347.856
0.0119398 	347.821
0.01199 	347.787
0.0120401 	347.752
0.0120903 	347.718
0.0121405 	347.683
0.0121906 	347.649
0.0122408 	347.614
0.012291 	347.58
0.0123411 	347.545
0.0123913 	347.511
0.0124415 	347.476
0.0124916 	347.442
0.0125418 	347.407
0.012592 	347.373
0.0126421 	347.334
0.0126923 	347.283
0.0127425 	347.233
0.0127926 	347.183
0.0128428 	347.133
0.012893 	347.083
0.0129431 	347.033
0.0129933 	346.982
0.0130435 	346.932
0.0130936 	346.882
0.0131438 	346.832
0.013194 	346.782
0.0132441 	346.732
0.0132943 	346.655
0.0133445 	346.569
0.0133946 	346.483
0.0134448 	346.397
0.013495 	346.311
0.0135452 	346.224
0.0135953 	346.138
0.0136455 	346.052
0.0136957 	345.966
0.0137458 	345.88
0.013796 	345.794
0.0138462 	345.583
0.0138963 	345.367
0.0139465 	345.151
0.0139967 	344.934
0.0140468 	344.718
0.014097 	344.502
0.0141472 	344.285
0.0141973 	344.069
0.0142475 	343.852
0.0142977 	342.923
0.0143478 	341.706
0.014398 	340.488
0.0144482 	339.271
0.0144983 	338.054
0.0145485 	336.837
0.0145987 	335.619
0.0146488 	334.402
0.014699 	331.685
0.0147492 	328.571
0.0147993 	325.456
0.0148495 	322.342
0.0148997 	319.228
0.0149498 	316.114
0.015 	313
