-0.0075 	373
-0.00715932 	360.132
-0.00676191 	358.123
-0.00629832 	357.324
-0.00575752 	356.836
-0.00512667 	356.454
-0.00439077 	356.115
-0.00353231 	355.789
-0.00253089 	355.458
-0.00136271 	355.105
0 	354.715
0.00136271 	354.29
0.00253089 	353.847
0.00353231 	353.392
0.00439077 	352.913
0.00512667 	352.371
0.00575752 	351.687
0.00629832 	350.675
0.00676191 	348.494
0.00715932 	337.567
0.0075 	313
